<event>
 7    1  0.6510186E-006  0.7742526E+02  0.7818608E-02  0.1480877E+00
          2   -1    0    0  502    0  0.00000000000E+00  0.00000000000E+00  0.56369474346E+03  0.56369474346E+03  0.00000000000E+00 0. -1.
          1   -1    0    0  501    0 -0.00000000000E+00 -0.00000000000E+00 -0.15243300696E+04  0.15243300696E+04  0.00000000000E+00 0. -1.
         25    2    1    2    0    0  0.59134709885E+02 -0.14966913201E+02 -0.79504653681E+03  0.80712113797E+03  0.12499845303E+03 0.  0.
          2    1    1    2  501    0 -0.83641689948E+02  0.10177695396E+02 -0.72051046696E+03  0.72542046482E+03  0.00000000000E+00 0. -1.
          1    1    1    2  502    0  0.24506980063E+02  0.47892178048E+01  0.55492167759E+03  0.55548321031E+03  0.00000000000E+00 0. -1.
         22    1    3    3    0    0  0.41811495885E+02 -0.66700572479E+02 -0.57736118946E+03  0.58270327839E+03  0.00000000000E+00 0. -1.
         22    1    3    3    0    0  0.17323213999E+02  0.51733659278E+02 -0.21768534735E+03  0.22441785958E+03  0.00000000000E+00 0. -1.
</event>
<event>
 7    1  0.6510186E-006  0.5041377E+02  0.7818608E-02  0.1502181E+00
          2   -1    0    0  502    0  0.00000000000E+00  0.00000000000E+00  0.11899122875E+04  0.11899122875E+04  0.00000000000E+00 0. -1.
          1   -1    0    0  501    0 -0.00000000000E+00 -0.00000000000E+00 -0.66700239594E+02  0.66700239594E+02  0.00000000000E+00 0. -1.
         25    2    1    2    0    0 -0.61354265489E+02  0.29045127789E+02  0.63562844613E+03  0.65135001443E+03  0.12500141769E+03 0.  0.
          2    1    1    2  501    0  0.31612967934E+02  0.97089211938E+01 -0.53002710287E+02  0.62473435876E+02  0.00000000000E+00 0. -1.
          1    1    1    2  502    0  0.29741297554E+02 -0.38754048983E+02  0.54058631205E+03  0.54278907678E+03  0.00000000000E+00 0. -1.
         22    1    3    3    0    0 -0.48340691490E+02  0.10034351600E+02  0.62323932400E+03  0.62519178309E+03  0.00000000000E+00 0.  1.
         22    1    3    3    0    0 -0.13013573999E+02  0.19010776189E+02  0.12389122131E+02  0.26158231337E+02  0.00000000000E+00 0.  1.
</event>
<event>
 7    1  0.6510186E-006  0.6467650E+02  0.7818608E-02  0.1422153E+00
          2   -1    0    0  502    0  0.00000000000E+00  0.00000000000E+00  0.76462676305E+03  0.76462676305E+03  0.00000000000E+00 0. -1.
          1   -1    0    0  501    0 -0.00000000000E+00 -0.00000000000E+00 -0.22583873110E+04  0.22583873110E+04  0.00000000000E+00 0. -1.
         25    2    1    2    0    0 -0.96286016154E+02 -0.40326975849E+02  0.35731793999E+03  0.39268458649E+03  0.12501124883E+03 0.  0.
          2    1    1    2  501    0  0.38623333091E+02  0.25056916956E+02 -0.22381828050E+04  0.22386562665E+04  0.00000000000E+00 0. -1.
          1    1    1    2  502    0  0.57662683063E+02  0.15270058893E+02  0.38710431711E+03  0.39167322100E+03  0.00000000000E+00 0. -1.
         22    1    3    3    0    0 -0.19192285561E+02  0.17166430100E+02  0.23820959957E+03  0.23959725264E+03  0.00000000000E+00 0. -1.
         22    1    3    3    0    0 -0.77093730593E+02 -0.57493405949E+02  0.11910834042E+03  0.15308733384E+03  0.00000000000E+00 0. -1.
</event>
<event>
 7    1  0.6510186E-006  0.9066876E+02  0.7818608E-02  0.1337329E+00
          2   -1    0    0  502    0  0.00000000000E+00  0.00000000000E+00  0.67115359336E+03  0.67115359336E+03  0.00000000000E+00 0. -1.
          1   -1    0    0  501    0 -0.00000000000E+00 -0.00000000000E+00 -0.13786050239E+03  0.13786050239E+03  0.00000000000E+00 0. -1.
         25    2    1    2    0    0 -0.87838644061E+01  0.24990231353E+02  0.30456067626E+03  0.33027892241E+03  0.12500117250E+03 0.  0.
          2    1    1    2  501    0  0.85036071019E+02  0.31459336086E+02 -0.10094031542E+03  0.13568260934E+03  0.00000000000E+00 0. -1.
          1    1    1    2  502    0 -0.76252206613E+02 -0.56449567439E+02  0.32967273012E+03  0.34305256400E+03  0.00000000000E+00 0. -1.
         22    1    3    3    0    0  0.10451186785E+01  0.38265522434E+02  0.16399575555E+02  0.41644790293E+02  0.00000000000E+00 0.  1.
         22    1    3    3    0    0 -0.98289830846E+01 -0.13275291080E+02  0.28816110071E+03  0.28863413212E+03  0.00000000000E+00 0.  1.
</event>
<event>
 7    1  0.6510186E-006  0.7364857E+02  0.7818608E-02  0.1427160E+00
          2   -1    0    0  502    0  0.00000000000E+00  0.00000000000E+00  0.19416892088E+04  0.19416892088E+04  0.00000000000E+00 0. -1.
          1   -1    0    0  501    0 -0.00000000000E+00 -0.00000000000E+00 -0.84714656710E+03  0.84714656710E+03  0.00000000000E+00 0. -1.
         25    2    1    2    0    0  0.93669266063E+02 -0.44704843801E+02  0.27277283664E+02  0.16474287401E+03  0.12499483937E+03 0.  0.
          2    1    1    2  501    0 -0.54927044937E+02  0.48352416294E+02 -0.77648819423E+03  0.77992874816E+03  0.00000000000E+00 0. -1.
          1    1    1    2  502    0 -0.38742221126E+02 -0.36475724933E+01  0.18437535523E+04  0.18441641538E+04  0.00000000000E+00 0. -1.
         22    1    3    3    0    0 -0.26737708956E+02  0.10952593727E+02 -0.17815490483E+01  0.28948891284E+02  0.00000000000E+00 0.  1.
         22    1    3    3    0    0  0.12040697502E+03 -0.55657437528E+02  0.29058832712E+02  0.13579398272E+03  0.00000000000E+00 0.  1.
</event>
<event>
 7    1  0.6510186E-006  0.1460290E+03  0.7818608E-02  0.1262109E+00
          2   -1    0    0  502    0  0.00000000000E+00  0.00000000000E+00  0.12149234016E+04  0.12149234016E+04  0.00000000000E+00 0. -1.
          1   -1    0    0  501    0 -0.00000000000E+00 -0.00000000000E+00 -0.17394148649E+03  0.17394148649E+03  0.00000000000E+00 0. -1.
         25    2    1    2    0    0  0.94218309747E+02  0.15730931983E+03  0.13120639400E+03  0.25780359232E+03  0.12499704952E+03 0.  0.
          2    1    1    2  501    0 -0.14526516743E+02 -0.13967548267E+03 -0.63678104502E+02  0.15419196198E+03  0.00000000000E+00 0. -1.
          1    1    1    2  502    0 -0.79691793005E+02 -0.17633837163E+02  0.97345362564E+03  0.97686933382E+03  0.00000000000E+00 0. -1.
         22    1    3    3    0    0  0.37162929463E+02  0.74381365475E+02  0.13331764786E+03  0.15712181926E+03  0.00000000000E+00 0.  1.
         22    1    3    3    0    0  0.57055380284E+02  0.82927954354E+02 -0.21112538637E+01  0.10068177306E+03  0.00000000000E+00 0.  1.
</event>
<event>
 7    1  0.6510186E-006  0.1471751E+03  0.7818608E-02  0.1237435E+00
          2   -1    0    0  502    0  0.00000000000E+00  0.00000000000E+00  0.10751311816E+04  0.10751311816E+04  0.00000000000E+00 0. -1.
          1   -1    0    0  501    0 -0.00000000000E+00 -0.00000000000E+00 -0.32112890230E+03  0.32112890230E+03  0.00000000000E+00 0. -1.
         25    2    1    2    0    0  0.57992767749E+02 -0.15724987783E+02  0.25699662152E+02  0.14105184260E+03  0.12499885325E+03 0.  0.
          2    1    1    2  501    0  0.98133414502E+02  0.33302557589E+02 -0.24672417521E+03  0.26760427130E+03  0.00000000000E+00 0. -1.
          1    1    1    2  502    0 -0.15612618225E+03 -0.17577569806E+02  0.97502679237E+03  0.98760397002E+03  0.00000000000E+00 0. -1.
         22    1    3    3    0    0 -0.20894348030E+02 -0.13003346676E+02 -0.34079113833E+02  0.42036255827E+02  0.00000000000E+00 0.  1.
         22    1    3    3    0    0  0.78887115779E+02 -0.27216411069E+01  0.59778775984E+02  0.99015586775E+02  0.00000000000E+00 0.  1.
</event>
<event>
 7    1  0.6510186E-006  0.1011965E+03  0.7818608E-02  0.1318028E+00
          2   -1    0    0  502    0  0.00000000000E+00  0.00000000000E+00  0.87687198655E+03  0.87687198655E+03  0.00000000000E+00 0. -1.
          1   -1    0    0  501    0 -0.00000000000E+00 -0.00000000000E+00 -0.12236101407E+04  0.12236101407E+04  0.00000000000E+00 0. -1.
         25    2    1    2    0    0  0.43226081169E+02 -0.16183684196E+03 -0.15051307325E+02  0.20953465243E+03  0.12497428219E+03 0.  0.
          2    1    1    2  501    0 -0.13368877897E+02  0.98798786632E+02 -0.11075133314E+04  0.11119917745E+04  0.00000000000E+00 0. -1.
          1    1    1    2  502    0 -0.29857203271E+02  0.63038055325E+02  0.77582648458E+03  0.77895570040E+03  0.00000000000E+00 0. -1.
         22    1    3    3    0    0  0.85418448405E+02 -0.11432333223E+03 -0.25988811661E+02  0.14505707136E+03  0.00000000000E+00 0.  1.
         22    1    3    3    0    0 -0.42192367237E+02 -0.47513509724E+02  0.10937504336E+02  0.64477581069E+02  0.00000000000E+00 0.  1.
</event>
<event>
 7    1  0.6510186E-006  0.1034852E+03  0.7818608E-02  0.1392851E+00
          2   -1    0    0  502    0  0.00000000000E+00  0.00000000000E+00  0.11902193537E+04  0.11902193537E+04  0.00000000000E+00 0. -1.
          1   -1    0    0  501    0 -0.00000000000E+00 -0.00000000000E+00 -0.26806287674E+03  0.26806287674E+03  0.00000000000E+00 0. -1.
         25    2    1    2    0    0 -0.76574299109E+02 -0.84350568810E+02 -0.12664254831E+03  0.21128454231E+03  0.12499672409E+03 0.  0.
          2    1    1    2  501    0 -0.13523232943E+02  0.33575567377E+02 -0.93377975497E+02  0.10014810463E+03  0.00000000000E+00 0. -1.
          1    1    1    2  502    0  0.90097532052E+02  0.50775001434E+02  0.11421770008E+04  0.11468495835E+04  0.00000000000E+00 0. -1.
         22    1    3    3    0    0  0.28947271083E+02 -0.45365980664E+02 -0.23711142431E+02  0.58806759647E+02  0.00000000000E+00 0. -1.
         22    1    3    3    0    0 -0.10552157019E+03 -0.38984588146E+02 -0.10293140588E+03  0.15247778266E+03  0.00000000000E+00 0. -1.
</event>
<event>
 7    1  0.6510186E-006  0.8405845E+02  0.7818608E-02  0.1407569E+00
          2   -1    0    0  502    0  0.00000000000E+00  0.00000000000E+00  0.28853415027E+04  0.28853415027E+04  0.00000000000E+00 0. -1.
          1   -1    0    0  501    0 -0.00000000000E+00 -0.00000000000E+00 -0.80470790756E+03  0.80470790756E+03  0.00000000000E+00 0. -1.
         25    2    1    2    0    0  0.17903596118E+02  0.73530803344E+02  0.16178526729E+04  0.16244387103E+04  0.12500613766E+03 0.  0.
          2    1    1    2  501    0  0.20964004652E+02 -0.81426610563E+02 -0.79889700660E+03  0.80330953533E+03  0.00000000000E+00 0. -1.
          1    1    1    2  502    0 -0.38867600770E+02  0.78958072197E+01  0.12616779288E+04  0.12623011646E+04  0.00000000000E+00 0. -1.
         22    1    3    3    0    0 -0.24403056173E+02  0.49260199536E+02  0.26181429579E+03  0.26752346045E+03  0.00000000000E+00 0.  1.
         22    1    3    3    0    0  0.42306652290E+02  0.24270603808E+02  0.13560383771E+04  0.13569152499E+04  0.00000000000E+00 0.  1.
</event>
<event>
 7    1  0.6510186E-006  0.1756104E+03  0.7818608E-02  0.1183899E+00
          2   -1    0    0  502    0  0.00000000000E+00  0.00000000000E+00  0.21785501593E+04  0.21785501593E+04  0.00000000000E+00 0. -1.
          1   -1    0    0  501    0 -0.00000000000E+00 -0.00000000000E+00 -0.46620844412E+03  0.46620844412E+03  0.00000000000E+00 0. -1.
         25    2    1    2    0    0  0.11945794100E+03  0.27203264425E+02  0.48500589004E+03  0.51562216631E+03  0.12500115100E+03 0.  0.
          2    1    1    2  501    0  0.59252628194E+02 -0.14188961256E+03 -0.43082076095E+03  0.45743859060E+03  0.00000000000E+00 0. -1.
          1    1    1    2  502    0 -0.17871056920E+03  0.11468634814E+03  0.16581565861E+04  0.16716978465E+04  0.00000000000E+00 0. -1.
         22    1    3    3    0    0  0.11682213164E+03  0.53846754417E+01  0.47867155308E+03  0.49275030278E+03  0.00000000000E+00 0. -1.
         22    1    3    3    0    0  0.26358093641E+01  0.21818588984E+02  0.63343369609E+01  0.22871863522E+02  0.00000000000E+00 0. -1.
</event>
<event>
 7    1  0.6510186E-006  0.9097903E+02  0.7818608E-02  0.1301206E+00
          2   -1    0    0  502    0  0.00000000000E+00  0.00000000000E+00  0.75061439345E+03  0.75061439345E+03  0.00000000000E+00 0. -1.
          1   -1    0    0  501    0 -0.00000000000E+00 -0.00000000000E+00 -0.66910882644E+03  0.66910882644E+03  0.00000000000E+00 0. -1.
         25    2    1    2    0    0 -0.82645194138E+02  0.44300821080E+02  0.11665971597E+03  0.19500797976E+03  0.12500332787E+03 0.  0.
          2    1    1    2  501    0  0.46557805386E-01 -0.90388351054E+02 -0.62289149432E+03  0.62941549859E+03  0.00000000000E+00 0. -1.
          1    1    1    2  502    0  0.82598636333E+02  0.46087529974E+02  0.58773734536E+03  0.59529974154E+03  0.00000000000E+00 0. -1.
         22    1    3    3    0    0 -0.75304246904E+02 -0.23579211133E+02  0.29392981894E+02  0.84206034131E+02  0.00000000000E+00 0.  1.
         22    1    3    3    0    0 -0.73409472345E+01  0.67880032213E+02  0.87266734072E+02  0.11080194563E+03  0.00000000000E+00 0.  1.
</event>
<event>
 7    1  0.6510186E-006  0.1219214E+03  0.7818608E-02  0.1311762E+00
          2   -1    0    0  502    0  0.00000000000E+00  0.00000000000E+00  0.67287667959E+03  0.67287667959E+03  0.00000000000E+00 0. -1.
          1   -1    0    0  501    0 -0.00000000000E+00 -0.00000000000E+00 -0.35529177851E+03  0.35529177851E+03  0.00000000000E+00 0. -1.
         25    2    1    2    0    0 -0.71861432315E+02  0.11247280353E+03 -0.17025266840E+03  0.24985067567E+03  0.12500076819E+03 0.  0.
          2    1    1    2  501    0 -0.33635220604E+02 -0.51194113999E+02 -0.13256501833E+03  0.14603304235E+03  0.00000000000E+00 0. -1.
          1    1    1    2  502    0  0.10549665292E+03 -0.61278689529E+02  0.62040258781E+03  0.63228474007E+03  0.00000000000E+00 0. -1.
         22    1    3    3    0    0 -0.49848132295E+02  0.99365538641E+02 -0.41639500734E+02  0.11871054959E+03  0.00000000000E+00 0.  1.
         22    1    3    3    0    0 -0.22013300020E+02  0.13107264887E+02 -0.12861316767E+03  0.13114012608E+03  0.00000000000E+00 0.  1.
</event>
<event>
 7    1  0.6510186E-006  0.1011308E+03  0.7818608E-02  0.1389646E+00
          2   -1    0    0  502    0  0.00000000000E+00  0.00000000000E+00  0.17064037528E+04  0.17064037528E+04  0.00000000000E+00 0. -1.
          1   -1    0    0  501    0 -0.00000000000E+00 -0.00000000000E+00 -0.10494743403E+04  0.10494743403E+04  0.00000000000E+00 0. -1.
         25    2    1    2    0    0 -0.47666594282E+02 -0.42270450667E+02  0.15057813669E+03  0.20580977709E+03  0.12499997555E+03 0.  0.
          2    1    1    2  501    0  0.77691431282E+02  0.65568545218E+02 -0.10190927426E+04  0.10241509706E+04  0.00000000000E+00 0. -1.
          1    1    1    2  502    0 -0.30024837001E+02 -0.23298094552E+02  0.15254440184E+04  0.15259173455E+04  0.00000000000E+00 0. -1.
         22    1    3    3    0    0  0.23948947689E+02 -0.45295677604E+02  0.11476174425E+03  0.12568018320E+03  0.00000000000E+00 0.  1.
         22    1    3    3    0    0 -0.71615541971E+02  0.30252269373E+01  0.35816392435E+02  0.80129593890E+02  0.00000000000E+00 0.  1.
</event>
<event>
 7    1  0.6510186E-006  0.1606078E+03  0.7818608E-02  0.1356010E+00
          2   -1    0    0  502    0  0.00000000000E+00  0.00000000000E+00  0.85329086141E+03  0.85329086141E+03  0.00000000000E+00 0. -1.
          1   -1    0    0  501    0 -0.00000000000E+00 -0.00000000000E+00 -0.15095465949E+04  0.15095465949E+04  0.00000000000E+00 0. -1.
         25    2    1    2    0    0  0.20311597724E+02  0.15266828165E+03 -0.19247196903E+03  0.27638858996E+03  0.12500011428E+03 0.  0.
          2    1    1    2  501    0 -0.51884770162E+02 -0.15318318350E+03 -0.12696774871E+04  0.12799367322E+04  0.00000000000E+00 0. -1.
          1    1    1    2  502    0  0.31573172438E+02  0.51490185658E+00  0.80589372266E+03  0.80651213417E+03  0.00000000000E+00 0. -1.
         22    1    3    3    0    0 -0.47782375429E+02  0.10414529575E+03 -0.11671092010E+03  0.16355683080E+03  0.00000000000E+00 0.  1.
         22    1    3    3    0    0  0.68093973153E+02  0.48522985893E+02 -0.75761048933E+02  0.11283175916E+03  0.00000000000E+00 0.  1.
</event>
<event>
 7    1  0.6510186E-006  0.1375019E+03  0.7818608E-02  0.1274506E+00
          2   -1    0    0  502    0  0.00000000000E+00  0.00000000000E+00  0.21573926123E+04  0.21573926123E+04  0.00000000000E+00 0. -1.
          1   -1    0    0  501    0 -0.00000000000E+00 -0.00000000000E+00 -0.26665600162E+03  0.26665600162E+03  0.00000000000E+00 0. -1.
         25    2    1    2    0    0 -0.64908235583E+02 -0.10194222226E+02  0.32551198396E+03  0.35482448855E+03  0.12500145902E+03 0.  0.
          2    1    1    2  501    0  0.14163617866E+03  0.56340756159E+01 -0.23117960782E+03  0.27117625446E+03  0.00000000000E+00 0. -1.
          1    1    1    2  502    0 -0.76727943076E+02  0.45601466103E+01  0.17964042345E+04  0.17980478709E+04  0.00000000000E+00 0. -1.
         22    1    3    3    0    0 -0.77645484960E+02  0.80520964557E+01  0.93741462992E+02  0.12198819400E+03  0.00000000000E+00 0.  1.
         22    1    3    3    0    0  0.12737249377E+02 -0.18246318682E+02  0.23177052097E+03  0.23283629455E+03  0.00000000000E+00 0.  1.
</event>
<event>
 7    1  0.6510186E-006  0.3698828E+02  0.7818608E-02  0.1540000E+00
          2   -1    0    0  502    0  0.00000000000E+00  0.00000000000E+00  0.21266641039E+04  0.21266641039E+04  0.00000000000E+00 0. -1.
          1   -1    0    0  501    0 -0.00000000000E+00 -0.00000000000E+00 -0.14013925598E+02  0.14013925598E+02  0.00000000000E+00 0. -1.
         25    2    1    2    0    0  0.17291434026E+02 -0.65511588458E+02  0.55667821945E+03  0.57454971563E+03  0.12500389514E+03 0.  0.
          2    1    1    2  501    0 -0.19237626032E+02  0.29256097563E+02  0.58231708520E+02  0.67948049104E+02  0.00000000000E+00 0. -1.
          1    1    1    2  502    0  0.19461920059E+01  0.36255490895E+02  0.14977402504E+04  0.14981802648E+04  0.00000000000E+00 0. -1.
         22    1    3    3    0    0  0.21652694309E+02 -0.90864526710E+02  0.25144907516E+03  0.26823839916E+03  0.00000000000E+00 0.  1.
         22    1    3    3    0    0 -0.43612602835E+01  0.25352938252E+02  0.30522914430E+03  0.30631131647E+03  0.00000000000E+00 0.  1.
</event>
<event>
 7    1  0.6510186E-006  0.1528772E+03  0.7818608E-02  0.1238157E+00
          2   -1    0    0  502    0  0.00000000000E+00  0.00000000000E+00  0.87854036912E+03  0.87854036912E+03  0.00000000000E+00 0. -1.
          1   -1    0    0  501    0 -0.00000000000E+00 -0.00000000000E+00 -0.18179367651E+03  0.18179367651E+03  0.00000000000E+00 0. -1.
         25    2    1    2    0    0 -0.93637894322E+02 -0.99443328524E+01  0.87774398484E+02  0.17942914520E+03  0.12499411230E+03 0.  0.
          2    1    1    2  501    0  0.16468686142E+03  0.78935724741E+02 -0.69379930267E+02  0.19536167917E+03  0.00000000000E+00 0. -1.
          1    1    1    2  502    0 -0.71048967098E+02 -0.68991391889E+02  0.67835222439E+03  0.68554322126E+03  0.00000000000E+00 0. -1.
         22    1    3    3    0    0 -0.19115338404E+02 -0.58285591241E+02  0.11633031714E+02  0.62433434436E+02  0.00000000000E+00 0. -1.
         22    1    3    3    0    0 -0.74522555918E+02  0.48341258389E+02  0.76141366770E+02  0.11699571076E+03  0.00000000000E+00 0. -1.
</event>
<event>
 7    1  0.7792809E-006  0.4829206E+02  0.7818608E-02  0.1466124E+00
          2   -1    0    0  502    0  0.00000000000E+00  0.00000000000E+00  0.97586145524E+03  0.97586145524E+03  0.00000000000E+00 0. -1.
          1   -1    0    0  501    0 -0.00000000000E+00 -0.00000000000E+00 -0.14680481084E+04  0.14680481084E+04  0.00000000000E+00 0. -1.
         25    2    1    2    0    0  0.84242698273E+02  0.37121277556E+02 -0.97672206696E+02  0.18341146806E+03  0.12500034078E+03 0.  0.
          2    1    1    2  501    0 -0.38485901288E+02 -0.22288177800E+02 -0.13265133906E+04  0.13272587174E+04  0.00000000000E+00 0. -1.
          1    1    1    2  502    0 -0.45756796985E+02 -0.14833099757E+02  0.93199894408E+03  0.93323937823E+03  0.00000000000E+00 0. -1.
         22    1    3    3    0    0  0.11611907139E+03  0.22853770028E+02 -0.62461064567E+02  0.13381822795E+03  0.00000000000E+00 0. -1.
         22    1    3    3    0    0 -0.31876373120E+02  0.14267507528E+02 -0.35211142129E+02  0.49593240108E+02  0.00000000000E+00 0. -1.
</event>
<event>
 7    1  0.6510186E-006  0.8907610E+02  0.7818608E-02  0.1384536E+00
          2   -1    0    0  502    0  0.00000000000E+00  0.00000000000E+00  0.17167792583E+03  0.17167792583E+03  0.00000000000E+00 0. -1.
          1   -1    0    0  501    0 -0.00000000000E+00 -0.00000000000E+00 -0.16612182132E+03  0.16612182132E+03  0.00000000000E+00 0. -1.
         25    2    1    2    0    0 -0.41421309015E+02  0.59496688346E+02 -0.63057522754E+02  0.15765968963E+03  0.12499898317E+03 0.  0.
          2    1    1    2  501    0  0.80278087134E+02 -0.82120683887E+02  0.25063880050E+02  0.11754393255E+03  0.00000000000E+00 0. -1.
          1    1    1    2  502    0 -0.38856778118E+02  0.22623995541E+02  0.43549747209E+02  0.62596124975E+02  0.00000000000E+00 0. -1.
         22    1    3    3    0    0 -0.40472749771E+02 -0.15391623386E+01 -0.83893328171E+02  0.93158483276E+02  0.00000000000E+00 0.  1.
         22    1    3    3    0    0 -0.94855924422E+00  0.61035850685E+02  0.20835805417E+02  0.64501206352E+02  0.00000000000E+00 0.  1.
</event>
<event>
 7    1  0.6510186E-006  0.4609290E+02  0.7818608E-02  0.1471599E+00
          2   -1    0    0  502    0  0.00000000000E+00  0.00000000000E+00  0.27590772210E+04  0.27590772210E+04  0.00000000000E+00 0. -1.
          1   -1    0    0  501    0 -0.00000000000E+00 -0.00000000000E+00 -0.71290392357E+02  0.71290392357E+02  0.00000000000E+00 0. -1.
         25    2    1    2    0    0 -0.84127861054E+02 -0.11948379734E+02  0.46325542589E+03  0.48729785589E+03  0.12503339536E+03 0.  0.
          2    1    1    2  501    0  0.39585729379E+02  0.20978396997E+02 -0.50543548095E+02  0.67540901423E+02  0.00000000000E+00 0. -1.
          1    1    1    2  502    0  0.44542131676E+02 -0.90300172630E+01  0.22750749508E+04  0.22755288560E+04  0.00000000000E+00 0. -1.
         22    1    3    3    0    0 -0.88316207126E+02  0.10016972350E+02  0.15847870330E+03  0.18170193058E+03  0.00000000000E+00 0. -1.
         22    1    3    3    0    0  0.41883460719E+01 -0.21965352084E+02  0.30477672258E+03  0.30559592531E+03  0.00000000000E+00 0. -1.
</event>
<event>
 7    1  0.6510186E-006  0.8272498E+02  0.7818608E-02  0.1346586E+00
          2   -1    0    0  502    0  0.00000000000E+00  0.00000000000E+00  0.10636108612E+04  0.10636108612E+04  0.00000000000E+00 0. -1.
          1   -1    0    0  501    0 -0.00000000000E+00 -0.00000000000E+00 -0.49328281933E+03  0.49328281933E+03  0.00000000000E+00 0. -1.
         25    2    1    2    0    0 -0.12388908234E+03 -0.40712543359E+02  0.22335929275E+02  0.18201676920E+03  0.12500077850E+03 0.  0.
          2    1    1    2  501    0  0.80719923813E+02 -0.97767717328E+01 -0.40828127395E+03  0.41629903918E+03  0.00000000000E+00 0. -1.
          1    1    1    2  502    0  0.43169158526E+02  0.50489315092E+02  0.95627338657E+03  0.95857787219E+03  0.00000000000E+00 0. -1.
         22    1    3    3    0    0 -0.32973339936E+02 -0.76195433968E+02  0.88356962762E+01  0.83492843003E+02  0.00000000000E+00 0. -1.
         22    1    3    3    0    0 -0.90915742403E+02  0.35482890609E+02  0.13500232999E+02  0.98523926199E+02  0.00000000000E+00 0. -1.
</event>
<event>
 7    1  0.6510186E-006  0.1851568E+03  0.7818608E-02  0.1318295E+00
          2   -1    0    0  502    0  0.00000000000E+00  0.00000000000E+00  0.11876978095E+04  0.11876978095E+04  0.00000000000E+00 0. -1.
          1   -1    0    0  501    0 -0.00000000000E+00 -0.00000000000E+00 -0.72737014640E+03  0.72737014640E+03  0.00000000000E+00 0. -1.
         25    2    1    2    0    0 -0.93920696290E+02 -0.12568147578E+03  0.74684929264E+02  0.21405524937E+03  0.12499952231E+03 0.  0.
          2    1    1    2  501    0 -0.15200677476E-01 -0.38030982220E+02 -0.64858684123E+03  0.64970089000E+03  0.00000000000E+00 0. -1.
          1    1    1    2  502    0  0.93935896967E+02  0.16371245800E+03  0.10342295750E+04  0.10513118165E+04  0.00000000000E+00 0. -1.
         22    1    3    3    0    0 -0.91553765208E+02 -0.14786025895E+03  0.79527012090E+02  0.19123099579E+03  0.00000000000E+00 0.  1.
         22    1    3    3    0    0 -0.23669310816E+01  0.22178783164E+02 -0.48420828253E+01  0.22824253580E+02  0.00000000000E+00 0.  1.
</event>
<event>
 7    1  0.6510186E-006  0.9595761E+02  0.7818608E-02  0.1403754E+00
          2   -1    0    0  502    0  0.00000000000E+00  0.00000000000E+00  0.11630669615E+03  0.11630669615E+03  0.00000000000E+00 0. -1.
          1   -1    0    0  501    0 -0.00000000000E+00 -0.00000000000E+00 -0.41109590047E+03  0.41109590047E+03  0.00000000000E+00 0. -1.
         25    2    1    2    0    0  0.93460485914E+02  0.87398862016E+02 -0.54006691096E+02  0.18685689665E+03  0.12500141453E+03 0.  0.
          2    1    1    2  501    0 -0.65335885189E+02 -0.65248387094E+02 -0.27556948728E+03  0.29062806512E+03  0.00000000000E+00 0. -1.
          1    1    1    2  502    0 -0.28124600726E+02 -0.22150474922E+02  0.34786974058E+02  0.49917634853E+02  0.00000000000E+00 0. -1.
         22    1    3    3    0    0  0.48761724639E+02  0.98833022596E+02 -0.77841699720E+02  0.13492591434E+03  0.00000000000E+00 0. -1.
         22    1    3    3    0    0  0.44698761275E+02 -0.11434160580E+02  0.23835008625E+02  0.51930982311E+02  0.00000000000E+00 0. -1.
</event>
<event>
 7    1  0.6510186E-006  0.9817688E+02  0.7818608E-02  0.1308957E+00
          2   -1    0    0  502    0  0.00000000000E+00  0.00000000000E+00  0.91619387324E+03  0.91619387324E+03  0.00000000000E+00 0. -1.
          1   -1    0    0  501    0 -0.00000000000E+00 -0.00000000000E+00 -0.18961412890E+03  0.18961412890E+03  0.00000000000E+00 0. -1.
         25    2    1    2    0    0 -0.39474759463E+02  0.15632084104E+03 -0.10164640795E+02  0.20426120557E+03  0.12499943280E+03 0.  0.
          2    1    1    2  501    0  0.12454739991E+02 -0.83118635227E+02 -0.58552256594E+02  0.10243141521E+03  0.00000000000E+00 0. -1.
          1    1    1    2  502    0  0.27020019472E+02 -0.73202205816E+02  0.79529664173E+03  0.79911538136E+03  0.00000000000E+00 0. -1.
         22    1    3    3    0    0 -0.62697210471E+02  0.11600293891E+03 -0.51948046721E+02  0.14172586777E+03  0.00000000000E+00 0.  1.
         22    1    3    3    0    0  0.23222451009E+02  0.40317902135E+02  0.41783405926E+02  0.62535337803E+02  0.00000000000E+00 0.  1.
</event>
<event>
 7    1  0.6510186E-006  0.7034822E+02  0.7818608E-02  0.1408865E+00
          2   -1    0    0  502    0  0.00000000000E+00  0.00000000000E+00  0.27807167618E+04  0.27807167618E+04  0.00000000000E+00 0. -1.
          1   -1    0    0  501    0 -0.00000000000E+00 -0.00000000000E+00 -0.88684419510E+02  0.88684419510E+02  0.00000000000E+00 0. -1.
         25    2    1    2    0    0  0.26911715292E+02 -0.11354039420E+03  0.12990565147E+04  0.13102655987E+04  0.12502979264E+03 0.  0.
          2    1    1    2  501    0 -0.17766072534E+02  0.67527167602E+02 -0.67965287211E+02  0.97441428373E+02  0.00000000000E+00 0. -1.
          1    1    1    2  502    0 -0.91456427581E+01  0.46013226596E+02  0.14609411148E+04  0.14616941543E+04  0.00000000000E+00 0. -1.
         22    1    3    3    0    0  0.68187050677E+02 -0.73771334211E+02  0.55604876948E+03  0.56505036737E+03  0.00000000000E+00 0. -1.
         22    1    3    3    0    0 -0.41275335386E+02 -0.39769059987E+02  0.74300774524E+03  0.74521523128E+03  0.00000000000E+00 0. -1.
</event>
<event>
 7    1  0.6510186E-006  0.6904874E+02  0.7818608E-02  0.1453237E+00
          2   -1    0    0  502    0  0.00000000000E+00  0.00000000000E+00  0.41210874829E+03  0.41210874829E+03  0.00000000000E+00 0. -1.
          1   -1    0    0  501    0 -0.00000000000E+00 -0.00000000000E+00 -0.41691040084E+02  0.41691040084E+02  0.00000000000E+00 0. -1.
         25    2    1    2    0    0  0.26718914669E+02  0.34154245366E+02  0.11921982560E+03  0.17809774087E+03  0.12500010243E+03 0.  0.
          2    1    1    2  501    0  0.53633815568E+01  0.33734642422E+02  0.46735501171E+02  0.57887814182E+02  0.00000000000E+00 0. -1.
          1    1    1    2  502    0 -0.32082296225E+02 -0.67888887788E+02  0.20446238143E+03  0.21781423332E+03  0.00000000000E+00 0. -1.
         22    1    3    3    0    0 -0.40385582718E+02  0.35625578824E+02  0.18265137500E+02  0.56866443584E+02  0.00000000000E+00 0. -1.
         22    1    3    3    0    0  0.67104497387E+02 -0.14713334576E+01  0.10095468810E+03  0.12123129728E+03  0.00000000000E+00 0. -1.
</event>
<event>
 7    1  0.6510186E-006  0.1781913E+03  0.7818608E-02  0.1299099E+00
          2   -1    0    0  502    0  0.00000000000E+00  0.00000000000E+00  0.29323531208E+04  0.29323531208E+04  0.00000000000E+00 0. -1.
          1   -1    0    0  501    0 -0.00000000000E+00 -0.00000000000E+00 -0.15443391515E+03  0.15443391515E+03  0.00000000000E+00 0. -1.
         25    2    1    2    0    0  0.16131385716E+03 -0.15410312239E+03  0.12624757138E+04  0.12881141122E+04  0.12499241993E+03 0.  0.
          2    1    1    2  501    0 -0.13020891288E+03  0.11879624725E+03 -0.86291011095E+02  0.19624741514E+03  0.00000000000E+00 0. -1.
          1    1    1    2  502    0 -0.31104944283E+02  0.35306875145E+02  0.16017345029E+04  0.16024255086E+04  0.00000000000E+00 0. -1.
         22    1    3    3    0    0  0.12864346695E+03 -0.49598529571E+02  0.53673232077E+03  0.55415768504E+03  0.00000000000E+00 0.  1.
         22    1    3    3    0    0  0.32670390209E+02 -0.10450459282E+03  0.72574339307E+03  0.73395642712E+03  0.00000000000E+00 0.  1.
</event>
<event>
 7    1  0.6510186E-006  0.3751393E+02  0.7818608E-02  0.1612252E+00
          2   -1    0    0  502    0  0.00000000000E+00  0.00000000000E+00  0.87527712930E+03  0.87527712930E+03  0.00000000000E+00 0. -1.
          1   -1    0    0  501    0 -0.00000000000E+00 -0.00000000000E+00 -0.97895480635E+03  0.97895480635E+03  0.00000000000E+00 0. -1.
         25    2    1    2    0    0  0.13571983579E+02 -0.28729927578E+02 -0.51997260866E+02  0.13906131334E+03  0.12499890501E+03 0.  0.
          2    1    1    2  501    0 -0.32932356357E+02  0.18189169066E+02 -0.88287878561E+03  0.88367999641E+03  0.00000000000E+00 0. -1.
          1    1    1    2  502    0  0.19360372777E+02  0.10540758512E+02  0.83119836943E+03  0.83149062590E+03  0.00000000000E+00 0. -1.
         22    1    3    3    0    0 -0.10296279686E+02  0.47749531261E+02 -0.20523670158E+02  0.52983508263E+02  0.00000000000E+00 0. -1.
         22    1    3    3    0    0  0.23868263266E+02 -0.76479458839E+02 -0.31473590708E+02  0.86077805082E+02  0.00000000000E+00 0. -1.
</event>
<event>
 7    1  0.6510186E-006  0.3796227E+02  0.7818608E-02  0.1552057E+00
          2   -1    0    0  502    0  0.00000000000E+00  0.00000000000E+00  0.14059059661E+03  0.14059059661E+03  0.00000000000E+00 0. -1.
          1   -1    0    0  501    0 -0.00000000000E+00 -0.00000000000E+00 -0.42456185876E+03  0.42456185876E+03  0.00000000000E+00 0. -1.
         25    2    1    2    0    0 -0.38819040295E+02 -0.33279376328E+01 -0.16520098947E+02  0.13196735052E+03  0.12499789948E+03 0.  0.
          2    1    1    2  501    0  0.10591207879E+02  0.29730466358E+02 -0.34505150505E+03  0.34649186924E+03  0.00000000000E+00 0. -1.
          1    1    1    2  502    0  0.28227832416E+02 -0.26402528725E+02  0.77600341841E+02  0.86693235606E+02  0.00000000000E+00 0. -1.
         22    1    3    3    0    0 -0.12150025884E+02  0.52963387316E+02 -0.37743978407E+02  0.66161555536E+02  0.00000000000E+00 0. -1.
         22    1    3    3    0    0 -0.26669014411E+02 -0.56291324949E+02  0.21223879460E+02  0.65805794984E+02  0.00000000000E+00 0. -1.
</event>
<event>
 7    1  0.6510186E-006  0.8201907E+02  0.7818608E-02  0.1451690E+00
          2   -1    0    0  502    0  0.00000000000E+00  0.00000000000E+00  0.10897341308E+04  0.10897341308E+04  0.00000000000E+00 0. -1.
          1   -1    0    0  501    0 -0.00000000000E+00 -0.00000000000E+00 -0.72888061921E+03  0.72888061921E+03  0.00000000000E+00 0. -1.
         25    2    1    2    0    0  0.10014081297E+03 -0.33022136828E+01  0.67111736050E+02  0.17369272162E+03  0.12500435749E+03 0.  0.
          2    1    1    2  501    0 -0.78485827233E+02  0.22718645523E+02 -0.67290010086E+03  0.67784268652E+03  0.00000000000E+00 0. -1.
          1    1    1    2  502    0 -0.21654985741E+02 -0.19416431841E+02  0.96664187640E+03  0.96707934185E+03  0.00000000000E+00 0. -1.
         22    1    3    3    0    0  0.21460066868E+02  0.57053708048E+02  0.22836995997E+02  0.65093689849E+02  0.00000000000E+00 0.  1.
         22    1    3    3    0    0  0.78680746106E+02 -0.60355921731E+02  0.44274740053E+02  0.10859903178E+03  0.00000000000E+00 0.  1.
</event>
<event>
 7    1  0.6510186E-006  0.5782589E+02  0.7818608E-02  0.1443022E+00
          2   -1    0    0  502    0  0.00000000000E+00  0.00000000000E+00  0.70251593035E+02  0.70251593035E+02  0.00000000000E+00 0. -1.
          1   -1    0    0  501    0 -0.00000000000E+00 -0.00000000000E+00 -0.37950766785E+03  0.37950766785E+03  0.00000000000E+00 0. -1.
         25    2    1    2    0    0 -0.31379475561E+02  0.25116753800E+02 -0.57618266916E+02  0.14338776269E+03  0.12499865198E+03 0.  0.
          2    1    1    2  501    0  0.46916249992E+01 -0.60079687727E+02 -0.25522295858E+03  0.26224099376E+03  0.00000000000E+00 0. -1.
          1    1    1    2  502    0  0.26687850562E+02  0.34962933927E+02  0.35851506824E+01  0.44130504437E+02  0.00000000000E+00 0. -1.
         22    1    3    3    0    0 -0.70207505428E+02  0.49085689339E+02 -0.38273931877E+02  0.93826395954E+02  0.00000000000E+00 0.  1.
         22    1    3    3    0    0  0.38828029867E+02 -0.23968935539E+02 -0.19344335039E+02  0.49561366732E+02  0.00000000000E+00 0.  1.
</event>
<event>
 7    1  0.6510186E-006  0.1622027E+03  0.7818608E-02  0.1222781E+00
          2   -1    0    0  502    0  0.00000000000E+00  0.00000000000E+00  0.32971506154E+04  0.32971506154E+04  0.00000000000E+00 0. -1.
          1   -1    0    0  501    0 -0.00000000000E+00 -0.00000000000E+00 -0.44232414187E+03  0.44232414187E+03  0.00000000000E+00 0. -1.
         25    2    1    2    0    0  0.17857697913E+03  0.19191408822E+03  0.41455044480E+03  0.50616003881E+03  0.12500063550E+03 0.  0.
          2    1    1    2  501    0 -0.54446700567E+02 -0.94872357592E+02 -0.38673980714E+03  0.40191153985E+03  0.00000000000E+00 0. -1.
          1    1    1    2  502    0 -0.12413027856E+03 -0.97041730633E+02  0.28270158359E+04  0.28314031787E+04  0.00000000000E+00 0. -1.
         22    1    3    3    0    0  0.15946778376E+03  0.10832557291E+03  0.34718683952E+03  0.39711850289E+03  0.00000000000E+00 0. -1.
         22    1    3    3    0    0  0.19109195363E+02  0.83588515310E+02  0.67363605282E+02  0.10904153592E+03  0.00000000000E+00 0. -1.
</event>
<event>
 7    1  0.6510186E-006  0.4964601E+02  0.7818608E-02  0.1545413E+00
          2   -1    0    0  502    0  0.00000000000E+00  0.00000000000E+00  0.15482488758E+04  0.15482488758E+04  0.00000000000E+00 0. -1.
          1   -1    0    0  501    0 -0.00000000000E+00 -0.00000000000E+00 -0.14742125189E+03  0.14742125189E+03  0.00000000000E+00 0. -1.
         25    2    1    2    0    0 -0.22979704719E+02 -0.93747723822E+01  0.31943305183E+03  0.34391742186E+03  0.12500306105E+03 0.  0.
          2    1    1    2  501    0  0.46712398546E+02  0.17809962470E+02 -0.13042162882E+03  0.13967478014E+03  0.00000000000E+00 0. -1.
          1    1    1    2  502    0 -0.23732693827E+02 -0.84351900883E+01  0.12118162009E+04  0.12120779257E+04  0.00000000000E+00 0. -1.
         22    1    3    3    0    0 -0.32146991210E+01  0.25078849080E+02  0.29744400619E+03  0.29851669933E+03  0.00000000000E+00 0. -1.
         22    1    3    3    0    0 -0.19765005598E+02 -0.34453621463E+02  0.21989045644E+02  0.45400722533E+02  0.00000000000E+00 0. -1.
</event>
<event>
 7    1  0.6510186E-006  0.1220065E+03  0.7818608E-02  0.1436304E+00
          2   -1    0    0  502    0  0.00000000000E+00  0.00000000000E+00  0.13743370619E+04  0.13743370619E+04  0.00000000000E+00 0. -1.
          1   -1    0    0  501    0 -0.00000000000E+00 -0.00000000000E+00 -0.11848427890E+03  0.11848427890E+03  0.00000000000E+00 0. -1.
         25    2    1    2    0    0 -0.12061590690E+03  0.67337942648E+02  0.57926526768E+03  0.60848652833E+03  0.12500003722E+03 0.  0.
          2    1    1    2  501    0  0.15547638704E+02 -0.15452594017E+02 -0.98260632501E+02  0.10067603305E+03  0.00000000000E+00 0. -1.
          1    1    1    2  502    0  0.10506826820E+03 -0.51885348632E+02  0.77484814784E+03  0.78365877944E+03  0.00000000000E+00 0. -1.
         22    1    3    3    0    0 -0.60561996604E+02  0.79410670426E+02  0.49096567782E+03  0.50102006627E+03  0.00000000000E+00 0. -1.
         22    1    3    3    0    0 -0.60053910299E+02 -0.12072727778E+02  0.88299589856E+02  0.10746646206E+03  0.00000000000E+00 0. -1.
</event>
<event>
 7    1  0.6510186E-006  0.4014584E+02  0.7818608E-02  0.1513596E+00
          2   -1    0    0  502    0  0.00000000000E+00  0.00000000000E+00  0.72462133091E+03  0.72462133091E+03  0.00000000000E+00 0. -1.
          1   -1    0    0  501    0 -0.00000000000E+00 -0.00000000000E+00 -0.14886905213E+04  0.14886905213E+04  0.00000000000E+00 0. -1.
         25    2    1    2    0    0 -0.70513597236E+02  0.15810934573E+02 -0.12573999876E+03  0.19146265004E+03  0.12500098409E+03 0.  0.
          2    1    1    2  501    0  0.37745110329E+02  0.72128360757E+01 -0.13292316500E+04  0.13297870122E+04  0.00000000000E+00 0. -1.
          1    1    1    2  502    0  0.32768486908E+02 -0.23023770649E+02  0.69090245841E+03  0.69206218997E+03  0.00000000000E+00 0. -1.
         22    1    3    3    0    0 -0.99280303968E+02 -0.17014901764E+02 -0.86611736635E+02  0.13284456542E+03  0.00000000000E+00 0. -1.
         22    1    3    3    0    0  0.28766706732E+02  0.32825836337E+02 -0.39128262123E+02  0.58618084618E+02  0.00000000000E+00 0. -1.
</event>
<event>
 7    1  0.6510186E-006  0.1063554E+03  0.7818608E-02  0.1293089E+00
          2   -1    0    0  502    0  0.00000000000E+00  0.00000000000E+00  0.89827193635E+03  0.89827193635E+03  0.00000000000E+00 0. -1.
          1   -1    0    0  501    0 -0.00000000000E+00 -0.00000000000E+00 -0.16371781911E+04  0.16371781911E+04  0.00000000000E+00 0. -1.
         25    2    1    2    0    0  0.10806883863E+03  0.28678913497E+02  0.20623818943E+03  0.26582045296E+03  0.12499987388E+03 0.  0.
          2    1    1    2  501    0 -0.12353073316E+02 -0.82435244594E+02 -0.16017464587E+04  0.16039139272E+04  0.00000000000E+00 0. -1.
          1    1    1    2  502    0 -0.95715765316E+02  0.53756331096E+02  0.65660201446E+03  0.66571574734E+03  0.00000000000E+00 0. -1.
         22    1    3    3    0    0  0.12043110997E+03  0.44229239019E+02  0.20952591001E+03  0.24568472642E+03  0.00000000000E+00 0. -1.
         22    1    3    3    0    0 -0.12362271343E+02 -0.15550325521E+02 -0.32877205782E+01  0.20135726537E+02  0.00000000000E+00 0. -1.
</event>
<event>
 7    1  0.6510186E-006  0.3802697E+02  0.7818608E-02  0.1573279E+00
          2   -1    0    0  502    0  0.00000000000E+00  0.00000000000E+00  0.93575414507E+03  0.93575414507E+03  0.00000000000E+00 0. -1.
          1   -1    0    0  501    0 -0.00000000000E+00 -0.00000000000E+00 -0.70493595828E+02  0.70493595828E+02  0.00000000000E+00 0. -1.
         25    2    1    2    0    0 -0.21666395551E+02 -0.19538925870E+02  0.15634780765E+02  0.12936269102E+03  0.12505621591E+03 0.  0.
          2    1    1    2  501    0 -0.16405416577E+02  0.22138453602E+02  0.11780959483E+01  0.27579643417E+02  0.00000000000E+00 0. -1.
          1    1    1    2  502    0  0.38071812128E+02 -0.25995277315E+01  0.84844767253E+03  0.84930540646E+03  0.00000000000E+00 0. -1.
         22    1    3    3    0    0 -0.23563557172E+02  0.51619423830E+02  0.12536257893E+02  0.58111650339E+02  0.00000000000E+00 0. -1.
         22    1    3    3    0    0  0.18971616208E+01 -0.71158349700E+02  0.30985228719E+01  0.71251040682E+02  0.00000000000E+00 0. -1.
</event>
<event>
 7    1  0.6510186E-006  0.6270667E+02  0.7818608E-02  0.1515518E+00
          2   -1    0    0  502    0  0.00000000000E+00  0.00000000000E+00  0.28371644817E+03  0.28371644817E+03  0.00000000000E+00 0. -1.
          1   -1    0    0  501    0 -0.00000000000E+00 -0.00000000000E+00 -0.11337608785E+04  0.11337608785E+04  0.00000000000E+00 0. -1.
         25    2    1    2    0    0  0.68754240600E+01 -0.86485675835E+02 -0.51881818753E+03  0.54067055629E+03  0.12500118058E+03 0.  0.
          2    1    1    2  501    0 -0.34763048416E+00  0.24283322138E+02 -0.60018276331E+03  0.60067391316E+03  0.00000000000E+00 0. -1.
          1    1    1    2  502    0 -0.65277935758E+01  0.62202353697E+02  0.26895652052E+03  0.27613285720E+03  0.00000000000E+00 0. -1.
         22    1    3    3    0    0  0.20506646940E+02 -0.11377847196E+03 -0.46125152307E+03  0.47551974805E+03  0.00000000000E+00 0.  1.
         22    1    3    3    0    0 -0.13631222880E+02  0.27292796123E+02 -0.57566664457E+02  0.65150808239E+02  0.00000000000E+00 0.  1.
</event>
<event>
 7    1  0.6510186E-006  0.1420946E+03  0.7818608E-02  0.1370403E+00
          2   -1    0    0  502    0  0.00000000000E+00  0.00000000000E+00  0.48671465792E+03  0.48671465792E+03  0.00000000000E+00 0. -1.
          1   -1    0    0  501    0 -0.00000000000E+00 -0.00000000000E+00 -0.78555253059E+03  0.78555253059E+03  0.00000000000E+00 0. -1.
         25    2    1    2    0    0  0.62037229363E+02 -0.14121855530E+03  0.32601715442E+03  0.38171180155E+03  0.12500166511E+03 0.  0.
          2    1    1    2  501    0  0.54111920088E+01  0.31177754538E+02 -0.72593113744E+03  0.72662049908E+03  0.00000000000E+00 0. -1.
          1    1    1    2  502    0 -0.67448421371E+02  0.11004080076E+03  0.10107611036E+03  0.16393488787E+03  0.00000000000E+00 0. -1.
         22    1    3    3    0    0  0.44143052060E+02 -0.95643157390E+02  0.31413791638E+03  0.33132891982E+03  0.00000000000E+00 0. -1.
         22    1    3    3    0    0  0.17894177303E+02 -0.45575397905E+02  0.11879238044E+02  0.50382881736E+02  0.00000000000E+00 0. -1.
</event>
<event>
 7    1  0.6510186E-006  0.4507522E+02  0.7818608E-02  0.1579542E+00
          2   -1    0    0  502    0  0.00000000000E+00  0.00000000000E+00  0.68266595247E+03  0.68266595247E+03  0.00000000000E+00 0. -1.
          1   -1    0    0  501    0 -0.00000000000E+00 -0.00000000000E+00 -0.13610657586E+04  0.13610657586E+04  0.00000000000E+00 0. -1.
         25    2    1    2    0    0 -0.63781169175E+01 -0.40388948692E+02 -0.58267815806E+03  0.59733574392E+03  0.12499683007E+03 0.  0.
          2    1    1    2  501    0  0.28329046801E+02  0.36131212872E+02 -0.77018989800E+03  0.77155717767E+03  0.00000000000E+00 0. -1.
          1    1    1    2  502    0 -0.21950929883E+02  0.42577358201E+01  0.67446824992E+03  0.67483878948E+03  0.00000000000E+00 0. -1.
         22    1    3    3    0    0  0.16338762462E+02  0.17200324551E+02 -0.19344829764E+02  0.30610925534E+02  0.00000000000E+00 0.  1.
         22    1    3    3    0    0 -0.22716879379E+02 -0.57589273243E+02 -0.56333332830E+03  0.56672481838E+03  0.00000000000E+00 0.  1.
</event>
<event>
 7    1  0.6510186E-006  0.9440173E+02  0.7818608E-02  0.1385508E+00
          2   -1    0    0  502    0  0.00000000000E+00  0.00000000000E+00  0.32712207302E+04  0.32712207302E+04  0.00000000000E+00 0. -1.
          1   -1    0    0  501    0 -0.00000000000E+00 -0.00000000000E+00 -0.25622048236E+03  0.25622048236E+03  0.00000000000E+00 0. -1.
         25    2    1    2    0    0  0.11911252867E+02  0.13506298630E+03  0.15924964386E+03  0.24365721092E+03  0.12499799658E+03 0.  0.
          2    1    1    2  501    0 -0.19136660913E+00 -0.42093791679E+02 -0.21122433888E+03  0.21537791265E+03  0.00000000000E+00 0. -1.
          1    1    1    2  502    0 -0.11719886258E+02 -0.92969194617E+02  0.30669749429E+04  0.30684060890E+04  0.00000000000E+00 0. -1.
         22    1    3    3    0    0 -0.20704569260E+02  0.17295927649E+02  0.10770251277E+03  0.11102999395E+03  0.00000000000E+00 0.  1.
         22    1    3    3    0    0  0.32615822127E+02  0.11776705865E+03  0.51547131098E+02  0.13262721696E+03  0.00000000000E+00 0.  1.
</event>
<event>
 7    1  0.6510186E-006  0.1211500E+03  0.7818608E-02  0.1374078E+00
          2   -1    0    0  502    0  0.00000000000E+00  0.00000000000E+00  0.18440995479E+04  0.18440995479E+04  0.00000000000E+00 0. -1.
          1   -1    0    0  501    0 -0.00000000000E+00 -0.00000000000E+00 -0.52899962901E+03  0.52899962901E+03  0.00000000000E+00 0. -1.
         25    2    1    2    0    0  0.14861052923E+03 -0.30444311983E+02  0.42302897571E+03  0.46646583142E+03  0.12499964823E+03 0.  0.
          2    1    1    2  501    0 -0.11387866323E+03  0.39937696255E+02 -0.49986793130E+03  0.51422885787E+03  0.00000000000E+00 0. -1.
          1    1    1    2  502    0 -0.34731866001E+02 -0.94933842723E+01  0.13919388745E+04  0.13924044876E+04  0.00000000000E+00 0. -1.
         22    1    3    3    0    0  0.36208453501E+02 -0.48720149172E+02  0.26387256365E+03  0.27076453772E+03  0.00000000000E+00 0. -1.
         22    1    3    3    0    0  0.11240207573E+03  0.18275837189E+02  0.15915641206E+03  0.19570129370E+03  0.00000000000E+00 0. -1.
</event>
<event>
 7    1  0.6510186E-006  0.9282874E+02  0.7818608E-02  0.1382758E+00
          2   -1    0    0  502    0  0.00000000000E+00  0.00000000000E+00  0.17886450231E+03  0.17886450231E+03  0.00000000000E+00 0. -1.
          1   -1    0    0  501    0 -0.00000000000E+00 -0.00000000000E+00 -0.41053213733E+03  0.41053213733E+03  0.00000000000E+00 0. -1.
         25    2    1    2    0    0  0.22873539246E+02 -0.49144463319E+02  0.37245714890E+01  0.13629789951E+03  0.12499947162E+03 0.  0.
          2    1    1    2  501    0 -0.27573283631E+02  0.92663777679E+02 -0.33266619357E+03  0.34642987459E+03  0.00000000000E+00 0. -1.
          1    1    1    2  502    0  0.46997443847E+01 -0.43519314359E+02  0.97273987057E+02  0.10666886555E+03  0.00000000000E+00 0. -1.
         22    1    3    3    0    0 -0.38927671898E+01  0.41026286923E+02 -0.63632792220E+01  0.41698934968E+02  0.00000000000E+00 0. -1.
         22    1    3    3    0    0  0.26766306436E+02 -0.90170750242E+02  0.10087850711E+02  0.94598964537E+02  0.00000000000E+00 0. -1.
</event>
<event>
 7    1  0.6510186E-006  0.1060134E+03  0.7818608E-02  0.1452011E+00
          2   -1    0    0  502    0  0.00000000000E+00  0.00000000000E+00  0.20565324767E+04  0.20565324767E+04  0.00000000000E+00 0. -1.
          1   -1    0    0  501    0 -0.00000000000E+00 -0.00000000000E+00 -0.39423419222E+03  0.39423419222E+03  0.00000000000E+00 0. -1.
         25    2    1    2    0    0  0.10078620736E+03  0.68431838487E+02  0.33397731863E+03  0.37683550412E+03  0.12499348660E+03 0.  0.
          2    1    1    2  501    0 -0.70772854569E+01 -0.21304315958E+02 -0.37084842784E+03  0.37152727798E+03  0.00000000000E+00 0. -1.
          1    1    1    2  502    0 -0.93708921901E+02 -0.47127522529E+02  0.16991693936E+04  0.17024038868E+04  0.00000000000E+00 0. -1.
         22    1    3    3    0    0  0.11322629621E+03  0.10691459760E+02  0.19352906785E+03  0.22447271899E+03  0.00000000000E+00 0. -1.
         22    1    3    3    0    0 -0.12440088855E+02  0.57740378727E+02  0.14044825078E+03  0.15236278513E+03  0.00000000000E+00 0. -1.
</event>
<event>
 7    1  0.6510186E-006  0.1080949E+03  0.7818608E-02  0.1316766E+00
          2   -1    0    0  502    0  0.00000000000E+00  0.00000000000E+00  0.30158845462E+03  0.30158845462E+03  0.00000000000E+00 0. -1.
          1   -1    0    0  501    0 -0.00000000000E+00 -0.00000000000E+00 -0.72488467895E+03  0.72488467895E+03  0.00000000000E+00 0. -1.
         25    2    1    2    0    0 -0.41384424011E+02  0.59770073898E+02  0.11558530949E+01  0.14460546899E+03  0.12499709349E+03 0.  0.
          2    1    1    2  501    0 -0.65221415335E+02 -0.10385169756E+02 -0.63624825240E+03  0.63966672842E+03  0.00000000000E+00 0. -1.
          1    1    1    2  502    0  0.10660583935E+03 -0.49384904142E+02  0.21179617498E+03  0.24220093616E+03  0.00000000000E+00 0. -1.
         22    1    3    3    0    0 -0.18079657629E+02  0.95530127913E+02 -0.16129319576E+02  0.98554727482E+02  0.00000000000E+00 0. -1.
         22    1    3    3    0    0 -0.23304766382E+02 -0.35760054015E+02  0.17285172671E+02  0.46050741509E+02  0.00000000000E+00 0. -1.
</event>
<event>
 7    1  0.6510186E-006  0.5406736E+02  0.7818608E-02  0.1489113E+00
          2   -1    0    0  502    0  0.00000000000E+00  0.00000000000E+00  0.47586571875E+03  0.47586571875E+03  0.00000000000E+00 0. -1.
          1   -1    0    0  501    0 -0.00000000000E+00 -0.00000000000E+00 -0.79831427150E+03  0.79831427150E+03  0.00000000000E+00 0. -1.
         25    2    1    2    0    0  0.67068803050E+02 -0.41620162600E+02 -0.41253954575E+02  0.15348196135E+03  0.12499744563E+03 0.  0.
          2    1    1    2  501    0 -0.52521080807E+02  0.11165582598E+02 -0.69923689914E+03  0.70129549784E+03  0.00000000000E+00 0. -1.
          1    1    1    2  502    0 -0.14547722243E+02  0.30454580003E+02  0.41804230097E+03  0.41940253107E+03  0.00000000000E+00 0. -1.
         22    1    3    3    0    0  0.52610281183E+02  0.10247788676E+02 -0.73311983018E+02  0.90815778987E+02  0.00000000000E+00 0.  1.
         22    1    3    3    0    0  0.14458521867E+02 -0.51867951277E+02  0.32058028443E+02  0.62666182362E+02  0.00000000000E+00 0.  1.
</event>
<event>
 7    1  0.6510186E-006  0.4670570E+02  0.7818608E-02  0.1571352E+00
          2   -1    0    0  502    0  0.00000000000E+00  0.00000000000E+00  0.22762552067E+03  0.22762552067E+03  0.00000000000E+00 0. -1.
          1   -1    0    0  501    0 -0.00000000000E+00 -0.00000000000E+00 -0.66592896237E+02  0.66592896237E+02  0.00000000000E+00 0. -1.
         25    2    1    2    0    0  0.68220485574E+01  0.31197802426E+02  0.27937360115E+02  0.13199821496E+03  0.12499275755E+03 0.  0.
          2    1    1    2  501    0  0.21302418595E+02  0.78579488577E+01  0.22649125947E+01  0.22818199476E+02  0.00000000000E+00 0. -1.
          1    1    1    2  502    0 -0.28124467153E+02 -0.39055751284E+02  0.13083035172E+03  0.13940200247E+03  0.00000000000E+00 0. -1.
         22    1    3    3    0    0 -0.45279907234E+02 -0.25482798348E+02  0.13247213591E+02  0.53620254370E+02  0.00000000000E+00 0.  1.
         22    1    3    3    0    0  0.52101955792E+02  0.56680600774E+02  0.14690146523E+02  0.78377960590E+02  0.00000000000E+00 0.  1.
</event>
<event>
 7    1  0.6510186E-006  0.7332422E+02  0.7818608E-02  0.1441139E+00
          2   -1    0    0  502    0  0.00000000000E+00  0.00000000000E+00  0.14124051888E+04  0.14124051888E+04  0.00000000000E+00 0. -1.
          1   -1    0    0  501    0 -0.00000000000E+00 -0.00000000000E+00 -0.11317549579E+03  0.11317549579E+03  0.00000000000E+00 0. -1.
         25    2    1    2    0    0  0.71923793551E+02  0.52126645141E+02  0.53774456345E+03  0.55918137182E+03  0.12499748737E+03 0.  0.
          2    1    1    2  501    0 -0.34003323460E+02  0.90137387999E+01 -0.97889492463E+02  0.10401839370E+03  0.00000000000E+00 0. -1.
          1    1    1    2  502    0 -0.37920470091E+02 -0.61140383941E+02  0.85937462202E+03  0.86238091907E+03  0.00000000000E+00 0. -1.
         22    1    3    3    0    0  0.37740604723E+02  0.54243870586E+02  0.51222633737E+03  0.51647126874E+03  0.00000000000E+00 0. -1.
         22    1    3    3    0    0  0.34183188829E+02 -0.21172254446E+01  0.25518226085E+02  0.42710103074E+02  0.00000000000E+00 0. -1.
</event>
<event>
 7    1  0.6510186E-006  0.1742378E+03  0.7818608E-02  0.1273512E+00
          2   -1    0    0  502    0  0.00000000000E+00  0.00000000000E+00  0.26348750295E+04  0.26348750295E+04  0.00000000000E+00 0. -1.
          1   -1    0    0  501    0 -0.00000000000E+00 -0.00000000000E+00 -0.10873133813E+03  0.10873133813E+03  0.00000000000E+00 0. -1.
         25    2    1    2    0    0 -0.54049293114E+02  0.13844272763E+03  0.13261137901E+03  0.23515525667E+03  0.12499800789E+03 0.  0.
          2    1    1    2  501    0  0.48185626464E+02  0.37794728379E+02 -0.36987712410E+02  0.71542902934E+02  0.00000000000E+00 0. -1.
          1    1    1    2  502    0  0.58636666505E+01 -0.17623745601E+03  0.24305200248E+04  0.24369082080E+04  0.00000000000E+00 0. -1.
         22    1    3    3    0    0 -0.49757503133E+02 -0.42535736664E+01  0.47653956891E+02  0.69027542433E+02  0.00000000000E+00 0.  1.
         22    1    3    3    0    0 -0.42917899814E+01  0.14269630130E+03  0.84957422120E+02  0.16612771424E+03  0.00000000000E+00 0.  1.
</event>
<event>
 7    1  0.6510186E-006  0.8520591E+02  0.7818608E-02  0.1405096E+00
          2   -1    0    0  502    0  0.00000000000E+00  0.00000000000E+00  0.19540632920E+04  0.19540632920E+04  0.00000000000E+00 0. -1.
          1   -1    0    0  501    0 -0.00000000000E+00 -0.00000000000E+00 -0.15709142374E+03  0.15709142374E+03  0.00000000000E+00 0. -1.
         25    2    1    2    0    0 -0.51224207948E+01 -0.70058342355E+02  0.70105883279E+03  0.71557156059E+03  0.12499904302E+03 0.  0.
          2    1    1    2  501    0 -0.33840595261E+02  0.78626651534E+02 -0.13726044781E+03  0.16176454109E+03  0.00000000000E+00 0. -1.
          1    1    1    2  502    0  0.38963016056E+02 -0.85683091790E+01  0.12331734833E+04  0.12338186140E+04  0.00000000000E+00 0. -1.
         22    1    3    3    0    0  0.37440703301E+02  0.14840704021E+01  0.73346838552E+02  0.82363629438E+02  0.00000000000E+00 0. -1.
         22    1    3    3    0    0 -0.42563124096E+02 -0.71542412757E+02  0.62771199424E+03  0.63320793115E+03  0.00000000000E+00 0. -1.
</event>
<event>
 7    1  0.6510186E-006  0.2246369E+03  0.7818608E-02  0.1320374E+00
          2   -1    0    0  502    0  0.00000000000E+00  0.00000000000E+00  0.38491759677E+03  0.38491759677E+03  0.00000000000E+00 0. -1.
          1   -1    0    0  501    0 -0.00000000000E+00 -0.00000000000E+00 -0.33958001461E+04  0.33958001461E+04  0.00000000000E+00 0. -1.
         25    2    1    2    0    0  0.16236239089E+03 -0.16166492115E+03 -0.13387795188E+04  0.13639842363E+04  0.12500121725E+03 0.  0.
          2    1    1    2  501    0  0.16555430516E+02  0.25936180203E+02 -0.20104247943E+04  0.20106602451E+04  0.00000000000E+00 0. -1.
          1    1    1    2  502    0 -0.17891782141E+03  0.13572874094E+03  0.33832176368E+03  0.40607326152E+03  0.00000000000E+00 0. -1.
         22    1    3    3    0    0  0.10762517997E+03 -0.37571517807E+02 -0.41783541787E+03  0.43310649353E+03  0.00000000000E+00 0.  1.
         22    1    3    3    0    0  0.54737210926E+02 -0.12409340334E+03 -0.92094410091E+03  0.93087774279E+03  0.00000000000E+00 0.  1.
</event>
<event>
 7    1  0.7556572E-006  0.1053041E+03  0.7818608E-02  0.1365507E+00
          2   -1    0    0  502    0  0.00000000000E+00  0.00000000000E+00  0.68598800705E+03  0.68598800705E+03  0.00000000000E+00 0. -1.
          1   -1    0    0  501    0 -0.00000000000E+00 -0.00000000000E+00 -0.16627557823E+04  0.16627557823E+04  0.00000000000E+00 0. -1.
         25    2    1    2    0    0 -0.12812735340E+03 -0.64916133148E+02 -0.35433168564E+03  0.40225125287E+03  0.12499761578E+03 0.  0.
          2    1    1    2  501    0  0.27619319167E+02  0.34854609840E+02 -0.12799197148E+04  0.12806920578E+04  0.00000000000E+00 0. -1.
          1    1    1    2  502    0  0.10050803423E+03  0.30061523308E+02  0.65748362515E+03  0.66580047872E+03  0.00000000000E+00 0. -1.
         22    1    3    3    0    0 -0.31293830510E+02 -0.34489593391E+02 -0.25848880528E+03  0.26265052510E+03  0.00000000000E+00 0. -1.
         22    1    3    3    0    0 -0.96833522887E+02 -0.30426539757E+02 -0.95842880362E+02  0.13960072776E+03  0.00000000000E+00 0. -1.
</event>
<event>
 7    1  0.6510186E-006  0.6452552E+02  0.7818608E-02  0.1491498E+00
          2   -1    0    0  502    0  0.00000000000E+00  0.00000000000E+00  0.34421261985E+03  0.34421261985E+03  0.00000000000E+00 0. -1.
          1   -1    0    0  501    0 -0.00000000000E+00 -0.00000000000E+00 -0.53658394157E+03  0.53658394157E+03  0.00000000000E+00 0. -1.
         25    2    1    2    0    0 -0.63208348254E+02 -0.64653172993E+02 -0.21768564720E+02  0.15580397475E+03  0.12500272026E+03 0.  0.
          2    1    1    2  501    0  0.48843552753E+02  0.40834883882E+02 -0.44482776130E+03  0.44936056525E+03  0.00000000000E+00 0. -1.
          1    1    1    2  502    0  0.14364795501E+02  0.23818289111E+02  0.27422500429E+03  0.27563202141E+03  0.00000000000E+00 0. -1.
         22    1    3    3    0    0 -0.37038566979E+02 -0.15194342585E+02 -0.70846240241E+02  0.81375138997E+02  0.00000000000E+00 0. -1.
         22    1    3    3    0    0 -0.26169781275E+02 -0.49458830409E+02  0.49077675521E+02  0.74428835756E+02  0.00000000000E+00 0. -1.
</event>
<event>
 7    1  0.6510186E-006  0.7234234E+02  0.7818608E-02  0.1389870E+00
          2   -1    0    0  502    0  0.00000000000E+00  0.00000000000E+00  0.23477414908E+02  0.23477414908E+02  0.00000000000E+00 0. -1.
          1   -1    0    0  501    0 -0.00000000000E+00 -0.00000000000E+00 -0.23814322621E+04  0.23814322621E+04  0.00000000000E+00 0. -1.
         25    2    1    2    0    0  0.30480918996E+02  0.94525065098E+02 -0.52837995826E+03  0.55197240050E+03  0.12499630500E+03 0.  0.
          2    1    1    2  501    0 -0.53924170481E+02 -0.46956146418E+02 -0.17763970859E+04  0.17778355668E+04  0.00000000000E+00 0. -1.
          1    1    1    2  502    0  0.23443251485E+02 -0.47568918680E+02 -0.53177803057E+02  0.75101709718E+02  0.00000000000E+00 0. -1.
         22    1    3    3    0    0  0.59231785017E+02  0.10366986278E+03 -0.48255953624E+03  0.49711120569E+03  0.00000000000E+00 0. -1.
         22    1    3    3    0    0 -0.28750866021E+02 -0.91447976834E+01 -0.45820422017E+02  0.54861194805E+02  0.00000000000E+00 0. -1.
</event>
<event>
 7    1  0.6510186E-006  0.8733089E+02  0.7818608E-02  0.1487394E+00
          2   -1    0    0  502    0  0.00000000000E+00  0.00000000000E+00  0.30986916459E+04  0.30986916459E+04  0.00000000000E+00 0. -1.
          1   -1    0    0  501    0 -0.00000000000E+00 -0.00000000000E+00 -0.13235950379E+02  0.13235950379E+02  0.00000000000E+00 0. -1.
         25    2    1    2    0    0 -0.53861621213E+02  0.52524037782E+02  0.13527077987E+04  0.13605528579E+04  0.12500336675E+03 0.  0.
          2    1    1    2  501    0  0.51018021794E+02 -0.73479811812E+02  0.20726440883E+03  0.22574467095E+03  0.00000000000E+00 0. -1.
          1    1    1    2  502    0  0.28435994196E+01  0.20955774031E+02  0.15254834880E+04  0.15256300674E+04  0.00000000000E+00 0. -1.
         22    1    3    3    0    0 -0.54914851915E+02 -0.28496594827E+02  0.45329882983E+03  0.45750139453E+03  0.00000000000E+00 0. -1.
         22    1    3    3    0    0  0.10532307022E+01  0.81020632608E+02  0.89940896889E+03  0.90305146339E+03  0.00000000000E+00 0. -1.
</event>
<event>
 7    1  0.6510186E-006  0.6137881E+02  0.7818608E-02  0.1419384E+00
          2   -1    0    0  502    0  0.00000000000E+00  0.00000000000E+00  0.35554343349E+02  0.35554343349E+02  0.00000000000E+00 0. -1.
          1   -1    0    0  501    0 -0.00000000000E+00 -0.00000000000E+00 -0.97519300665E+03  0.97519300665E+03  0.00000000000E+00 0. -1.
         25    2    1    2    0    0 -0.90023780754E+02 -0.10520873565E+01 -0.52626382064E+03  0.54834747418E+03  0.12500382210E+03 0.  0.
          2    1    1    2  501    0  0.38198711035E+02  0.31569934789E+02 -0.39698164051E+03  0.40006277659E+03  0.00000000000E+00 0. -1.
          1    1    1    2  502    0  0.51825069720E+02 -0.30517847432E+02 -0.16393202146E+02  0.62337099226E+02  0.00000000000E+00 0. -1.
         22    1    3    3    0    0 -0.90606831187E+02  0.17327400968E+02 -0.52116311929E+03  0.52926442691E+03  0.00000000000E+00 0. -1.
         22    1    3    3    0    0  0.58305043255E+00 -0.18379488324E+02 -0.51007013447E+01  0.19083047269E+02  0.00000000000E+00 0. -1.
</event>
<event>
 7    1  0.6510186E-006  0.1836813E+03  0.7818608E-02  0.1371315E+00
          2   -1    0    0  502    0  0.00000000000E+00  0.00000000000E+00  0.43970317356E+03  0.43970317356E+03  0.00000000000E+00 0. -1.
          1   -1    0    0  501    0 -0.00000000000E+00 -0.00000000000E+00 -0.12648312239E+04  0.12648312239E+04  0.00000000000E+00 0. -1.
         25    2    1    2    0    0  0.94759201995E+02 -0.17485586512E+03 -0.57607624805E+03  0.62212703033E+03  0.12499727344E+03 0.  0.
          2    1    1    2  501    0 -0.76917239132E+02  0.15836529216E+03 -0.65371907597E+03  0.67701141625E+03  0.00000000000E+00 0. -1.
          1    1    1    2  502    0 -0.17841962862E+02  0.16490572965E+02  0.40466727366E+03  0.40539595090E+03  0.00000000000E+00 0. -1.
         22    1    3    3    0    0  0.11258781172E+03 -0.88976214745E+02 -0.30204409638E+03  0.33440008716E+03  0.00000000000E+00 0. -1.
         22    1    3    3    0    0 -0.17828609723E+02 -0.85879650379E+02 -0.27403215167E+03  0.28772694317E+03  0.00000000000E+00 0. -1.
</event>
<event>
 7    1  0.6510186E-006  0.1733699E+03  0.7818608E-02  0.1295734E+00
          2   -1    0    0  502    0  0.00000000000E+00  0.00000000000E+00  0.17133283813E+03  0.17133283813E+03  0.00000000000E+00 0. -1.
          1   -1    0    0  501    0 -0.00000000000E+00 -0.00000000000E+00 -0.18122770985E+04  0.18122770985E+04  0.00000000000E+00 0. -1.
         25    2    1    2    0    0 -0.13182604764E+03 -0.18637004814E+02 -0.46246364479E+03  0.49722223833E+03  0.12502754399E+03 0.  0.
          2    1    1    2  501    0 -0.38839997313E+02 -0.31316932641E+02 -0.12804353679E+04  0.12814070497E+04  0.00000000000E+00 0. -1.
          1    1    1    2  502    0  0.17066604495E+03  0.49953937454E+02  0.10195475234E+03  0.20498064858E+03  0.00000000000E+00 0. -1.
         22    1    3    3    0    0 -0.82516832751E+02 -0.15486024908E+02 -0.42995885486E+03  0.43807928680E+03  0.00000000000E+00 0.  1.
         22    1    3    3    0    0 -0.49309214889E+02 -0.31509799057E+01 -0.32504789936E+02  0.59142951533E+02  0.00000000000E+00 0.  1.
</event>
<event>
 7    1  0.6510186E-006  0.6093334E+02  0.7818608E-02  0.1402671E+00
          2   -1    0    0  502    0  0.00000000000E+00  0.00000000000E+00  0.27646952598E+04  0.27646952598E+04  0.00000000000E+00 0. -1.
          1   -1    0    0  501    0 -0.00000000000E+00 -0.00000000000E+00 -0.41569864382E+02  0.41569864382E+02  0.00000000000E+00 0. -1.
         25    2    1    2    0    0 -0.49059842275E+02  0.47354671323E+02  0.49668846593E+03  0.51669621562E+03  0.12500485602E+03 0.  0.
          2    1    1    2  501    0  0.61439641872E+02  0.81419857991E+01 -0.42789855766E+00  0.61978259279E+02  0.00000000000E+00 0. -1.
          1    1    1    2  502    0 -0.12379799597E+02 -0.55496657122E+02  0.22268648280E+04  0.22275906492E+04  0.00000000000E+00 0. -1.
         22    1    3    3    0    0 -0.53383703862E+02  0.25871662574E+02  0.80841128101E+02  0.10027188417E+03  0.00000000000E+00 0.  1.
         22    1    3    3    0    0  0.43238615876E+01  0.21483008749E+02  0.41584733783E+03  0.41642433145E+03  0.00000000000E+00 0.  1.
</event>
<event>
 7    1  0.8116545E-006  0.1423762E+03  0.7818608E-02  0.1343305E+00
          2   -1    0    0  502    0  0.00000000000E+00  0.00000000000E+00  0.12239742859E+04  0.12239742859E+04  0.00000000000E+00 0. -1.
          1   -1    0    0  501    0 -0.00000000000E+00 -0.00000000000E+00 -0.11153808713E+04  0.11153808713E+04  0.00000000000E+00 0. -1.
         25    2    1    2    0    0 -0.10774155280E+03 -0.31117785345E+02 -0.17678633209E+03  0.24382536557E+03  0.12498337055E+03 0.  0.
          2    1    1    2  501    0 -0.34792349433E+02  0.19122264897E+02 -0.90033935945E+03  0.90121425353E+03  0.00000000000E+00 0. -1.
          1    1    1    2  502    0  0.14253390224E+03  0.11995520448E+02  0.11857191062E+04  0.11943155381E+04  0.00000000000E+00 0. -1.
         22    1    3    3    0    0 -0.11893592809E+03 -0.51386029433E+02 -0.17854947751E+03  0.22060415892E+03  0.00000000000E+00 0. -1.
         22    1    3    3    0    0  0.11194375287E+02  0.20268244088E+02  0.17631454174E+01  0.23221206649E+02  0.00000000000E+00 0. -1.
</event>
<event>
 7    1  0.6510186E-006  0.9897991E+02  0.7818608E-02  0.1357908E+00
          2   -1    0    0  502    0  0.00000000000E+00  0.00000000000E+00  0.51643654686E+03  0.51643654686E+03  0.00000000000E+00 0. -1.
          1   -1    0    0  501    0 -0.00000000000E+00 -0.00000000000E+00 -0.12453081638E+04  0.12453081638E+04  0.00000000000E+00 0. -1.
         25    2    1    2    0    0 -0.99890389937E+02  0.62712751312E+02 -0.99684132840E+03  0.10115475530E+04  0.12499935514E+03 0.  0.
          2    1    1    2  501    0  0.82137708065E+02 -0.15517483017E+02 -0.23256382880E+03  0.24713018802E+03  0.00000000000E+00 0. -1.
          1    1    1    2  502    0  0.17752681872E+02 -0.47195268295E+02  0.50053354023E+03  0.50306696966E+03  0.00000000000E+00 0. -1.
         22    1    3    3    0    0  0.95000755535E+01 -0.17369837680E+01 -0.45220420219E+03  0.45230731701E+03  0.00000000000E+00 0.  1.
         22    1    3    3    0    0 -0.10939046549E+03  0.64449735080E+02 -0.54463712621E+03  0.55924023598E+03  0.00000000000E+00 0.  1.
</event>
<event>
 7    1  0.6510186E-006  0.1688902E+03  0.7818608E-02  0.1294973E+00
          2   -1    0    0  502    0  0.00000000000E+00  0.00000000000E+00  0.57155541705E+02  0.57155541705E+02  0.00000000000E+00 0. -1.
          1   -1    0    0  501    0 -0.00000000000E+00 -0.00000000000E+00 -0.45419147780E+04  0.45419147780E+04  0.00000000000E+00 0. -1.
         25    2    1    2    0    0 -0.14314799970E+03  0.32698983597E+01 -0.70093217979E+03  0.72624523769E+03  0.12499673013E+03 0.  0.
          2    1    1    2  501    0 -0.26414606356E+02  0.44302014496E+02 -0.36531852483E+04  0.36535493508E+04  0.00000000000E+00 0. -1.
          1    1    1    2  502    0  0.16956260605E+03 -0.47571912855E+02 -0.13064180814E+03  0.21927573121E+03  0.00000000000E+00 0. -1.
         22    1    3    3    0    0 -0.12137069111E+03 -0.19798593060E+02 -0.67247956157E+03  0.68363117957E+03  0.00000000000E+00 0.  1.
         22    1    3    3    0    0 -0.21777308591E+02  0.23068491420E+02 -0.28452618224E+02  0.42614058123E+02  0.00000000000E+00 0.  1.
</event>
<event>
 7    1  0.6510186E-006  0.4625770E+02  0.7818608E-02  0.1497155E+00
          2   -1    0    0  502    0  0.00000000000E+00  0.00000000000E+00  0.13234721448E+03  0.13234721448E+03  0.00000000000E+00 0. -1.
          1   -1    0    0  501    0 -0.00000000000E+00 -0.00000000000E+00 -0.10918766440E+04  0.10918766440E+04  0.00000000000E+00 0. -1.
         25    2    1    2    0    0  0.40018352796E+02  0.68070179240E+02 -0.52520479544E+03  0.54561891152E+03  0.12499960637E+03 0.  0.
          2    1    1    2  501    0 -0.29275980374E+02 -0.32341590630E+02 -0.55273614843E+03  0.55445496778E+03  0.00000000000E+00 0. -1.
          1    1    1    2  502    0 -0.10742372422E+02 -0.35728588609E+02  0.11841151433E+03  0.12414997920E+03  0.00000000000E+00 0. -1.
         22    1    3    3    0    0  0.77501246172E+00  0.91788575868E+02 -0.43322895860E+03  0.44284655793E+03  0.00000000000E+00 0.  1.
         22    1    3    3    0    0  0.39243340334E+02 -0.23718396629E+02 -0.91975836845E+02  0.10277235359E+03  0.00000000000E+00 0.  1.
</event>
<event>
 7    1  0.6510186E-006  0.8901431E+02  0.7818608E-02  0.1350207E+00
          2   -1    0    0  502    0  0.00000000000E+00  0.00000000000E+00  0.20463899796E+04  0.20463899796E+04  0.00000000000E+00 0. -1.
          1   -1    0    0  501    0 -0.00000000000E+00 -0.00000000000E+00 -0.21926411374E+03  0.21926411374E+03  0.00000000000E+00 0. -1.
         25    2    1    2    0    0  0.23357316992E+02 -0.11725069934E+03  0.18845289832E+03  0.25577391725E+03  0.12495003444E+03 0.  0.
          2    1    1    2  501    0  0.26508880375E+02  0.84150072621E+02 -0.17459722266E+03  0.19562245685E+03  0.00000000000E+00 0. -1.
          1    1    1    2  502    0 -0.49866197367E+02  0.33100626721E+02  0.18132701902E+04  0.18142577192E+04  0.00000000000E+00 0. -1.
         22    1    3    3    0    0 -0.23112953266E+02  0.14327263283E+02  0.60995970370E+02  0.66783137717E+02  0.00000000000E+00 0.  1.
         22    1    3    3    0    0  0.46470270258E+02 -0.13157796262E+03  0.12745692795E+03  0.18899077953E+03  0.00000000000E+00 0.  1.
</event>
<event>
 7    1  0.6510186E-006  0.1732342E+03  0.7818608E-02  0.1233113E+00
          2   -1    0    0  502    0  0.00000000000E+00  0.00000000000E+00  0.28540684187E+03  0.28540684187E+03  0.00000000000E+00 0. -1.
          1   -1    0    0  501    0 -0.00000000000E+00 -0.00000000000E+00 -0.24878929505E+04  0.24878929505E+04  0.00000000000E+00 0. -1.
         25    2    1    2    0    0 -0.13544174028E+03 -0.16653555920E+03 -0.35434945008E+03  0.43274382087E+03  0.12500049695E+03 0.  0.
          2    1    1    2  501    0  0.92021084322E+02  0.70292580420E+00 -0.20633577736E+04  0.20654088399E+04  0.00000000000E+00 0. -1.
          1    1    1    2  502    0  0.43420655956E+02  0.16583263340E+03  0.21522111505E+03  0.27514713160E+03  0.00000000000E+00 0. -1.
         22    1    3    3    0    0 -0.13958210363E+02 -0.87892025981E+02 -0.21122031204E+03  0.22920266160E+03  0.00000000000E+00 0.  1.
         22    1    3    3    0    0 -0.12148352992E+03 -0.78643533222E+02 -0.14312913805E+03  0.20354115927E+03  0.00000000000E+00 0.  1.
</event>
<event>
 7    1  0.6510186E-006  0.6629849E+02  0.7818608E-02  0.1374315E+00
          2   -1    0    0  502    0  0.00000000000E+00  0.00000000000E+00  0.11187060258E+04  0.11187060258E+04  0.00000000000E+00 0. -1.
          1   -1    0    0  501    0 -0.00000000000E+00 -0.00000000000E+00 -0.78443635238E+03  0.78443635238E+03  0.00000000000E+00 0. -1.
         25    2    1    2    0    0  0.88649525154E+02  0.96250255877E+02  0.21651129519E+03  0.28219691368E+03  0.12504042179E+03 0.  0.
          2    1    1    2  501    0 -0.49540509587E+02 -0.43499553551E+02 -0.74890328040E+03  0.75179957212E+03  0.00000000000E+00 0. -1.
          1    1    1    2  502    0 -0.39109015566E+02 -0.52750702325E+02  0.86666165866E+03  0.86914589240E+03  0.00000000000E+00 0. -1.
         22    1    3    3    0    0  0.62913680878E+02 -0.16697943968E+02  0.74522908225E+02  0.98947543803E+02  0.00000000000E+00 0.  1.
         22    1    3    3    0    0  0.25735844275E+02  0.11294819984E+03  0.14198838696E+03  0.18324936988E+03  0.00000000000E+00 0.  1.
</event>
<event>
 7    1  0.6510186E-006  0.7379682E+02  0.7818608E-02  0.1383351E+00
          2   -1    0    0  502    0  0.00000000000E+00  0.00000000000E+00  0.19558393364E+04  0.19558393364E+04  0.00000000000E+00 0. -1.
          1   -1    0    0  501    0 -0.00000000000E+00 -0.00000000000E+00 -0.46462775222E+03  0.46462775222E+03  0.00000000000E+00 0. -1.
         25    2    1    2    0    0 -0.93739408183E+02 -0.35617729375E+01  0.57115543557E+02  0.16639548765E+03  0.12500204047E+03 0.  0.
          2    1    1    2  501    0  0.35518641960E+02 -0.41726493827E+02 -0.40741520269E+03  0.41108371604E+03  0.00000000000E+00 0. -1.
          1    1    1    2  502    0  0.58220766223E+02  0.45288266764E+02  0.18415112433E+04  0.18429878849E+04  0.00000000000E+00 0. -1.
         22    1    3    3    0    0 -0.26946596677E+02  0.38343232949E+02  0.72238142638E+02  0.86108488764E+02  0.00000000000E+00 0. -1.
         22    1    3    3    0    0 -0.66792811507E+02 -0.41905005887E+02 -0.15122599081E+02  0.80286998887E+02  0.00000000000E+00 0. -1.
</event>
<event>
 7    1  0.6510186E-006  0.4554175E+02  0.7818608E-02  0.1525214E+00
          2   -1    0    0  502    0  0.00000000000E+00  0.00000000000E+00  0.38630002718E+03  0.38630002718E+03  0.00000000000E+00 0. -1.
          1   -1    0    0  501    0 -0.00000000000E+00 -0.00000000000E+00 -0.63236601835E+03  0.63236601835E+03  0.00000000000E+00 0. -1.
         25    2    1    2    0    0 -0.29767251615E+02  0.52047569805E+02  0.16273158904E+03  0.21377871477E+03  0.12499892009E+03 0.  0.
          2    1    1    2  501    0 -0.88365855542E+00 -0.45506077991E+02 -0.60474193745E+03  0.60645230225E+03  0.00000000000E+00 0. -1.
          1    1    1    2  502    0  0.30650910171E+02 -0.65414918141E+01  0.19594435723E+03  0.19843502851E+03  0.00000000000E+00 0. -1.
         22    1    3    3    0    0  0.26248018884E+02 -0.27601571434E+02  0.67918002762E+02  0.77869508411E+02  0.00000000000E+00 0.  1.
         22    1    3    3    0    0 -0.56015270499E+02  0.79649141239E+02  0.94813586282E+02  0.13590920636E+03  0.00000000000E+00 0.  1.
</event>
<event>
 7    1  0.6510186E-006  0.1720429E+03  0.7818608E-02  0.1296655E+00
          2   -1    0    0  502    0  0.00000000000E+00  0.00000000000E+00  0.29426688377E+04  0.29426688377E+04  0.00000000000E+00 0. -1.
          1   -1    0    0  501    0 -0.00000000000E+00 -0.00000000000E+00 -0.30824740886E+02  0.30824740886E+02  0.00000000000E+00 0. -1.
         25    2    1    2    0    0  0.51380035810E+02 -0.18906343557E+03  0.15264773555E+04  0.15440671740E+04  0.12500172110E+03 0.  0.
          2    1    1    2  501    0 -0.63466467054E+01  0.16768502338E+03  0.30666970274E+03  0.34957810797E+03  0.00000000000E+00 0. -1.
          1    1    1    2  502    0 -0.45033389105E+02  0.21378412185E+02  0.10786970386E+04  0.10798482966E+04  0.00000000000E+00 0. -1.
         22    1    3    3    0    0  0.19045007727E+02 -0.10730429150E+03  0.41342844812E+03  0.42755117239E+03  0.00000000000E+00 0. -1.
         22    1    3    3    0    0  0.32335028083E+02 -0.81759144065E+02  0.11130489074E+04  0.11165160016E+04  0.00000000000E+00 0. -1.
</event>
<event>
 7    1  0.6510186E-006  0.6248535E+02  0.7818608E-02  0.1427682E+00
          2   -1    0    0  502    0  0.00000000000E+00  0.00000000000E+00  0.21247250562E+02  0.21247250562E+02  0.00000000000E+00 0. -1.
          1   -1    0    0  501    0 -0.00000000000E+00 -0.00000000000E+00 -0.23916815802E+04  0.23916815802E+04  0.00000000000E+00 0. -1.
         25    2    1    2    0    0  0.26241511090E+02  0.89453742576E+02 -0.16122809743E+04  0.16198040732E+04  0.12499882557E+03 0.  0.
          2    1    1    2  501    0 -0.32984769112E+02 -0.44270316084E+02 -0.74291941870E+03  0.74496786411E+03  0.00000000000E+00 0. -1.
          1    1    1    2  502    0  0.67432580218E+01 -0.45183426492E+02 -0.15233936547E+02  0.48156893391E+02  0.00000000000E+00 0. -1.
         22    1    3    3    0    0  0.53753526090E+02  0.20349428037E+02 -0.30244435232E+03  0.30785731604E+03  0.00000000000E+00 0.  1.
         22    1    3    3    0    0 -0.27512015000E+02  0.69104314539E+02 -0.13098366220E+04  0.13119467572E+04  0.00000000000E+00 0.  1.
</event>
<event>
 7    1  0.6510186E-006  0.1709879E+03  0.7818608E-02  0.1274245E+00
          2   -1    0    0  502    0  0.00000000000E+00  0.00000000000E+00  0.68896230941E+03  0.68896230941E+03  0.00000000000E+00 0. -1.
          1   -1    0    0  501    0 -0.00000000000E+00 -0.00000000000E+00 -0.47130258695E+03  0.47130258695E+03  0.00000000000E+00 0. -1.
         25    2    1    2    0    0 -0.13810604351E+03 -0.13514840969E+03  0.12105607552E+03  0.26003424005E+03  0.12499944273E+03 0.  0.
          2    1    1    2  501    0  0.60403666558E+02 -0.13823922081E+02 -0.38510605708E+03  0.39005945567E+03  0.00000000000E+00 0. -1.
          1    1    1    2  502    0  0.77702376953E+02  0.14897233177E+03  0.48170970403E+03  0.51017120065E+03  0.00000000000E+00 0. -1.
         22    1    3    3    0    0 -0.14376007842E+03 -0.13454373125E+03  0.70469333630E+02  0.20912891418E+03  0.00000000000E+00 0. -1.
         22    1    3    3    0    0  0.56540349080E+01 -0.60467844220E+00  0.50586741887E+02  0.50905325866E+02  0.00000000000E+00 0. -1.
</event>
<event>
 7    1  0.6510186E-006  0.6547257E+02  0.7818608E-02  0.1506612E+00
          2   -1    0    0  502    0  0.00000000000E+00  0.00000000000E+00  0.32408208420E+04  0.32408208420E+04  0.00000000000E+00 0. -1.
          1   -1    0    0  501    0 -0.00000000000E+00 -0.00000000000E+00 -0.96525087758E+02  0.96525087758E+02  0.00000000000E+00 0. -1.
         25    2    1    2    0    0 -0.35758101325E+02  0.71338235736E+02  0.10228800446E+04  0.10335744249E+04  0.12499888178E+03 0.  0.
          2    1    1    2  501    0 -0.74755393896E+01 -0.23546927020E+02 -0.89026122355E+02  0.92390431988E+02  0.00000000000E+00 0. -1.
          1    1    1    2  502    0  0.43233640715E+02 -0.47791308716E+02  0.22104418320E+04  0.22113810729E+04  0.00000000000E+00 0. -1.
         22    1    3    3    0    0  0.42047213515E+02  0.11127193073E+02  0.19059695010E+03  0.19549675184E+03  0.00000000000E+00 0. -1.
         22    1    3    3    0    0 -0.77805314841E+02  0.60211042663E+02  0.83228309453E+03  0.83807767308E+03  0.00000000000E+00 0. -1.
</event>
<event>
 7    1  0.6510186E-006  0.4734478E+02  0.7818608E-02  0.1584677E+00
          2   -1    0    0  502    0  0.00000000000E+00  0.00000000000E+00  0.78886997256E+03  0.78886997256E+03  0.00000000000E+00 0. -1.
          1   -1    0    0  501    0 -0.00000000000E+00 -0.00000000000E+00 -0.18923528159E+03  0.18923528159E+03  0.00000000000E+00 0. -1.
         25    2    1    2    0    0 -0.44378893959E+02 -0.17026581234E+02  0.36681205324E+03  0.39042847904E+03  0.12499569653E+03 0.  0.
          2    1    1    2  501    0  0.32858859738E+02  0.34135078918E+02 -0.17399800491E+03  0.18033361858E+03  0.00000000000E+00 0. -1.
          1    1    1    2  502    0  0.11520034221E+02 -0.17108497684E+02  0.40682064265E+03  0.40734315652E+03  0.00000000000E+00 0. -1.
         22    1    3    3    0    0 -0.21835969365E+02  0.38416349358E+02  0.28849952823E+03  0.29186401499E+03  0.00000000000E+00 0. -1.
         22    1    3    3    0    0 -0.22542924594E+02 -0.55442930592E+02  0.78312525010E+02  0.98564464059E+02  0.00000000000E+00 0. -1.
</event>
<event>
 7    1  0.6510186E-006  0.1913081E+03  0.7818608E-02  0.1228277E+00
          2   -1    0    0  502    0  0.00000000000E+00  0.00000000000E+00  0.40920309049E+03  0.40920309049E+03  0.00000000000E+00 0. -1.
          1   -1    0    0  501    0 -0.00000000000E+00 -0.00000000000E+00 -0.15222665142E+04  0.15222665142E+04  0.00000000000E+00 0. -1.
         25    2    1    2    0    0 -0.14116949876E+03 -0.18149756625E+03 -0.75501099847E+02  0.27238870923E+03  0.12499999563E+03 0.  0.
          2    1    1    2  501    0  0.87563416815E+02  0.21908526115E+01 -0.13185596388E+04  0.13214657290E+04  0.00000000000E+00 0. -1.
          1    1    1    2  502    0  0.53606081941E+02  0.17930671363E+03  0.28099731499E+03  0.33761516643E+03  0.00000000000E+00 0. -1.
         22    1    3    3    0    0 -0.15944363405E+03 -0.18299139306E+03 -0.75048526222E+02  0.25404803416E+03  0.00000000000E+00 0.  1.
         22    1    3    3    0    0  0.18274135295E+02  0.14938268089E+01 -0.45257362544E+00  0.18340675075E+02  0.00000000000E+00 0.  1.
</event>
<event>
 7    1  0.6510186E-006  0.4308610E+02  0.7818608E-02  0.1493894E+00
          2   -1    0    0  502    0  0.00000000000E+00  0.00000000000E+00  0.80971449382E+03  0.80971449382E+03  0.00000000000E+00 0. -1.
          1   -1    0    0  501    0 -0.00000000000E+00 -0.00000000000E+00 -0.54944208817E+03  0.54944208817E+03  0.00000000000E+00 0. -1.
         25    2    1    2    0    0 -0.64390518753E+02 -0.30138145767E+02 -0.28079009440E+03  0.31547215645E+03  0.12500063059E+03 0.  0.
          2    1    1    2  501    0  0.23580363578E+02  0.33732671933E+02 -0.24909163072E+03  0.25246894303E+03  0.00000000000E+00 0. -1.
          1    1    1    2  502    0  0.40810155175E+02 -0.35945261661E+01  0.79015413077E+03  0.79121548250E+03  0.00000000000E+00 0. -1.
         22    1    3    3    0    0 -0.70373304923E+02 -0.14643716089E+02 -0.28838532212E+03  0.29720857067E+03  0.00000000000E+00 0. -1.
         22    1    3    3    0    0  0.59827861705E+01 -0.15494429678E+02  0.75952277215E+01  0.18263585780E+02  0.00000000000E+00 0. -1.
</event>
<event>
 7    1  0.6510186E-006  0.2247681E+03  0.7818608E-02  0.1259339E+00
          2   -1    0    0  502    0  0.00000000000E+00  0.00000000000E+00  0.10910139156E+04  0.10910139156E+04  0.00000000000E+00 0. -1.
          1   -1    0    0  501    0 -0.00000000000E+00 -0.00000000000E+00 -0.41084639349E+03  0.41084639349E+03  0.00000000000E+00 0. -1.
         25    2    1    2    0    0 -0.36872591592E+02 -0.18326099511E+03 -0.23252623695E+03  0.32348879067E+03  0.12502946244E+03 0.  0.
          2    1    1    2  501    0  0.33092161953E+02 -0.43288239425E+02 -0.11433019280E+03  0.12665052642E+03  0.00000000000E+00 0. -1.
          1    1    1    2  502    0  0.37804296385E+01  0.22654923454E+03  0.10270239519E+04  0.10517209920E+04  0.00000000000E+00 0. -1.
         22    1    3    3    0    0 -0.53976429521E+02 -0.13942379026E+03 -0.23251405868E+03  0.27643305830E+03  0.00000000000E+00 0.  1.
         22    1    3    3    0    0  0.17103837930E+02 -0.43837204846E+02 -0.12178268503E-01  0.47055732371E+02  0.00000000000E+00 0.  1.
</event>
<event>
 7    1  0.6510186E-006  0.5160180E+02  0.7818608E-02  0.1447215E+00
          2   -1    0    0  502    0  0.00000000000E+00  0.00000000000E+00  0.45899520289E+03  0.45899520289E+03  0.00000000000E+00 0. -1.
          1   -1    0    0  501    0 -0.00000000000E+00 -0.00000000000E+00 -0.12281356039E+03  0.12281356039E+03  0.00000000000E+00 0. -1.
         25    2    1    2    0    0  0.71616065722E+02 -0.65043436451E+02  0.12912465945E+03  0.20410118850E+03  0.12499843189E+03 0.  0.
          2    1    1    2  501    0 -0.33820606989E+02  0.33751179584E+02 -0.76358662237E+02  0.90075639765E+02  0.00000000000E+00 0. -1.
          1    1    1    2  502    0 -0.37795458734E+02  0.31292256868E+02  0.28341564529E+03  0.28763193501E+03  0.00000000000E+00 0. -1.
         22    1    3    3    0    0  0.58158139764E+02  0.12939287043E+02  0.90047529111E+01  0.60256783394E+02  0.00000000000E+00 0.  1.
         22    1    3    3    0    0  0.13457925958E+02 -0.77982723495E+02  0.12011990653E+03  0.14384440511E+03  0.00000000000E+00 0.  1.
</event>
<event>
 7    1  0.6510186E-006  0.8028421E+02  0.7818608E-02  0.1454868E+00
          2   -1    0    0  502    0  0.00000000000E+00  0.00000000000E+00  0.34354715952E+02  0.34354715952E+02  0.00000000000E+00 0. -1.
          1   -1    0    0  501    0 -0.00000000000E+00 -0.00000000000E+00 -0.17800705229E+04  0.17800705229E+04  0.00000000000E+00 0. -1.
         25    2    1    2    0    0  0.34328312886E+01 -0.82169865731E+02 -0.18313256195E+03  0.23648610406E+03  0.12499788400E+03 0.  0.
          2    1    1    2  501    0 -0.31306087610E+02  0.74059998207E+02 -0.15374225863E+04  0.15395236807E+04  0.00000000000E+00 0. -1.
          1    1    1    2  502    0  0.27873256321E+02  0.81098675233E+01 -0.25160658688E+02  0.38415454114E+02  0.00000000000E+00 0. -1.
         22    1    3    3    0    0 -0.54849188441E+01 -0.11138461156E+03 -0.16982472154E+03  0.20316754681E+03  0.00000000000E+00 0. -1.
         22    1    3    3    0    0  0.89177501327E+01  0.29214745832E+02 -0.13307840404E+02  0.33318557257E+02  0.00000000000E+00 0. -1.
</event>
<event>
 7    1  0.6510186E-006  0.9470728E+02  0.7818608E-02  0.1331123E+00
          2   -1    0    0  502    0  0.00000000000E+00  0.00000000000E+00  0.21595703725E+03  0.21595703725E+03  0.00000000000E+00 0. -1.
          1   -1    0    0  501    0 -0.00000000000E+00 -0.00000000000E+00 -0.76595228875E+03  0.76595228875E+03  0.00000000000E+00 0. -1.
         25    2    1    2    0    0 -0.10607181454E+03 -0.92469044275E+02 -0.14184956558E+03  0.23568543090E+03  0.12499827636E+03 0.  0.
          2    1    1    2  501    0  0.40474613527E+02  0.82457892257E+02 -0.56682980694E+03  0.57422428403E+03  0.00000000000E+00 0. -1.
          1    1    1    2  502    0  0.65597201014E+02  0.10011152018E+02  0.15868412101E+03  0.17199961107E+03  0.00000000000E+00 0. -1.
         22    1    3    3    0    0 -0.60314241795E+02 -0.35233451131E+02 -0.14645804682E+03  0.16226263686E+03  0.00000000000E+00 0.  1.
         22    1    3    3    0    0 -0.45757572746E+02 -0.57235593144E+02  0.46084812338E+01  0.73422794046E+02  0.00000000000E+00 0.  1.
</event>
<event>
 7    1  0.6510186E-006  0.5682066E+02  0.7818608E-02  0.1429822E+00
          2   -1    0    0  502    0  0.00000000000E+00  0.00000000000E+00  0.20484942973E+03  0.20484942973E+03  0.00000000000E+00 0. -1.
          1   -1    0    0  501    0 -0.00000000000E+00 -0.00000000000E+00 -0.52923473020E+03  0.52923473020E+03  0.00000000000E+00 0. -1.
         25    2    1    2    0    0  0.41851217409E+02 -0.14410913321E+02 -0.18064706240E+03  0.22409213512E+03  0.12499890019E+03 0.  0.
          2    1    1    2  501    0 -0.49977586720E+02 -0.34344910293E+02 -0.32063517046E+03  0.32631923721E+03  0.00000000000E+00 0. -1.
          1    1    1    2  502    0  0.81263693117E+01  0.48755823614E+02  0.17689693239E+03  0.18367278759E+03  0.00000000000E+00 0. -1.
         22    1    3    3    0    0 -0.32535038371E+02 -0.15877207433E+02 -0.12781063691E+03  0.13283889997E+03  0.00000000000E+00 0.  1.
         22    1    3    3    0    0  0.74386255780E+02  0.14662941126E+01 -0.52836425496E+02  0.91253235157E+02  0.00000000000E+00 0.  1.
</event>
<event>
 7    1  0.6510186E-006  0.9858719E+02  0.7818608E-02  0.1404051E+00
          2   -1    0    0  502    0  0.00000000000E+00  0.00000000000E+00  0.16968952883E+03  0.16968952883E+03  0.00000000000E+00 0. -1.
          1   -1    0    0  501    0 -0.00000000000E+00 -0.00000000000E+00 -0.31976442986E+03  0.31976442986E+03  0.00000000000E+00 0. -1.
         25    2    1    2    0    0 -0.68348815993E+02  0.37988294001E+02 -0.10342603852E+01  0.14744327500E+03  0.12499511398E+03 0.  0.
          2    1    1    2  501    0 -0.34234749698E+02 -0.60414862496E+01 -0.21376847115E+03  0.21657672290E+03  0.00000000000E+00 0. -1.
          1    1    1    2  502    0  0.10258356569E+03 -0.31946807752E+02  0.64727830507E+02  0.12543396078E+03  0.00000000000E+00 0. -1.
         22    1    3    3    0    0 -0.59632896354E+02  0.66726451785E+02 -0.40187251047E+02  0.98099525188E+02  0.00000000000E+00 0. -1.
         22    1    3    3    0    0 -0.87159196386E+01 -0.28738157784E+02  0.39152990662E+02  0.49343749814E+02  0.00000000000E+00 0. -1.
</event>
<event>
 7    1  0.6510186E-006  0.5878318E+02  0.7818608E-02  0.1472268E+00
          2   -1    0    0  502    0  0.00000000000E+00  0.00000000000E+00  0.14921400342E+04  0.14921400342E+04  0.00000000000E+00 0. -1.
          1   -1    0    0  501    0 -0.00000000000E+00 -0.00000000000E+00 -0.28594631000E+03  0.28594631000E+03  0.00000000000E+00 0. -1.
         25    2    1    2    0    0  0.73282373272E+02 -0.26656344218E+02 -0.93497972725E+02  0.17448540815E+03  0.12498967892E+03 0.  0.
          2    1    1    2  501    0 -0.40868572196E+02  0.39758656322E+02 -0.14638726447E+03  0.15709940211E+03  0.00000000000E+00 0. -1.
          1    1    1    2  502    0 -0.32413801075E+02 -0.13102312104E+02  0.14460789614E+04  0.14465015339E+04  0.00000000000E+00 0. -1.
         22    1    3    3    0    0  0.57509928239E+02 -0.52812812471E+02 -0.11365384021E+03  0.13789046523E+03  0.00000000000E+00 0. -1.
         22    1    3    3    0    0  0.15772445033E+02  0.26156468253E+02  0.20155867481E+02  0.36594942925E+02  0.00000000000E+00 0. -1.
</event>
<event>
 7    1  0.6510186E-006  0.4581663E+02  0.7818608E-02  0.1594865E+00
          2   -1    0    0  502    0  0.00000000000E+00  0.00000000000E+00  0.30597427097E+03  0.30597427097E+03  0.00000000000E+00 0. -1.
          1   -1    0    0  501    0 -0.00000000000E+00 -0.00000000000E+00 -0.41223961670E+03  0.41223961670E+03  0.00000000000E+00 0. -1.
         25    2    1    2    0    0  0.47794024121E+01 -0.35158132378E+02 -0.12773391524E+03  0.18220573564E+03  0.12499616009E+03 0.  0.
          2    1    1    2  501    0  0.19669062135E+02 -0.37852747470E+01 -0.25497802584E+03  0.25576355091E+03  0.00000000000E+00 0. -1.
          1    1    1    2  502    0 -0.24448464547E+02  0.38943407125E+02  0.27644659535E+03  0.28024460113E+03  0.00000000000E+00 0. -1.
         22    1    3    3    0    0 -0.29472977386E+02 -0.10157787966E+02  0.14066062314E+02  0.34200747965E+02  0.00000000000E+00 0.  1.
         22    1    3    3    0    0  0.34252379798E+02 -0.25000344412E+02 -0.14179997755E+03  0.14800498767E+03  0.00000000000E+00 0.  1.
</event>
<event>
 7    1  0.6510186E-006  0.1944107E+03  0.7818608E-02  0.1189080E+00
          2   -1    0    0  502    0  0.00000000000E+00  0.00000000000E+00  0.22416003648E+04  0.22416003648E+04  0.00000000000E+00 0. -1.
          1   -1    0    0  501    0 -0.00000000000E+00 -0.00000000000E+00 -0.43176372638E+03  0.43176372638E+03  0.00000000000E+00 0. -1.
         25    2    1    2    0    0  0.17168036924E+02  0.24676650654E+03  0.56762117257E+03  0.63167025557E+03  0.12500026389E+03 0.  0.
          2    1    1    2  501    0  0.90166556574E+02 -0.17145132462E+03 -0.37345743273E+03  0.42070894773E+03  0.00000000000E+00 0. -1.
          1    1    1    2  502    0 -0.10733459350E+03 -0.75315181923E+02  0.16156728985E+04  0.16209848879E+04  0.00000000000E+00 0. -1.
         22    1    3    3    0    0  0.38350842762E+02  0.16886654612E+03  0.25113293314E+03  0.30504827101E+03  0.00000000000E+00 0. -1.
         22    1    3    3    0    0 -0.21182805838E+02  0.77899960424E+02  0.31648823943E+03  0.32662198456E+03  0.00000000000E+00 0. -1.
</event>
<event>
 7    1  0.6510186E-006  0.1447829E+03  0.7818608E-02  0.1424496E+00
          2   -1    0    0  502    0  0.00000000000E+00  0.00000000000E+00  0.23294203402E+03  0.23294203402E+03  0.00000000000E+00 0. -1.
          1   -1    0    0  501    0 -0.00000000000E+00 -0.00000000000E+00 -0.71243440729E+03  0.71243440729E+03  0.00000000000E+00 0. -1.
         25    2    1    2    0    0 -0.98844453975E+01  0.12998329596E+03 -0.48185946891E+03  0.51459143313E+03  0.12498974270E+03 0.  0.
          2    1    1    2  501    0 -0.15143749047E+02  0.13369496319E+02 -0.18916575499E+03  0.19024131893E+03  0.00000000000E+00 0. -1.
          1    1    1    2  502    0  0.25028194444E+02 -0.14335279228E+03  0.19153285063E+03  0.24054368926E+03  0.00000000000E+00 0. -1.
         22    1    3    3    0    0  0.28749427775E+02  0.13419933122E+03 -0.32109407058E+03  0.34919534971E+03  0.00000000000E+00 0. -1.
         22    1    3    3    0    0 -0.38633873173E+02 -0.42160352605E+01 -0.16076539833E+03  0.16539608341E+03  0.00000000000E+00 0. -1.
</event>
<event>
 7    1  0.6510186E-006  0.6914364E+02  0.7818608E-02  0.1443412E+00
          2   -1    0    0  502    0  0.00000000000E+00  0.00000000000E+00  0.26248031640E+04  0.26248031640E+04  0.00000000000E+00 0. -1.
          1   -1    0    0  501    0 -0.00000000000E+00 -0.00000000000E+00 -0.39151771481E+02  0.39151771481E+02  0.00000000000E+00 0. -1.
         25    2    1    2    0    0 -0.64148254340E+02  0.49806443838E+01  0.18125907578E+04  0.18180333361E+04  0.12498060130E+03 0.  0.
          2    1    1    2  501    0  0.87774085410E+00  0.36668048832E+02 -0.24926810863E+02  0.44347064547E+02  0.00000000000E+00 0. -1.
          1    1    1    2  502    0  0.63270513486E+02 -0.41648693216E+02  0.79798744563E+03  0.80157453484E+03  0.00000000000E+00 0. -1.
         22    1    3    3    0    0 -0.99160832190E+02 -0.12009597021E+02  0.14239098344E+04  0.14274089525E+04  0.00000000000E+00 0.  1.
         22    1    3    3    0    0  0.35012577850E+02  0.16990241405E+02  0.38868092337E+03  0.39062438365E+03  0.00000000000E+00 0.  1.
</event>
<event>
 7    1  0.6510186E-006  0.3529257E+02  0.7818608E-02  0.1607515E+00
          2   -1    0    0  502    0  0.00000000000E+00  0.00000000000E+00  0.11610905091E+04  0.11610905091E+04  0.00000000000E+00 0. -1.
          1   -1    0    0  501    0 -0.00000000000E+00 -0.00000000000E+00 -0.11928799886E+03  0.11928799886E+03  0.00000000000E+00 0. -1.
         25    2    1    2    0    0 -0.62992167529E+00 -0.42665189503E+02  0.32163362832E+03  0.34769792353E+03  0.12499975986E+03 0.  0.
          2    1    1    2  501    0 -0.19728550759E+02  0.13841783406E+02 -0.10450711717E+03  0.10724993343E+03  0.00000000000E+00 0. -1.
          1    1    1    2  502    0  0.20358472434E+02  0.28823406097E+02  0.82467599912E+03  0.82543065103E+03  0.00000000000E+00 0. -1.
         22    1    3    3    0    0  0.20423520656E+01 -0.81905694915E+02  0.14320735008E+03  0.16498805769E+03  0.00000000000E+00 0.  1.
         22    1    3    3    0    0 -0.26722737409E+01  0.39240505412E+02  0.17842627824E+03  0.18270986584E+03  0.00000000000E+00 0.  1.
</event>
<event>
 7    1  0.6942338E-006  0.9966962E+02  0.7818608E-02  0.1384116E+00
          2   -1    0    0  502    0  0.00000000000E+00  0.00000000000E+00  0.55224709888E+03  0.55224709888E+03  0.00000000000E+00 0. -1.
          1   -1    0    0  501    0 -0.00000000000E+00 -0.00000000000E+00 -0.12992233822E+04  0.12992233822E+04  0.00000000000E+00 0. -1.
         25    2    1    2    0    0 -0.90007248413E+02  0.96744697455E+02 -0.66597816801E+03  0.69037159608E+03  0.12500071667E+03 0.  0.
          2    1    1    2  501    0  0.87618166038E+01 -0.39357955390E+02 -0.61580341281E+03  0.61712207975E+03  0.00000000000E+00 0. -1.
          1    1    1    2  502    0  0.81245431809E+02 -0.57386742065E+02  0.53480529752E+03  0.54397680522E+03  0.00000000000E+00 0. -1.
         22    1    3    3    0    0 -0.87099792988E+02  0.12390867778E+03 -0.50983805486E+03  0.53185954589E+03  0.00000000000E+00 0.  1.
         22    1    3    3    0    0 -0.29074554241E+01 -0.27163980328E+02 -0.15614011314E+03  0.15851205019E+03  0.00000000000E+00 0.  1.
</event>
<event>
 7    1  0.6510186E-006  0.7572646E+02  0.7818608E-02  0.1368148E+00
          2   -1    0    0  502    0  0.00000000000E+00  0.00000000000E+00  0.25510727988E+03  0.25510727988E+03  0.00000000000E+00 0. -1.
          1   -1    0    0  501    0 -0.00000000000E+00 -0.00000000000E+00 -0.48009773097E+03  0.48009773097E+03  0.00000000000E+00 0. -1.
         25    2    1    2    0    0  0.16258296729E+02  0.17488088408E+02  0.85209789597E+00  0.12726128789E+03  0.12499817549E+03 0.  0.
          2    1    1    2  501    0  0.23947835153E+02  0.55555428928E+02 -0.40544377717E+03  0.40993238582E+03  0.00000000000E+00 0. -1.
          1    1    1    2  502    0 -0.40206131882E+02 -0.73043517336E+02  0.17960122819E+03  0.19801133713E+03  0.00000000000E+00 0. -1.
         22    1    3    3    0    0 -0.27197075395E+02 -0.44141276757E+02  0.69957532035E+00  0.51851929852E+02  0.00000000000E+00 0. -1.
         22    1    3    3    0    0  0.43455372124E+02  0.61629365165E+02  0.15252257563E+00  0.75409358042E+02  0.00000000000E+00 0. -1.
</event>
<event>
 7    1  0.6510186E-006  0.4876552E+02  0.7818608E-02  0.1473659E+00
          2   -1    0    0  502    0  0.00000000000E+00  0.00000000000E+00  0.25798126123E+03  0.25798126123E+03  0.00000000000E+00 0. -1.
          1   -1    0    0  501    0 -0.00000000000E+00 -0.00000000000E+00 -0.33722500314E+03  0.33722500314E+03  0.00000000000E+00 0. -1.
         25    2    1    2    0    0  0.50808467900E+02 -0.21097666892E+02 -0.36332170486E+02  0.14131951558E+03  0.12499826764E+03 0.  0.
          2    1    1    2  501    0 -0.44912931232E+02 -0.20211445851E+02 -0.24379252704E+03  0.24871765151E+03  0.00000000000E+00 0. -1.
          1    1    1    2  502    0 -0.58955366685E+01  0.41309112743E+02  0.20088095561E+03  0.20516909727E+03  0.00000000000E+00 0. -1.
         22    1    3    3    0    0  0.63971010398E+02  0.17282477654E+02  0.22388511733E+02  0.69944404085E+02  0.00000000000E+00 0. -1.
         22    1    3    3    0    0 -0.13162542497E+02 -0.38380144546E+02 -0.58720682218E+02  0.71375111492E+02  0.00000000000E+00 0. -1.
</event>
<event>
 7    1  0.6510186E-006  0.9316890E+02  0.7818608E-02  0.1324868E+00
          2   -1    0    0  502    0  0.00000000000E+00  0.00000000000E+00  0.20375314134E+04  0.20375314134E+04  0.00000000000E+00 0. -1.
          1   -1    0    0  501    0 -0.00000000000E+00 -0.00000000000E+00 -0.22541234372E+03  0.22541234372E+03  0.00000000000E+00 0. -1.
         25    2    1    2    0    0 -0.85233338279E+02 -0.69129349292E+02  0.18040613947E+03  0.24538815152E+03  0.12500152343E+03 0.  0.
          2    1    1    2  501    0  0.93572346806E+02 -0.16611924777E+01 -0.18082956675E+03  0.20361207199E+03  0.00000000000E+00 0. -1.
          1    1    1    2  502    0 -0.83390085267E+01  0.70790541770E+02  0.18125424969E+04  0.18139435336E+04  0.00000000000E+00 0. -1.
         22    1    3    3    0    0  0.18434685468E+02  0.12024697610E+01 -0.71777102636E+01  0.19819260492E+02  0.00000000000E+00 0.  1.
         22    1    3    3    0    0 -0.10366802375E+03 -0.70331819053E+02  0.18758384974E+03  0.22556889103E+03  0.00000000000E+00 0.  1.
</event>
<event>
 7    1  0.6510186E-006  0.1610947E+03  0.7818608E-02  0.1215697E+00
          2   -1    0    0  502    0  0.00000000000E+00  0.00000000000E+00  0.15342339780E+03  0.15342339780E+03  0.00000000000E+00 0. -1.
          1   -1    0    0  501    0 -0.00000000000E+00 -0.00000000000E+00 -0.11453519634E+04  0.11453519634E+04  0.00000000000E+00 0. -1.
         25    2    1    2    0    0  0.11832603400E+03 -0.93194999212E+02 -0.22584665077E+03  0.29886469200E+03  0.12500814477E+03 0.  0.
          2    1    1    2  501    0  0.53204602340E+02  0.10605525285E+03 -0.81300158938E+03  0.82161428341E+03  0.00000000000E+00 0. -1.
          1    1    1    2  502    0 -0.17153063634E+03 -0.12860253642E+02  0.46919674546E+02  0.17829638580E+03  0.00000000000E+00 0. -1.
         22    1    3    3    0    0  0.46178941206E+02 -0.79379033407E+01  0.61022542219E-01  0.46856255123E+02  0.00000000000E+00 0. -1.
         22    1    3    3    0    0  0.72147092798E+02 -0.85257095872E+02 -0.22590767331E+03  0.25200843688E+03  0.00000000000E+00 0. -1.
</event>
<event>
 7    1  0.6510186E-006  0.1107927E+03  0.7818608E-02  0.1386642E+00
          2   -1    0    0  502    0  0.00000000000E+00  0.00000000000E+00  0.79547504965E+03  0.79547504965E+03  0.00000000000E+00 0. -1.
          1   -1    0    0  501    0 -0.00000000000E+00 -0.00000000000E+00 -0.16608425967E+04  0.16608425967E+04  0.00000000000E+00 0. -1.
         25    2    1    2    0    0 -0.79405087335E+02 -0.86479547734E+01  0.11754594180E+02  0.14880729018E+03  0.12500193642E+03 0.  0.
          2    1    1    2  501    0  0.10726136834E+03  0.30718110885E+02 -0.15899185036E+04  0.15938285515E+04  0.00000000000E+00 0. -1.
          1    1    1    2  502    0 -0.27856281004E+02 -0.22070156111E+02  0.71279636235E+03  0.71368180470E+03  0.00000000000E+00 0. -1.
         22    1    3    3    0    0  0.17059233601E+02  0.17927551734E+02 -0.31281392388E+02  0.39886590127E+02  0.00000000000E+00 0.  1.
         22    1    3    3    0    0 -0.96464320936E+02 -0.26575506507E+02  0.43035986568E+02  0.10892070005E+03  0.00000000000E+00 0.  1.
</event>
<event>
 7    1  0.6510186E-006  0.5215342E+02  0.7818608E-02  0.1552230E+00
          2   -1    0    0  502    0  0.00000000000E+00  0.00000000000E+00  0.11136161878E+04  0.11136161878E+04  0.00000000000E+00 0. -1.
          1   -1    0    0  501    0 -0.00000000000E+00 -0.00000000000E+00 -0.23519625201E+02  0.23519625201E+02  0.00000000000E+00 0. -1.
         25    2    1    2    0    0  0.73767670114E+02 -0.53328816560E+01  0.76916579974E+03  0.78275937974E+03  0.12500444116E+03 0.  0.
          2    1    1    2  501    0 -0.50838421369E+02  0.44180712183E+01  0.23706727391E+02  0.56267871509E+02  0.00000000000E+00 0. -1.
          1    1    1    2  502    0 -0.22929248745E+02  0.91481043763E+00  0.29722403543E+03  0.29810856171E+03  0.00000000000E+00 0. -1.
         22    1    3    3    0    0  0.10779414929E+03 -0.27119712479E+01  0.64668190704E+03  0.65560996202E+03  0.00000000000E+00 0. -1.
         22    1    3    3    0    0 -0.34026479176E+02 -0.26209104081E+01  0.12248389270E+03  0.12714941772E+03  0.00000000000E+00 0. -1.
</event>
<event>
 7    1  0.6510186E-006  0.2351429E+03  0.7818608E-02  0.1232848E+00
          2   -1    0    0  502    0  0.00000000000E+00  0.00000000000E+00  0.72494429623E+03  0.72494429623E+03  0.00000000000E+00 0. -1.
          1   -1    0    0  501    0 -0.00000000000E+00 -0.00000000000E+00 -0.68675241604E+03  0.68675241604E+03  0.00000000000E+00 0. -1.
         25    2    1    2    0    0  0.11654384193E+03 -0.14678691319E+03 -0.89595609527E+02  0.24244598153E+03  0.12499526286E+03 0.  0.
          2    1    1    2  501    0 -0.14942267186E+03  0.20628708035E+03 -0.48759835308E+03  0.55012148505E+03  0.00000000000E+00 0. -1.
          1    1    1    2  502    0  0.32878829928E+02 -0.59500167158E+02  0.61538584280E+03  0.61912924569E+03  0.00000000000E+00 0. -1.
         22    1    3    3    0    0  0.13763708404E+03 -0.95246788556E+02 -0.81514223859E+02  0.18617326963E+03  0.00000000000E+00 0. -1.
         22    1    3    3    0    0 -0.21093242113E+02 -0.51540124637E+02 -0.80813856676E+01  0.56272711901E+02  0.00000000000E+00 0. -1.
</event>
<event>
 7    1  0.6510186E-006  0.7023877E+02  0.7818608E-02  0.1405404E+00
          2   -1    0    0  502    0  0.00000000000E+00  0.00000000000E+00  0.35680241322E+03  0.35680241322E+03  0.00000000000E+00 0. -1.
          1   -1    0    0  501    0 -0.00000000000E+00 -0.00000000000E+00 -0.96888919463E+03  0.96888919463E+03  0.00000000000E+00 0. -1.
         25    2    1    2    0    0  0.28496767732E+02  0.63250216385E+02 -0.23472903499E+03  0.27483963652E+03  0.12500580104E+03 0.  0.
          2    1    1    2  501    0 -0.48071053354E+02  0.44655765487E+01 -0.70958697084E+03  0.71122741562E+03  0.00000000000E+00 0. -1.
          1    1    1    2  502    0  0.19574285622E+02 -0.67715792934E+02  0.33222922443E+03  0.33962455570E+03  0.00000000000E+00 0. -1.
         22    1    3    3    0    0  0.48527396527E+02  0.47872243432E+02 -0.41157599753E+02  0.79627934309E+02  0.00000000000E+00 0.  1.
         22    1    3    3    0    0 -0.20030628795E+02  0.15377972953E+02 -0.19357143524E+03  0.19521170221E+03  0.00000000000E+00 0.  1.
</event>
<event>
 7    1  0.6510186E-006  0.6376804E+02  0.7818608E-02  0.1513948E+00
          2   -1    0    0  502    0  0.00000000000E+00  0.00000000000E+00  0.42885371178E+03  0.42885371178E+03  0.00000000000E+00 0. -1.
          1   -1    0    0  501    0 -0.00000000000E+00 -0.00000000000E+00 -0.49215053502E+03  0.49215053502E+03  0.00000000000E+00 0. -1.
         25    2    1    2    0    0  0.16163461628E+02 -0.57771323129E+02  0.33354853017E+02  0.14259977543E+03  0.12499346569E+03 0.  0.
          2    1    1    2  501    0  0.72650577339E+01  0.63569871182E+02 -0.43475636855E+03  0.43943942652E+03  0.00000000000E+00 0. -1.
          1    1    1    2  502    0 -0.23428519362E+02 -0.57985480531E+01  0.33810469229E+03  0.33896504485E+03  0.00000000000E+00 0. -1.
         22    1    3    3    0    0  0.14600380763E+02  0.92141867983E+01 -0.39808438888E+02  0.43391060871E+02  0.00000000000E+00 0. -1.
         22    1    3    3    0    0  0.15630808651E+01 -0.66985509927E+02  0.73163291905E+02  0.99208714559E+02  0.00000000000E+00 0. -1.
</event>
<event>
 7    1  0.6510186E-006  0.1078480E+03  0.7818608E-02  0.1446870E+00
          2   -1    0    0  502    0  0.00000000000E+00  0.00000000000E+00  0.65595483935E+03  0.65595483935E+03  0.00000000000E+00 0. -1.
          1   -1    0    0  501    0 -0.00000000000E+00 -0.00000000000E+00 -0.49067247193E+03  0.49067247193E+03  0.00000000000E+00 0. -1.
         25    2    1    2    0    0 -0.30238121058E+02 -0.12579912331E+03  0.27643564686E+03  0.32982040871E+03  0.12500028700E+03 0.  0.
          2    1    1    2  501    0  0.19288939792E+02  0.10566380477E+03 -0.45737983978E+03  0.46982254168E+03  0.00000000000E+00 0. -1.
          1    1    1    2  502    0  0.10949181266E+02  0.20135318537E+02  0.34622656034E+03  0.34698436090E+03  0.00000000000E+00 0. -1.
         22    1    3    3    0    0  0.22796178315E+02 -0.12200235938E+03  0.16616835556E+03  0.20740338433E+03  0.00000000000E+00 0. -1.
         22    1    3    3    0    0 -0.53034299374E+02 -0.37967639275E+01  0.11026729130E+03  0.12241702438E+03  0.00000000000E+00 0. -1.
</event>
<event>
 7    1  0.6510186E-006  0.4343367E+02  0.7818608E-02  0.1509986E+00
          2   -1    0    0  502    0  0.00000000000E+00  0.00000000000E+00  0.14711218478E+03  0.14711218478E+03  0.00000000000E+00 0. -1.
          1   -1    0    0  501    0 -0.00000000000E+00 -0.00000000000E+00 -0.28095015717E+03  0.28095015717E+03  0.00000000000E+00 0. -1.
         25    2    1    2    0    0 -0.54986843033E+02 -0.53849471520E+02 -0.26488368475E-01  0.14679655819E+03  0.12500364117E+03 0.  0.
          2    1    1    2  501    0  0.28054814004E+02  0.23187505386E+02 -0.20012110586E+03  0.20340400685E+03  0.00000000000E+00 0. -1.
          1    1    1    2  502    0  0.26932029029E+02  0.30661966134E+02  0.66309621840E+02  0.77861776908E+02  0.00000000000E+00 0. -1.
         22    1    3    3    0    0 -0.72624336041E+02 -0.76780092356E+02 -0.24973695338E+02  0.10859632695E+03  0.00000000000E+00 0.  1.
         22    1    3    3    0    0  0.17637493008E+02  0.22930620836E+02  0.24947206970E+02  0.38200231244E+02  0.00000000000E+00 0.  1.
</event>
<event>
 7    1  0.6510186E-006  0.2842247E+02  0.7818608E-02  0.1648621E+00
          2   -1    0    0  502    0  0.00000000000E+00  0.00000000000E+00  0.21951331523E+03  0.21951331523E+03  0.00000000000E+00 0. -1.
          1   -1    0    0  501    0 -0.00000000000E+00 -0.00000000000E+00 -0.27675454913E+03  0.27675454913E+03  0.00000000000E+00 0. -1.
         25    2    1    2    0    0 -0.36764955534E+01 -0.10249409482E+02  0.12002409629E+03  0.17363573928E+03  0.12500007701E+03 0.  0.
          2    1    1    2  501    0  0.27195686748E+02  0.86705053552E+01 -0.24719439943E+03  0.24883700318E+03  0.00000000000E+00 0. -1.
          1    1    1    2  502    0 -0.23519191194E+02  0.15789041264E+01  0.69929069239E+02  0.73795121907E+02  0.00000000000E+00 0. -1.
         22    1    3    3    0    0  0.60017949714E+02 -0.30128575587E+01  0.45771005453E+02  0.75539503166E+02  0.00000000000E+00 0. -1.
         22    1    3    3    0    0 -0.63694445267E+02 -0.72365519229E+01  0.74253090834E+02  0.98096236115E+02  0.00000000000E+00 0. -1.
</event>
<event>
 7    1  0.6510186E-006  0.7960633E+02  0.7818608E-02  0.1344178E+00
          2   -1    0    0  502    0  0.00000000000E+00  0.00000000000E+00  0.11012834393E+04  0.11012834393E+04  0.00000000000E+00 0. -1.
          1   -1    0    0  501    0 -0.00000000000E+00 -0.00000000000E+00 -0.80441056478E+03  0.80441056478E+03  0.00000000000E+00 0. -1.
         25    2    1    2    0    0 -0.75724653995E+02  0.63532910135E+01 -0.97230320578E+01  0.14660881789E+03  0.12500008241E+03 0.  0.
          2    1    1    2  501    0  0.33561137173E+02  0.61969515327E+02 -0.72296848077E+03  0.72639520575E+03  0.00000000000E+00 0. -1.
          1    1    1    2  502    0  0.42163516821E+02 -0.68322806341E+02  0.10295643874E+04  0.10326899805E+04  0.00000000000E+00 0. -1.
         22    1    3    3    0    0 -0.17253877863E+02 -0.57237729417E+02 -0.68690349463E+01  0.60175058049E+02  0.00000000000E+00 0. -1.
         22    1    3    3    0    0 -0.58470776132E+02  0.63591020431E+02 -0.28539971115E+01  0.86433759842E+02  0.00000000000E+00 0. -1.
</event>
<event>
 7    1  0.6510186E-006  0.6109337E+02  0.7818608E-02  0.1503407E+00
          2   -1    0    0  502    0  0.00000000000E+00  0.00000000000E+00  0.15270836174E+04  0.15270836174E+04  0.00000000000E+00 0. -1.
          1   -1    0    0  501    0 -0.00000000000E+00 -0.00000000000E+00 -0.30846446492E+03  0.30846446492E+03  0.00000000000E+00 0. -1.
         25    2    1    2    0    0  0.15566531862E+02  0.86564201110E+02 -0.10773208399E+03  0.18697326181E+03  0.12496847955E+03 0.  0.
          2    1    1    2  501    0 -0.29895159046E+01 -0.26895772836E+02 -0.15934555622E+03  0.16162712053E+03  0.00000000000E+00 0. -1.
          1    1    1    2  502    0 -0.12577015957E+02 -0.59668428274E+02  0.14856967927E+04  0.14869477000E+04  0.00000000000E+00 0. -1.
         22    1    3    3    0    0  0.70064192627E+02  0.48575848105E+02 -0.71708438061E+02  0.11140334015E+03  0.00000000000E+00 0. -1.
         22    1    3    3    0    0 -0.54497660765E+02  0.37988353005E+02 -0.36023645930E+02  0.75569921655E+02  0.00000000000E+00 0. -1.
</event>
<event>
 7    1  0.7659420E-006  0.1034375E+03  0.7818608E-02  0.1298684E+00
          2   -1    0    0  502    0  0.00000000000E+00  0.00000000000E+00  0.63863260884E+03  0.63863260884E+03  0.00000000000E+00 0. -1.
          1   -1    0    0  501    0 -0.00000000000E+00 -0.00000000000E+00 -0.22268382218E+04  0.22268382218E+04  0.00000000000E+00 0. -1.
         25    2    1    2    0    0  0.85395222156E+01 -0.64242275382E+02 -0.24390436553E+03  0.28162859391E+03  0.12500132799E+03 0.  0.
          2    1    1    2  501    0 -0.89813818478E+02  0.60263106199E+02 -0.19599033631E+04  0.19628854670E+04  0.00000000000E+00 0. -1.
          1    1    1    2  502    0  0.81274296262E+02  0.39791691833E+01  0.61560211567E+03  0.62095676970E+03  0.00000000000E+00 0. -1.
         22    1    3    3    0    0 -0.46349027156E+01 -0.71958242093E+02 -0.51477192403E+02  0.88596683154E+02  0.00000000000E+00 0. -1.
         22    1    3    3    0    0  0.13174424931E+02  0.77159667110E+01 -0.19242717312E+03  0.19303191076E+03  0.00000000000E+00 0. -1.
</event>
<event>
 7    1  0.6510186E-006  0.1494978E+03  0.7818608E-02  0.1311367E+00
          2   -1    0    0  502    0  0.00000000000E+00  0.00000000000E+00  0.15861236334E+04  0.15861236334E+04  0.00000000000E+00 0. -1.
          1   -1    0    0  501    0 -0.00000000000E+00 -0.00000000000E+00 -0.58421504219E+03  0.58421504219E+03  0.00000000000E+00 0. -1.
         25    2    1    2    0    0  0.90453276881E+02 -0.74350067632E+02 -0.32058014131E+03  0.36346368442E+03  0.12499798012E+03 0.  0.
          2    1    1    2  501    0  0.47556704796E+02  0.15870758828E+02 -0.23596379389E+03  0.24123107839E+03  0.00000000000E+00 0. -1.
          1    1    1    2  502    0 -0.13800998168E+03  0.58479308804E+02  0.15584525264E+04  0.15656439128E+04  0.00000000000E+00 0. -1.
         22    1    3    3    0    0  0.65107448106E+02 -0.57402698486E+02 -0.71308006117E+02  0.11233379424E+03  0.00000000000E+00 0. -1.
         22    1    3    3    0    0  0.25345828775E+02 -0.16947369146E+02 -0.24927213519E+03  0.25112989017E+03  0.00000000000E+00 0. -1.
</event>
<event>
 7    1  0.6510186E-006  0.6546359E+02  0.7818608E-02  0.1501314E+00
          2   -1    0    0  502    0  0.00000000000E+00  0.00000000000E+00  0.96189783297E+03  0.96189783297E+03  0.00000000000E+00 0. -1.
          1   -1    0    0  501    0 -0.00000000000E+00 -0.00000000000E+00 -0.26709129579E+03  0.26709129579E+03  0.00000000000E+00 0. -1.
         25    2    1    2    0    0 -0.67599713126E+02 -0.37441728806E+02  0.75822757336E+02  0.16536343633E+03  0.12499748507E+03 0.  0.
          2    1    1    2  501    0  0.34873492487E+01  0.25380968916E+02 -0.22031288177E+03  0.22179747758E+03  0.00000000000E+00 0. -1.
          1    1    1    2  502    0  0.64112363878E+02  0.12060759891E+02  0.83929666161E+03  0.84182821485E+03  0.00000000000E+00 0. -1.
         22    1    3    3    0    0 -0.10072484882E+02 -0.12720332624E+02  0.97699442651E+02  0.99037583311E+02  0.00000000000E+00 0.  1.
         22    1    3    3    0    0 -0.57527228244E+02 -0.24721396182E+02 -0.21876685314E+02  0.66325853021E+02  0.00000000000E+00 0.  1.
</event>
<event>
 7    1  0.6510186E-006  0.8801781E+02  0.7818608E-02  0.1350990E+00
          2   -1    0    0  502    0  0.00000000000E+00  0.00000000000E+00  0.85194640252E+03  0.85194640252E+03  0.00000000000E+00 0. -1.
          1   -1    0    0  501    0 -0.00000000000E+00 -0.00000000000E+00 -0.21411241757E+03  0.21411241757E+03  0.00000000000E+00 0. -1.
         25    2    1    2    0    0 -0.12961747078E+03 -0.24063648878E+02  0.12825035226E+03  0.22238099833E+03  0.12500163053E+03 0.  0.
          2    1    1    2  501    0  0.84336386938E+02 -0.15495484965E+02 -0.15459487514E+03  0.17678323347E+03  0.00000000000E+00 0. -1.
          1    1    1    2  502    0  0.45281083837E+02  0.39559133843E+02  0.66417850783E+03  0.66689458829E+03  0.00000000000E+00 0. -1.
         22    1    3    3    0    0 -0.51498489658E+02  0.74050663461E+01 -0.16783243738E+02  0.54668150828E+02  0.00000000000E+00 0. -1.
         22    1    3    3    0    0 -0.78118981118E+02 -0.31468715224E+02  0.14503359600E+03  0.16771284750E+03  0.00000000000E+00 0. -1.
</event>
<event>
 7    1  0.6510186E-006  0.1153997E+03  0.7818608E-02  0.1294191E+00
          2   -1    0    0  502    0  0.00000000000E+00  0.00000000000E+00  0.29950518439E+02  0.29950518439E+02  0.00000000000E+00 0. -1.
          1   -1    0    0  501    0 -0.00000000000E+00 -0.00000000000E+00 -0.13240996371E+04  0.13240996371E+04  0.00000000000E+00 0. -1.
         25    2    1    2    0    0 -0.67925305385E+02  0.62061260455E+02 -0.67367333530E+03  0.69132244890E+03  0.12500207397E+03 0.  0.
          2    1    1    2  501    0  0.14337998428E+03 -0.52657053310E+02 -0.46886028423E+03  0.49311312220E+03  0.00000000000E+00 0. -1.
          1    1    1    2  502    0 -0.75454678895E+02 -0.94042071452E+01 -0.15161549915E+03  0.16961458446E+03  0.00000000000E+00 0. -1.
         22    1    3    3    0    0  0.42194010680E+01  0.22204826121E+02 -0.14144042182E+02  0.26662925152E+02  0.00000000000E+00 0.  1.
         22    1    3    3    0    0 -0.72144706453E+02  0.39856434335E+02 -0.65952929312E+03  0.66465952375E+03  0.00000000000E+00 0.  1.
</event>
<event>
 7    1  0.6510186E-006  0.5141257E+02  0.7818608E-02  0.1519176E+00
          2   -1    0    0  502    0  0.00000000000E+00  0.00000000000E+00  0.17978577527E+04  0.17978577527E+04  0.00000000000E+00 0. -1.
          1   -1    0    0  501    0 -0.00000000000E+00 -0.00000000000E+00 -0.61668012015E+02  0.61668012015E+02  0.00000000000E+00 0. -1.
         25    2    1    2    0    0 -0.24016715122E+02 -0.75584454414E+02  0.15821961219E+03  0.21667332898E+03  0.12499629376E+03 0.  0.
          2    1    1    2  501    0  0.13193939404E+02  0.25715425374E+02 -0.25516166057E+02  0.38554349553E+02  0.00000000000E+00 0. -1.
          1    1    1    2  502    0  0.10822775718E+02  0.49869029040E+02  0.16034862945E+04  0.16042980861E+04  0.00000000000E+00 0. -1.
         22    1    3    3    0    0 -0.75831337560E+00 -0.33452635629E+02 -0.15162371642E+02  0.36736240738E+02  0.00000000000E+00 0. -1.
         22    1    3    3    0    0 -0.23258401746E+02 -0.42131818785E+02  0.17338198384E+03  0.17993708824E+03  0.00000000000E+00 0. -1.
</event>
<event>
 7    1  0.6510186E-006  0.1378099E+03  0.7818608E-02  0.1231458E+00
          2   -1    0    0  502    0  0.00000000000E+00  0.00000000000E+00  0.16435029946E+03  0.16435029946E+03  0.00000000000E+00 0. -1.
          1   -1    0    0  501    0 -0.00000000000E+00 -0.00000000000E+00 -0.13541021423E+04  0.13541021423E+04  0.00000000000E+00 0. -1.
         25    2    1    2    0    0 -0.47688598938E+01  0.21848145992E+03 -0.30886327628E+03  0.39847023609E+03  0.12500046102E+03 0.  0.
          2    1    1    2  501    0  0.61879784414E+02 -0.10007928335E+03 -0.95958384491E+03  0.96677097913E+03  0.00000000000E+00 0. -1.
          1    1    1    2  502    0 -0.57110924520E+02 -0.11840217658E+03  0.78695278321E+02  0.15321122657E+03  0.00000000000E+00 0. -1.
         22    1    3    3    0    0 -0.20255495954E+02 -0.64233186876E+01 -0.54977159119E+02  0.58940920964E+02  0.00000000000E+00 0.  1.
         22    1    3    3    0    0  0.15486636060E+02  0.22490477861E+03 -0.25388611716E+03  0.33952931512E+03  0.00000000000E+00 0.  1.
</event>
<event>
 7    1  0.6510186E-006  0.6779716E+02  0.7818608E-02  0.1476727E+00
          2   -1    0    0  502    0  0.00000000000E+00  0.00000000000E+00  0.44743505428E+02  0.44743505428E+02  0.00000000000E+00 0. -1.
          1   -1    0    0  501    0 -0.00000000000E+00 -0.00000000000E+00 -0.13053268487E+04  0.13053268487E+04  0.00000000000E+00 0. -1.
         25    2    1    2    0    0  0.10917102161E+02 -0.91924330128E+02 -0.21370411270E+03  0.26432011723E+03  0.12500564387E+03 0.  0.
          2    1    1    2  501    0  0.41094107803E+01  0.66693570103E+02 -0.10535244232E+04  0.10556413358E+04  0.00000000000E+00 0. -1.
          1    1    1    2  502    0 -0.15026512941E+02  0.25230760025E+02  0.66451926016E+01  0.30108901131E+02  0.00000000000E+00 0. -1.
         22    1    3    3    0    0 -0.22561441668E+02 -0.10667988928E+03 -0.11234405298E+03  0.15655926567E+03  0.00000000000E+00 0. -1.
         22    1    3    3    0    0  0.33478543828E+02  0.14755559155E+02 -0.10136005972E+03  0.10776085156E+03  0.00000000000E+00 0. -1.
</event>
<event>
 7    1  0.6510186E-006  0.8584685E+02  0.7818608E-02  0.1389211E+00
          2   -1    0    0  502    0  0.00000000000E+00  0.00000000000E+00  0.12946708835E+04  0.12946708835E+04  0.00000000000E+00 0. -1.
          1   -1    0    0  501    0 -0.00000000000E+00 -0.00000000000E+00 -0.20245221107E+03  0.20245221107E+03  0.00000000000E+00 0. -1.
         25    2    1    2    0    0 -0.76885170106E+02 -0.98679919567E+02  0.89823898928E+02  0.19834645137E+03  0.12499570411E+03 0.  0.
          2    1    1    2  501    0  0.59990995557E+02  0.57050333499E+02 -0.13615102027E+03  0.15934478473E+03  0.00000000000E+00 0. -1.
          1    1    1    2  502    0  0.16894174548E+02  0.41629586067E+02  0.11385457938E+04  0.11394318585E+04  0.00000000000E+00 0. -1.
         22    1    3    3    0    0  0.11971214093E+02  0.33241687032E+01 -0.20374928513E+02  0.23864152538E+02  0.00000000000E+00 0. -1.
         22    1    3    3    0    0 -0.88856384199E+02 -0.10200408827E+03  0.11019882744E+03  0.17448229883E+03  0.00000000000E+00 0. -1.
</event>
<event>
 7    1  0.6510186E-006  0.6906571E+02  0.7818608E-02  0.1407147E+00
          2   -1    0    0  502    0  0.00000000000E+00  0.00000000000E+00  0.18420773698E+04  0.18420773698E+04  0.00000000000E+00 0. -1.
          1   -1    0    0  501    0 -0.00000000000E+00 -0.00000000000E+00 -0.26262124060E+02  0.26262124060E+02  0.00000000000E+00 0. -1.
         25    2    1    2    0    0 -0.17717031727E+02 -0.13211812213E+02  0.22191834272E+03  0.25564871003E+03  0.12498026609E+03 0.  0.
          2    1    1    2  501    0 -0.18707736224E+02  0.71891521689E+02  0.15240665969E+03  0.16954692626E+03  0.00000000000E+00 0. -1.
          1    1    1    2  502    0  0.36424767951E+02 -0.58679709477E+02  0.14414902433E+04  0.14431438576E+04  0.00000000000E+00 0. -1.
         22    1    3    3    0    0  0.17038792724E+02  0.19544710113E+02  0.20240127750E+03  0.20405536819E+03  0.00000000000E+00 0. -1.
         22    1    3    3    0    0 -0.34755824451E+02 -0.32756522326E+02  0.19517065216E+02  0.51593341846E+02  0.00000000000E+00 0. -1.
</event>
<event>
 7    1  0.6510186E-006  0.2766022E+03  0.7818608E-02  0.1267464E+00
          2   -1    0    0  502    0  0.00000000000E+00  0.00000000000E+00  0.12997800865E+04  0.12997800865E+04  0.00000000000E+00 0. -1.
          1   -1    0    0  501    0 -0.00000000000E+00 -0.00000000000E+00 -0.13538612137E+04  0.13538612137E+04  0.00000000000E+00 0. -1.
         25    2    1    2    0    0 -0.14315281488E+03 -0.20312504913E+03 -0.31783127953E+03  0.42236790563E+03  0.12500164587E+03 0.  0.
          2    1    1    2  501    0  0.15643762647E+03  0.24180472459E+03 -0.96233552906E+03  0.10045058120E+04  0.00000000000E+00 0. -1.
          1    1    1    2  502    0 -0.13284811593E+02 -0.38679675468E+02  0.12260856814E+04  0.12267675826E+04  0.00000000000E+00 0. -1.
         22    1    3    3    0    0 -0.17729832020E+02 -0.77468431692E+02 -0.18274937411E+03  0.19928130517E+03  0.00000000000E+00 0. -1.
         22    1    3    3    0    0 -0.12542298286E+03 -0.12565661744E+03 -0.13508190542E+03  0.22308660047E+03  0.00000000000E+00 0. -1.
</event>
<event>
 7    1  0.6510186E-006  0.6386809E+02  0.7818608E-02  0.1499490E+00
          2   -1    0    0  502    0  0.00000000000E+00  0.00000000000E+00  0.18306342606E+03  0.18306342606E+03  0.00000000000E+00 0. -1.
          1   -1    0    0  501    0 -0.00000000000E+00 -0.00000000000E+00 -0.11815843555E+03  0.11815843555E+03  0.00000000000E+00 0. -1.
         25    2    1    2    0    0 -0.19630381663E+01 -0.41202568567E+02 -0.49922706383E+02  0.14077741872E+03  0.12499799932E+03 0.  0.
          2    1    1    2  501    0  0.11119845839E+02 -0.24153763449E+02 -0.15730530101E+01  0.26636999756E+02  0.00000000000E+00 0. -1.
          1    1    1    2  502    0 -0.91568076725E+01  0.65356332017E+02  0.11640074990E+03  0.13380744314E+03  0.00000000000E+00 0. -1.
         22    1    3    3    0    0 -0.23565594354E+02 -0.81812440119E+02 -0.26554870000E+02  0.89183931940E+02  0.00000000000E+00 0. -1.
         22    1    3    3    0    0  0.21602556188E+02  0.40609871552E+02 -0.23367836384E+02  0.51593486784E+02  0.00000000000E+00 0. -1.
</event>
<event>
 7    1  0.6510186E-006  0.6313932E+02  0.7818608E-02  0.1395387E+00
          2   -1    0    0  502    0  0.00000000000E+00  0.00000000000E+00  0.82351898117E+03  0.82351898117E+03  0.00000000000E+00 0. -1.
          1   -1    0    0  501    0 -0.00000000000E+00 -0.00000000000E+00 -0.49365061848E+02  0.49365061848E+02  0.00000000000E+00 0. -1.
         25    2    1    2    0    0 -0.21679742261E+02 -0.33057772853E+02  0.94750655382E+02  0.16176026388E+03  0.12500347477E+03 0.  0.
          2    1    1    2  501    0 -0.17119093035E+02  0.82869657950E+02  0.11279088648E+03  0.14100435323E+03  0.00000000000E+00 0. -1.
          1    1    1    2  502    0  0.38798835296E+02 -0.49811885097E+02  0.56661237746E+03  0.57011942592E+03  0.00000000000E+00 0. -1.
         22    1    3    3    0    0  0.44090182010E+01  0.10285928000E+02 -0.27373349622E+02  0.29572622911E+02  0.00000000000E+00 0.  1.
         22    1    3    3    0    0 -0.26088760462E+02 -0.43343700852E+02  0.12212400500E+03  0.13218764097E+03  0.00000000000E+00 0.  1.
</event>
<event>
 7    1  0.6510186E-006  0.8064814E+02  0.7818608E-02  0.1393123E+00
          2   -1    0    0  502    0  0.00000000000E+00  0.00000000000E+00  0.25058136953E+03  0.25058136953E+03  0.00000000000E+00 0. -1.
          1   -1    0    0  501    0 -0.00000000000E+00 -0.00000000000E+00 -0.48246578707E+03  0.48246578707E+03  0.00000000000E+00 0. -1.
         25    2    1    2    0    0 -0.98277471922E+02  0.73527109743E+02 -0.15083621665E+03  0.23117435600E+03  0.12500128504E+03 0.  0.
          2    1    1    2  501    0  0.28342719426E+02 -0.36668944416E+02 -0.28207699955E+03  0.28585897731E+03  0.00000000000E+00 0. -1.
          1    1    1    2  502    0  0.69934752496E+02 -0.36858165327E+02  0.20102879867E+03  0.21601382329E+03  0.00000000000E+00 0. -1.
         22    1    3    3    0    0 -0.88894723662E+01  0.37201699294E+02  0.13537522494E+02  0.40574051616E+02  0.00000000000E+00 0.  1.
         22    1    3    3    0    0 -0.89387999555E+02  0.36325410449E+02 -0.16437373915E+03  0.19060030438E+03  0.00000000000E+00 0.  1.
</event>
<event>
 7    1  0.6510186E-006  0.4000848E+02  0.7818608E-02  0.1523563E+00
          2   -1    0    0  502    0  0.00000000000E+00  0.00000000000E+00  0.20910522445E+03  0.20910522445E+03  0.00000000000E+00 0. -1.
          1   -1    0    0  501    0 -0.00000000000E+00 -0.00000000000E+00 -0.16683417817E+04  0.16683417817E+04  0.00000000000E+00 0. -1.
         25    2    1    2    0    0  0.83436015056E+01  0.69762307175E+02 -0.86973439284E+03  0.88147580937E+03  0.12500117288E+03 0.  0.
          2    1    1    2  501    0  0.71889295646E+01 -0.37208699863E+02 -0.79067890200E+03  0.79158656767E+03  0.00000000000E+00 0. -1.
          1    1    1    2  502    0 -0.15532531070E+02 -0.32553607312E+02  0.20117673759E+03  0.20438462911E+03  0.00000000000E+00 0. -1.
         22    1    3    3    0    0  0.39473234921E+02  0.40719995845E+02 -0.14810647435E+03  0.15859313378E+03  0.00000000000E+00 0.  1.
         22    1    3    3    0    0 -0.31129633415E+02  0.29042311330E+02 -0.72162791849E+03  0.72288267559E+03  0.00000000000E+00 0.  1.
</event>
<event>
 7    1  0.6510186E-006  0.4899544E+02  0.7818608E-02  0.1470384E+00
          2   -1    0    0  502    0  0.00000000000E+00  0.00000000000E+00  0.20551806804E+04  0.20551806804E+04  0.00000000000E+00 0. -1.
          1   -1    0    0  501    0 -0.00000000000E+00 -0.00000000000E+00 -0.12251490394E+04  0.12251490394E+04  0.00000000000E+00 0. -1.
         25    2    1    2    0    0 -0.47830382456E+02 -0.65879724710E+02  0.97440755305E+03  0.98576023511E+03  0.12500111225E+03 0.  0.
          2    1    1    2  501    0  0.79492657503E+01  0.41765146503E+02 -0.12185967427E+04  0.12193381564E+04  0.00000000000E+00 0. -1.
          1    1    1    2  502    0  0.39881116706E+02  0.24114578207E+02  0.10742208307E+04  0.10752313283E+04  0.00000000000E+00 0. -1.
         22    1    3    3    0    0  0.26299151663E+02 -0.96571094725E+01  0.57409138318E+03  0.57477458311E+03  0.00000000000E+00 0.  1.
         22    1    3    3    0    0 -0.74129534119E+02 -0.56222615237E+02  0.40031616987E+03  0.41098565200E+03  0.00000000000E+00 0.  1.
</event>
<event>
 7    1  0.6510186E-006  0.7712296E+02  0.7818608E-02  0.1399113E+00
          2   -1    0    0  502    0  0.00000000000E+00  0.00000000000E+00  0.25832794673E+04  0.25832794673E+04  0.00000000000E+00 0. -1.
          1   -1    0    0  501    0 -0.00000000000E+00 -0.00000000000E+00 -0.35006834113E+03  0.35006834113E+03  0.00000000000E+00 0. -1.
         25    2    1    2    0    0 -0.59863661022E+02 -0.76182876475E+02  0.20145028354E+03  0.25611389033E+03  0.12499847799E+03 0.  0.
          2    1    1    2  501    0 -0.10456667539E+02  0.45007709709E+02 -0.32045076506E+03  0.32376492809E+03  0.00000000000E+00 0. -1.
          1    1    1    2  502    0  0.70320328562E+02  0.31175166766E+02  0.23522116077E+04  0.23534689900E+04  0.00000000000E+00 0. -1.
         22    1    3    3    0    0 -0.59874711866E+02 -0.10035991224E+03  0.10642539150E+03  0.15806156099E+03  0.00000000000E+00 0.  1.
         22    1    3    3    0    0  0.11050843300E-01  0.24177035768E+02  0.95024892041E+02  0.98052329336E+02  0.00000000000E+00 0.  1.
</event>
<event>
 7    1  0.6510186E-006  0.4839564E+02  0.7818608E-02  0.1503780E+00
          2   -1    0    0  502    0  0.00000000000E+00  0.00000000000E+00  0.19686139105E+04  0.19686139105E+04  0.00000000000E+00 0. -1.
          1   -1    0    0  501    0 -0.00000000000E+00 -0.00000000000E+00 -0.17556619568E+03  0.17556619568E+03  0.00000000000E+00 0. -1.
         25    2    1    2    0    0  0.38769591189E+02 -0.14332279266E+02  0.51217754911E+03  0.52882889623E+03  0.12500265695E+03 0.  0.
          2    1    1    2  501    0 -0.21306891678E+02  0.43591858600E+02 -0.16351612096E+03  0.17056305456E+03  0.00000000000E+00 0. -1.
          1    1    1    2  502    0 -0.17462699512E+02 -0.29259579334E+02  0.14443862866E+04  0.14447881554E+04  0.00000000000E+00 0. -1.
         22    1    3    3    0    0 -0.29137204015E+02  0.17018497323E+02  0.33246931846E+03  0.33417727874E+03  0.00000000000E+00 0. -1.
         22    1    3    3    0    0  0.67906795204E+02 -0.31350776589E+02  0.17970823066E+03  0.19465161749E+03  0.00000000000E+00 0. -1.
</event>
<event>
 7    1  0.6510186E-006  0.7889507E+02  0.7818608E-02  0.1337425E+00
          2   -1    0    0  502    0  0.00000000000E+00  0.00000000000E+00  0.38760188067E+03  0.38760188067E+03  0.00000000000E+00 0. -1.
          1   -1    0    0  501    0 -0.00000000000E+00 -0.00000000000E+00 -0.50104158074E+03  0.50104158074E+03  0.00000000000E+00 0. -1.
         25    2    1    2    0    0  0.20619710934E+02  0.15051894183E+02  0.65716306313E+02  0.14351306594E+03  0.12500254071E+03 0.  0.
          2    1    1    2  501    0 -0.36849487836E+02  0.69760646435E+02 -0.45205887571E+03  0.45889177336E+03  0.00000000000E+00 0. -1.
          1    1    1    2  502    0  0.16229776901E+02 -0.84812540617E+02  0.27290286933E+03  0.28623862212E+03  0.00000000000E+00 0. -1.
         22    1    3    3    0    0  0.73329950542E+02  0.13894583278E+02  0.34293857285E+02  0.82136531084E+02  0.00000000000E+00 0.  1.
         22    1    3    3    0    0 -0.52710239608E+02  0.11573109046E+01  0.31422449029E+02  0.61376534857E+02  0.00000000000E+00 0.  1.
</event>
<event>
 7    1  0.6510186E-006  0.3002729E+03  0.7818608E-02  0.1178686E+00
          2   -1    0    0  502    0  0.00000000000E+00  0.00000000000E+00  0.61324832504E+03  0.61324832504E+03  0.00000000000E+00 0. -1.
          1   -1    0    0  501    0 -0.00000000000E+00 -0.00000000000E+00 -0.11053015053E+04  0.11053015053E+04  0.00000000000E+00 0. -1.
         25    2    1    2    0    0 -0.29956497752E+03  0.17509961408E+03  0.32463461925E+03  0.49133733758E+03  0.12500277066E+03 0.  0.
          2    1    1    2  501    0  0.91676961437E+02 -0.26174504869E+02 -0.93893882228E+03  0.94376685784E+03  0.00000000000E+00 0. -1.
          1    1    1    2  502    0  0.20788801609E+03 -0.14892510921E+03  0.12225102278E+03  0.28344563492E+03  0.00000000000E+00 0. -1.
         22    1    3    3    0    0 -0.30366655901E+03  0.14302596124E+03  0.28621956787E+03  0.44112520409E+03  0.00000000000E+00 0. -1.
         22    1    3    3    0    0  0.41015814855E+01  0.32073652838E+02  0.38415051382E+02  0.50212133491E+02  0.00000000000E+00 0. -1.
</event>
<event>
 7    1  0.6510186E-006  0.7333424E+02  0.7818608E-02  0.1354961E+00
          2   -1    0    0  502    0  0.00000000000E+00  0.00000000000E+00  0.18073913134E+04  0.18073913134E+04  0.00000000000E+00 0. -1.
          1   -1    0    0  501    0 -0.00000000000E+00 -0.00000000000E+00 -0.31975298685E+02  0.31975298685E+02  0.00000000000E+00 0. -1.
         25    2    1    2    0    0  0.43972467411E+01 -0.60345574992E+01  0.12771714004E+04  0.12832950411E+04  0.12499449900E+03 0.  0.
          2    1    1    2  501    0 -0.94191281059E+01  0.75626813735E+02  0.28801894360E+02  0.81471983213E+02  0.00000000000E+00 0. -1.
          1    1    1    2  502    0  0.50218813649E+01 -0.69592256235E+02  0.46944271996E+03  0.47459958781E+03  0.00000000000E+00 0. -1.
         22    1    3    3    0    0  0.49726502354E+02  0.18192302054E+02  0.29052206669E+03  0.29530790054E+03  0.00000000000E+00 0. -1.
         22    1    3    3    0    0 -0.45329255613E+02 -0.24226859553E+02  0.98664933374E+03  0.98798714056E+03  0.00000000000E+00 0. -1.
</event>
<event>
 7    1  0.6510186E-006  0.4279912E+02  0.7818608E-02  0.1502238E+00
          2   -1    0    0  502    0  0.00000000000E+00  0.00000000000E+00  0.89279365907E+03  0.89279365907E+03  0.00000000000E+00 0. -1.
          1   -1    0    0  501    0 -0.00000000000E+00 -0.00000000000E+00 -0.69944500426E+02  0.69944500426E+02  0.00000000000E+00 0. -1.
         25    2    1    2    0    0 -0.48282247576E+01  0.56907772477E+02  0.23979716507E+03  0.27638757326E+03  0.12500241580E+03 0.  0.
          2    1    1    2  501    0 -0.26427093177E+02 -0.33683816868E+02 -0.42065907281E+02  0.60021090693E+02  0.00000000000E+00 0. -1.
          1    1    1    2  502    0  0.31255317935E+02 -0.23223955609E+02  0.62511790085E+03  0.62632949553E+03  0.00000000000E+00 0. -1.
         22    1    3    3    0    0  0.22657063575E+02  0.76201354468E+02  0.22688511210E+03  0.24040973991E+03  0.00000000000E+00 0. -1.
         22    1    3    3    0    0 -0.27485288333E+02 -0.19293581991E+02  0.12912052973E+02  0.35977833353E+02  0.00000000000E+00 0. -1.
</event>
<event>
 7    1  0.6510186E-006  0.7990054E+02  0.7818608E-02  0.1450139E+00
          2   -1    0    0  502    0  0.00000000000E+00  0.00000000000E+00  0.17743579144E+03  0.17743579144E+03  0.00000000000E+00 0. -1.
          1   -1    0    0  501    0 -0.00000000000E+00 -0.00000000000E+00 -0.68618907523E+03  0.68618907523E+03  0.00000000000E+00 0. -1.
         25    2    1    2    0    0  0.78359306950E+02 -0.69356728507E+02  0.15696792155E+01  0.16302734439E+03  0.12499965740E+03 0.  0.
          2    1    1    2  501    0 -0.26268611747E+02  0.14897375593E+02 -0.59008944973E+03  0.59086168470E+03  0.00000000000E+00 0. -1.
          1    1    1    2  502    0 -0.52090695204E+02  0.54459352914E+02  0.79766486725E+02  0.10973583759E+03  0.00000000000E+00 0. -1.
         22    1    3    3    0    0  0.37396130596E+02 -0.33322310192E+02  0.63250047364E+02  0.80680948381E+02  0.00000000000E+00 0.  1.
         22    1    3    3    0    0  0.40963176354E+02 -0.36034418314E+02 -0.61680368148E+02  0.82346396006E+02  0.00000000000E+00 0.  1.
</event>
<event>
 7    1  0.6510186E-006  0.5287330E+02  0.7818608E-02  0.1518678E+00
          2   -1    0    0  502    0  0.00000000000E+00  0.00000000000E+00  0.53795213212E+03  0.53795213212E+03  0.00000000000E+00 0. -1.
          1   -1    0    0  501    0 -0.00000000000E+00 -0.00000000000E+00 -0.16039784672E+03  0.16039784672E+03  0.00000000000E+00 0. -1.
         25    2    1    2    0    0  0.41744252055E+02 -0.65212664763E+02  0.21471487844E+03  0.26023759638E+03  0.12500341323E+03 0.  0.
          2    1    1    2  501    0 -0.87722412521E+01  0.26798744493E+02 -0.13402666815E+03  0.13696084367E+03  0.00000000000E+00 0. -1.
          1    1    1    2  502    0 -0.32972010803E+02  0.38413920270E+02  0.29686607511E+03  0.30115153879E+03  0.00000000000E+00 0. -1.
         22    1    3    3    0    0 -0.12399915743E+02 -0.47063821798E+02  0.12690023450E+02  0.50297096614E+02  0.00000000000E+00 0.  1.
         22    1    3    3    0    0  0.54144167798E+02 -0.18148842965E+02  0.20202485499E+03  0.20994049976E+03  0.00000000000E+00 0.  1.
</event>
<event>
 7    1  0.6510186E-006  0.7758483E+02  0.7818608E-02  0.1427865E+00
          2   -1    0    0  502    0  0.00000000000E+00  0.00000000000E+00  0.28412342991E+03  0.28412342991E+03  0.00000000000E+00 0. -1.
          1   -1    0    0  501    0 -0.00000000000E+00 -0.00000000000E+00 -0.20108722121E+04  0.20108722121E+04  0.00000000000E+00 0. -1.
         25    2    1    2    0    0  0.51630591462E+02 -0.25179553369E+02 -0.52577370271E+03  0.54347284118E+03  0.12500005900E+03 0.  0.
          2    1    1    2  501    0 -0.80629725783E+02  0.26185178393E+01 -0.14739149623E+04  0.14761210402E+04  0.00000000000E+00 0. -1.
          1    1    1    2  502    0  0.28999134321E+02  0.22561035530E+02  0.27293988282E+03  0.27540176061E+03  0.00000000000E+00 0. -1.
         22    1    3    3    0    0  0.65879147099E+01  0.24457696162E+02 -0.40130840156E+03  0.40210696672E+03  0.00000000000E+00 0.  1.
         22    1    3    3    0    0  0.45042676752E+02 -0.49637249531E+02 -0.12446530115E+03  0.14136587446E+03  0.00000000000E+00 0.  1.
</event>
<event>
 7    1  0.6510186E-006  0.3085619E+03  0.7818608E-02  0.1260950E+00
          2   -1    0    0  502    0  0.00000000000E+00  0.00000000000E+00  0.42478913945E+03  0.42478913945E+03  0.00000000000E+00 0. -1.
          1   -1    0    0  501    0 -0.00000000000E+00 -0.00000000000E+00 -0.23309668127E+04  0.23309668127E+04  0.00000000000E+00 0. -1.
         25    2    1    2    0    0  0.30752000058E+03  0.12657679585E+03 -0.26465493536E+02  0.35625161402E+03  0.12499821654E+03 0.  0.
          2    1    1    2  501    0 -0.38979068747E+02  0.26383925686E+01 -0.20539322463E+04  0.20543037753E+04  0.00000000000E+00 0. -1.
          1    1    1    2  502    0 -0.26854093184E+03 -0.12921518841E+03  0.17422006656E+03  0.34520056283E+03  0.00000000000E+00 0. -1.
         22    1    3    3    0    0  0.16712675255E+03  0.70766725146E+02  0.48122143403E+02  0.18776320590E+03  0.00000000000E+00 0.  1.
         22    1    3    3    0    0  0.14039324804E+03  0.55810070699E+02 -0.74587636939E+02  0.16848840812E+03  0.00000000000E+00 0.  1.
</event>
<event>
 7    1  0.6510186E-006  0.8256546E+02  0.7818608E-02  0.1362296E+00
          2   -1    0    0  502    0  0.00000000000E+00  0.00000000000E+00  0.11264182517E+04  0.11264182517E+04  0.00000000000E+00 0. -1.
          1   -1    0    0  501    0 -0.00000000000E+00 -0.00000000000E+00 -0.44021685410E+03  0.44021685410E+03  0.00000000000E+00 0. -1.
         25    2    1    2    0    0 -0.63172190934E-01  0.33571876446E+02  0.40956364859E+03  0.42953710071E+03  0.12503065129E+03 0.  0.
          2    1    1    2  501    0  0.46337416798E+02 -0.68968815193E+02 -0.42499979203E+03  0.43304581385E+03  0.00000000000E+00 0. -1.
          1    1    1    2  502    0 -0.46274244607E+02  0.35396938747E+02  0.70163754103E+03  0.70405219123E+03  0.00000000000E+00 0. -1.
         22    1    3    3    0    0  0.19935872465E+02 -0.59119186680E+01  0.36873724126E+03  0.36932308740E+03  0.00000000000E+00 0. -1.
         22    1    3    3    0    0 -0.19999044656E+02  0.39483795114E+02  0.40826407329E+02  0.60214013312E+02  0.00000000000E+00 0. -1.
</event>
<event>
 7    1  0.6510186E-006  0.5299615E+02  0.7818608E-02  0.1489790E+00
          2   -1    0    0  502    0  0.00000000000E+00  0.00000000000E+00  0.82727768594E+03  0.82727768594E+03  0.00000000000E+00 0. -1.
          1   -1    0    0  501    0 -0.00000000000E+00 -0.00000000000E+00 -0.83900115157E+03  0.83900115157E+03  0.00000000000E+00 0. -1.
         25    2    1    2    0    0 -0.58325021716E+02 -0.99185007045E+01  0.64340713462E+03  0.65809971425E+03  0.12498923235E+03 0.  0.
          2    1    1    2  501    0  0.37681222247E+02  0.37273902460E+02 -0.82913733612E+03  0.83082966995E+03  0.00000000000E+00 0. -1.
          1    1    1    2  502    0  0.20643799469E+02 -0.27355401756E+02  0.17400673587E+03  0.17734945331E+03  0.00000000000E+00 0. -1.
         22    1    3    3    0    0 -0.86769611069E+02 -0.33938656266E+02  0.54457792819E+03  0.55249064940E+03  0.00000000000E+00 0.  1.
         22    1    3    3    0    0  0.28444589353E+02  0.24020155562E+02  0.98829206429E+02  0.10560906486E+03  0.00000000000E+00 0.  1.
</event>
<event>
 7    1  0.6510186E-006  0.5675045E+02  0.7818608E-02  0.1428422E+00
          2   -1    0    0  502    0  0.00000000000E+00  0.00000000000E+00  0.12467284478E+04  0.12467284478E+04  0.00000000000E+00 0. -1.
          1   -1    0    0  501    0 -0.00000000000E+00 -0.00000000000E+00 -0.51061312187E+03  0.51061312187E+03  0.00000000000E+00 0. -1.
         25    2    1    2    0    0  0.45794219259E+02  0.70931032119E+02  0.94406203852E+02  0.17794971232E+03  0.12500098781E+03 0.  0.
          2    1    1    2  501    0  0.65515504393E+01 -0.49587155723E+02 -0.46678502843E+03  0.46945720955E+03  0.00000000000E+00 0. -1.
          1    1    1    2  502    0 -0.52345769699E+02 -0.21343876397E+02  0.11084941505E+04  0.11099346478E+04  0.00000000000E+00 0. -1.
         22    1    3    3    0    0  0.79105672662E+00  0.85781050306E+02  0.17402720827E+02  0.87532102994E+02  0.00000000000E+00 0.  1.
         22    1    3    3    0    0  0.45003162533E+02 -0.14850018186E+02  0.77003483025E+02  0.90417609325E+02  0.00000000000E+00 0.  1.
</event>
<event>
 7    1  0.6510186E-006  0.4832638E+02  0.7818608E-02  0.1507676E+00
          2   -1    0    0  502    0  0.00000000000E+00  0.00000000000E+00  0.71115149211E+03  0.71115149211E+03  0.00000000000E+00 0. -1.
          1   -1    0    0  501    0 -0.00000000000E+00 -0.00000000000E+00 -0.40581822074E+03  0.40581822074E+03  0.00000000000E+00 0. -1.
         25    2    1    2    0    0 -0.75328237233E+02 -0.18427427961E+02  0.61327332294E+02  0.15937171948E+03  0.12499755940E+03 0.  0.
          2    1    1    2  501    0  0.42344961698E+02  0.22461220037E+02 -0.35472336895E+03  0.35794730152E+03  0.00000000000E+00 0. -1.
          1    1    1    2  502    0  0.32983275535E+02 -0.40337920756E+01  0.59872930803E+03  0.59965069185E+03  0.00000000000E+00 0. -1.
         22    1    3    3    0    0  0.34216122899E+02  0.47715361192E+01  0.20590127805E+02  0.40217707372E+02  0.00000000000E+00 0. -1.
         22    1    3    3    0    0 -0.10954436013E+03 -0.23198964081E+02  0.40737204489E+02  0.11915401211E+03  0.00000000000E+00 0. -1.
</event>
<event>
 7    1  0.6510186E-006  0.1422146E+03  0.7818608E-02  0.1213534E+00
          2   -1    0    0  502    0  0.00000000000E+00  0.00000000000E+00  0.31265460611E+03  0.31265460611E+03  0.00000000000E+00 0. -1.
          1   -1    0    0  501    0 -0.00000000000E+00 -0.00000000000E+00 -0.55059335659E+03  0.55059335659E+03  0.00000000000E+00 0. -1.
         25    2    1    2    0    0 -0.32554063535E+02  0.27972818490E+02 -0.12782269475E+03  0.18385518911E+03  0.12498737394E+03 0.  0.
          2    1    1    2  501    0 -0.10717970231E+03 -0.93474619326E+02 -0.35922675012E+03  0.38635327234E+03  0.00000000000E+00 0. -1.
          1    1    1    2  502    0  0.13973376585E+03  0.65501800836E+02  0.24911069439E+03  0.29303950125E+03  0.00000000000E+00 0. -1.
         22    1    3    3    0    0  0.22919749677E+02 -0.26377423418E+02 -0.77672723674E+00  0.34952635045E+02  0.00000000000E+00 0. -1.
         22    1    3    3    0    0 -0.55473813212E+02  0.54350241908E+02 -0.12704596751E+03  0.14890255407E+03  0.00000000000E+00 0. -1.
</event>
<event>
 7    1  0.6510186E-006  0.5459299E+02  0.7818608E-02  0.1460739E+00
          2   -1    0    0  502    0  0.00000000000E+00  0.00000000000E+00  0.21803828715E+03  0.21803828715E+03  0.00000000000E+00 0. -1.
          1   -1    0    0  501    0 -0.00000000000E+00 -0.00000000000E+00 -0.61505289991E+03  0.61505289991E+03  0.00000000000E+00 0. -1.
         25    2    1    2    0    0 -0.49743850648E+02  0.76553796976E+01  0.98676725255E+02  0.16702010807E+03  0.12500225949E+03 0.  0.
          2    1    1    2  501    0  0.43860765169E+02  0.32821665419E+02 -0.57459256881E+03  0.57719810167E+03  0.00000000000E+00 0. -1.
          1    1    1    2  502    0  0.58830854789E+01 -0.40477045117E+02  0.78901230797E+02  0.88872977318E+02  0.00000000000E+00 0. -1.
         22    1    3    3    0    0 -0.33619580545E+02  0.65157338710E+02  0.41043201793E+02  0.84025587753E+02  0.00000000000E+00 0. -1.
         22    1    3    3    0    0 -0.16124270102E+02 -0.57501959013E+02  0.57633523462E+02  0.82994520321E+02  0.00000000000E+00 0. -1.
</event>
<event>
 7    1  0.6510186E-006  0.1656753E+03  0.7818608E-02  0.1342823E+00
          2   -1    0    0  502    0  0.00000000000E+00  0.00000000000E+00  0.45184307083E+03  0.45184307083E+03  0.00000000000E+00 0. -1.
          1   -1    0    0  501    0 -0.00000000000E+00 -0.00000000000E+00 -0.13065468492E+04  0.13065468492E+04  0.00000000000E+00 0. -1.
         25    2    1    2    0    0 -0.86710667520E+02  0.13962495989E+03  0.43281780728E+02  0.21098397642E+03  0.12500822563E+03 0.  0.
          2    1    1    2  501    0  0.56582212710E+02 -0.15593517688E+03 -0.12161455173E+04  0.12274067156E+04  0.00000000000E+00 0. -1.
          1    1    1    2  502    0  0.30128454810E+02  0.16310216993E+02  0.31815995818E+03  0.31999922806E+03  0.00000000000E+00 0. -1.
         22    1    3    3    0    0  0.61288520777E+00  0.49276953009E+02 -0.37220001400E+02  0.61756960987E+02  0.00000000000E+00 0. -1.
         22    1    3    3    0    0 -0.87323552728E+02  0.90348006880E+02  0.80501782128E+02  0.14922701543E+03  0.00000000000E+00 0. -1.
</event>
<event>
 7    1  0.6510186E-006  0.7998505E+02  0.7818608E-02  0.1336958E+00
          2   -1    0    0  502    0  0.00000000000E+00  0.00000000000E+00  0.13189311213E+04  0.13189311213E+04  0.00000000000E+00 0. -1.
          1   -1    0    0  501    0 -0.00000000000E+00 -0.00000000000E+00 -0.14908094266E+03  0.14908094266E+03  0.00000000000E+00 0. -1.
         25    2    1    2    0    0  0.10122906624E+02 -0.64523618187E+01  0.19762292690E+03  0.23414362315E+03  0.12499723523E+03 0.  0.
          2    1    1    2  501    0  0.51494459358E+02 -0.54063708235E+02 -0.11831943676E+03  0.13990730148E+03  0.00000000000E+00 0. -1.
          1    1    1    2  502    0 -0.61617365982E+02  0.60516070054E+02  0.10905466885E+04  0.10939611393E+04  0.00000000000E+00 0. -1.
         22    1    3    3    0    0  0.28075240353E+02  0.31323173866E+02  0.18605260818E+03  0.19074835085E+03  0.00000000000E+00 0.  1.
         22    1    3    3    0    0 -0.17952333729E+02 -0.37775535684E+02  0.11570318717E+02  0.43395272297E+02  0.00000000000E+00 0.  1.
</event>
<event>
 7    1  0.6510186E-006  0.6800236E+02  0.7818608E-02  0.1397348E+00
          2   -1    0    0  502    0  0.00000000000E+00  0.00000000000E+00  0.12903306488E+04  0.12903306488E+04  0.00000000000E+00 0. -1.
          1   -1    0    0  501    0 -0.00000000000E+00 -0.00000000000E+00 -0.18203754296E+04  0.18203754296E+04  0.00000000000E+00 0. -1.
         25    2    1    2    0    0 -0.38426497168E+02 -0.49853898188E+02 -0.90054151856E+02  0.16644240043E+03  0.12502525963E+03 0.  0.
          2    1    1    2  501    0 -0.11719463573E+02  0.67448426351E+02 -0.16908703194E+04  0.16922556169E+04  0.00000000000E+00 0. -1.
          1    1    1    2  502    0  0.50145960741E+02 -0.17594528163E+02  0.12508796905E+04  0.12520080610E+04  0.00000000000E+00 0. -1.
         22    1    3    3    0    0 -0.80650925050E+02 -0.43501438535E+02 -0.82046826934E+02  0.12299849054E+03  0.00000000000E+00 0. -1.
         22    1    3    3    0    0  0.42224427882E+02 -0.63524596534E+01 -0.80073249214E+01  0.43443909884E+02  0.00000000000E+00 0. -1.
</event>
<event>
 7    1  0.6510186E-006  0.1202403E+03  0.7818608E-02  0.1432035E+00
          2   -1    0    0  502    0  0.00000000000E+00  0.00000000000E+00  0.23362744636E+03  0.23362744636E+03  0.00000000000E+00 0. -1.
          1   -1    0    0  501    0 -0.00000000000E+00 -0.00000000000E+00 -0.39910073930E+03  0.39910073930E+03  0.00000000000E+00 0. -1.
         25    2    1    2    0    0 -0.41115105716E+02 -0.10993125574E+03  0.18721032284E+02  0.17248465767E+03  0.12500058870E+03 0.  0.
          2    1    1    2  501    0  0.20067991964E+02  0.11913077979E+03 -0.30981713146E+03  0.33253800075E+03  0.00000000000E+00 0. -1.
          1    1    1    2  502    0  0.21047113752E+02 -0.91995240530E+01  0.12562280624E+03  0.12770552724E+03  0.00000000000E+00 0. -1.
         22    1    3    3    0    0 -0.34378895139E+02 -0.13032210580E+03  0.41650595570E+02  0.14106924471E+03  0.00000000000E+00 0.  1.
         22    1    3    3    0    0 -0.67362105764E+01  0.20390850061E+02 -0.22929563287E+02  0.31415412964E+02  0.00000000000E+00 0.  1.
</event>
<event>
 7    1  0.6510186E-006  0.4979235E+02  0.7818608E-02  0.1549262E+00
          2   -1    0    0  502    0  0.00000000000E+00  0.00000000000E+00  0.51716906469E+02  0.51716906469E+02  0.00000000000E+00 0. -1.
          1   -1    0    0  501    0 -0.00000000000E+00 -0.00000000000E+00 -0.28098565223E+04  0.28098565223E+04  0.00000000000E+00 0. -1.
         25    2    1    2    0    0  0.61196369765E+02  0.40160188040E+02 -0.81183330884E+03  0.82465565726E+03  0.12500318125E+03 0.  0.
          2    1    1    2  501    0 -0.40517849608E+02 -0.27024934882E+02 -0.19879802506E+04  0.19885767573E+04  0.00000000000E+00 0. -1.
          1    1    1    2  502    0 -0.20678520157E+02 -0.13135253158E+02  0.41673943607E+02  0.48341014130E+02  0.00000000000E+00 0. -1.
         22    1    3    3    0    0  0.37108445200E+02 -0.18712560877E+02 -0.80814395540E+02  0.90874436264E+02  0.00000000000E+00 0.  1.
         22    1    3    3    0    0  0.24087924565E+02  0.58872748917E+02 -0.73101891330E+03  0.73378122099E+03  0.00000000000E+00 0.  1.
</event>
<event>
 7    1  0.6510186E-006  0.1347426E+03  0.7818608E-02  0.1258676E+00
          2   -1    0    0  502    0  0.00000000000E+00  0.00000000000E+00  0.15315799212E+04  0.15315799212E+04  0.00000000000E+00 0. -1.
          1   -1    0    0  501    0 -0.00000000000E+00 -0.00000000000E+00 -0.14674996554E+03  0.14674996554E+03  0.00000000000E+00 0. -1.
         25    2    1    2    0    0  0.18155862846E+03  0.19017541148E+02  0.15806191519E+03  0.27190836907E+03  0.12500155877E+03 0.  0.
          2    1    1    2  501    0 -0.71952452547E+02  0.56507668062E+02 -0.62179708941E+02  0.11061911309E+03  0.00000000000E+00 0. -1.
          1    1    1    2  502    0 -0.10960617592E+03 -0.75525209210E+02  0.12889477494E+04  0.12958024045E+04  0.00000000000E+00 0. -1.
         22    1    3    3    0    0  0.54509220240E+02  0.36187518277E+02  0.12247630053E+03  0.13885688950E+03  0.00000000000E+00 0.  1.
         22    1    3    3    0    0  0.12704940822E+03 -0.17169977129E+02  0.35585614659E+02  0.13305147957E+03  0.00000000000E+00 0.  1.
</event>
<event>
 7    1  0.6510186E-006  0.1134369E+03  0.7818608E-02  0.1396352E+00
          2   -1    0    0  502    0  0.00000000000E+00  0.00000000000E+00  0.26015710645E+03  0.26015710645E+03  0.00000000000E+00 0. -1.
          1   -1    0    0  501    0 -0.00000000000E+00 -0.00000000000E+00 -0.19431465837E+04  0.19431465837E+04  0.00000000000E+00 0. -1.
         25    2    1    2    0    0 -0.92485996888E+02  0.52703565435E+01 -0.18853722009E+03  0.24444738338E+03  0.12500721421E+03 0.  0.
          2    1    1    2  501    0 -0.17949619548E+02  0.26626171216E+02 -0.17122683098E+04  0.17125693874E+04  0.00000000000E+00 0. -1.
          1    1    1    2  502    0  0.11043561644E+03 -0.31896527760E+02  0.21781605265E+03  0.24628691937E+03  0.00000000000E+00 0. -1.
         22    1    3    3    0    0 -0.20613239491E+02  0.56262547168E+02 -0.11498726016E+03  0.12966283143E+03  0.00000000000E+00 0. -1.
         22    1    3    3    0    0 -0.71872757397E+02 -0.50992190624E+02 -0.73549959933E+02  0.11478455195E+03  0.00000000000E+00 0. -1.
</event>
<event>
 7    1  0.6510186E-006  0.6852824E+02  0.7818608E-02  0.1409136E+00
          2   -1    0    0  502    0  0.00000000000E+00  0.00000000000E+00  0.10620991596E+03  0.10620991596E+03  0.00000000000E+00 0. -1.
          1   -1    0    0  501    0 -0.00000000000E+00 -0.00000000000E+00 -0.12594225257E+04  0.12594225257E+04  0.00000000000E+00 0. -1.
         25    2    1    2    0    0  0.32469217611E+02 -0.91989559409E+01 -0.32507353295E+03  0.34990862819E+03  0.12499750149E+03 0.  0.
          2    1    1    2  501    0  0.32680550633E+02  0.35234594406E+02 -0.90808626122E+03  0.90935699967E+03  0.00000000000E+00 0. -1.
          1    1    1    2  502    0 -0.65149768244E+02 -0.26035638465E+02  0.79947184441E+02  0.10636681377E+03  0.00000000000E+00 0. -1.
         22    1    3    3    0    0 -0.27332034637E+00 -0.29336463439E+02 -0.30525372779E+03  0.30666030248E+03  0.00000000000E+00 0. -1.
         22    1    3    3    0    0  0.32742537957E+02  0.20137507498E+02 -0.19819805162E+02  0.43248325711E+02  0.00000000000E+00 0. -1.
</event>
<event>
 7    1  0.6510186E-006  0.1012457E+03  0.7818608E-02  0.1357844E+00
          2   -1    0    0  502    0  0.00000000000E+00  0.00000000000E+00  0.12506368524E+03  0.12506368524E+03  0.00000000000E+00 0. -1.
          1   -1    0    0  501    0 -0.00000000000E+00 -0.00000000000E+00 -0.59936076156E+03  0.59936076156E+03  0.00000000000E+00 0. -1.
         25    2    1    2    0    0 -0.47001321660E+02  0.68316994335E+02  0.41465329260E+02  0.15562970254E+03  0.12499957931E+03 0.  0.
          2    1    1    2  501    0  0.11065331714E+02 -0.10209974351E+03 -0.50870796767E+03  0.51897070780E+03  0.00000000000E+00 0. -1.
          1    1    1    2  502    0  0.35935989946E+02  0.33782749172E+02 -0.70544379109E+01  0.49824036461E+02  0.00000000000E+00 0. -1.
         22    1    3    3    0    0 -0.58442986913E+02  0.34177883437E+02 -0.31190045935E+02  0.74542131718E+02  0.00000000000E+00 0. -1.
         22    1    3    3    0    0  0.11441665253E+02  0.34139110897E+02  0.72655375196E+02  0.81087570820E+02  0.00000000000E+00 0. -1.
</event>
<event>
 7    1  0.6510186E-006  0.3824966E+02  0.7818608E-02  0.1543393E+00
          2   -1    0    0  502    0  0.00000000000E+00  0.00000000000E+00  0.66831731446E+03  0.66831731446E+03  0.00000000000E+00 0. -1.
          1   -1    0    0  501    0 -0.00000000000E+00 -0.00000000000E+00 -0.10383265309E+04  0.10383265309E+04  0.00000000000E+00 0. -1.
         25    2    1    2    0    0  0.26475168741E+02  0.47325059309E+02  0.35916928356E+02  0.14091012113E+03  0.12500016279E+03 0.  0.
          2    1    1    2  501    0 -0.31730014894E+02 -0.95003502009E+01 -0.98492255879E+03  0.98547932364E+03  0.00000000000E+00 0. -1.
          1    1    1    2  502    0  0.52548461525E+01 -0.37824709108E+02  0.57899641398E+03  0.58025440061E+03  0.00000000000E+00 0. -1.
         22    1    3    3    0    0  0.50833765509E+02  0.18727864902E+02 -0.32272521113E+02  0.63058070527E+02  0.00000000000E+00 0.  1.
         22    1    3    3    0    0 -0.24358596768E+02  0.28597194407E+02  0.68189449469E+02  0.77852050604E+02  0.00000000000E+00 0.  1.
</event>
<event>
 7    1  0.6510186E-006  0.6783174E+02  0.7818608E-02  0.1414619E+00
          2   -1    0    0  502    0  0.00000000000E+00  0.00000000000E+00  0.11059111894E+04  0.11059111894E+04  0.00000000000E+00 0. -1.
          1   -1    0    0  501    0 -0.00000000000E+00 -0.00000000000E+00 -0.20369359642E+03  0.20369359642E+03  0.00000000000E+00 0. -1.
         25    2    1    2    0    0  0.69477872921E+02  0.12606550685E+02  0.15009077793E+03  0.20769994968E+03  0.12500371007E+03 0.  0.
          2    1    1    2  501    0 -0.95509494891E+01 -0.45531626318E+02 -0.17050747787E+03  0.17674034525E+03  0.00000000000E+00 0. -1.
          1    1    1    2  502    0 -0.59926923432E+02  0.32925075633E+02  0.92263429291E+03  0.92516449089E+03  0.00000000000E+00 0. -1.
         22    1    3    3    0    0  0.98835820727E+01 -0.52449641303E+02  0.73710643498E+02  0.91004994546E+02  0.00000000000E+00 0.  1.
         22    1    3    3    0    0  0.59594290848E+02  0.65056191987E+02  0.76380134429E+02  0.11669495513E+03  0.00000000000E+00 0.  1.
</event>
<event>
 7    1  0.6510186E-006  0.4608849E+02  0.7818608E-02  0.1587721E+00
          2   -1    0    0  502    0  0.00000000000E+00  0.00000000000E+00  0.20705386710E+03  0.20705386710E+03  0.00000000000E+00 0. -1.
          1   -1    0    0  501    0 -0.00000000000E+00 -0.00000000000E+00 -0.15241254562E+03  0.15241254562E+03  0.00000000000E+00 0. -1.
         25    2    1    2    0    0 -0.33190629848E+02 -0.20311212564E+02 -0.34237156715E+02  0.13532201014E+03  0.12500280102E+03 0.  0.
          2    1    1    2  501    0  0.83455634418E+01 -0.19048410110E+02 -0.62448873513E+02  0.65820605892E+02  0.00000000000E+00 0. -1.
          1    1    1    2  502    0  0.24845066406E+02  0.39359622675E+02  0.15132735171E+03  0.15832379669E+03  0.00000000000E+00 0. -1.
         22    1    3    3    0    0  0.48023347345E+02 -0.55343339627E+01 -0.11231420401E+02  0.49628777406E+02  0.00000000000E+00 0.  1.
         22    1    3    3    0    0 -0.81213977193E+02 -0.14776878602E+02 -0.23005736314E+02  0.85693232732E+02  0.00000000000E+00 0.  1.
</event>
<event>
 7    1  0.6510186E-006  0.3334756E+02  0.7818608E-02  0.1600185E+00
          2   -1    0    0  502    0  0.00000000000E+00  0.00000000000E+00  0.74728743385E+03  0.74728743385E+03  0.00000000000E+00 0. -1.
          1   -1    0    0  501    0 -0.00000000000E+00 -0.00000000000E+00 -0.40115461308E+02  0.40115461308E+02  0.00000000000E+00 0. -1.
         25    2    1    2    0    0 -0.36015139475E+02 -0.42911444951E+02  0.18027473823E+03  0.22640509570E+03  0.12498721429E+03 0.  0.
          2    1    1    2  501    0  0.26074432443E+02  0.18184932762E+02 -0.15994288488E+01  0.31829639951E+02  0.00000000000E+00 0. -1.
          1    1    1    2  502    0  0.99407070320E+01  0.24726512189E+02  0.52849666316E+03  0.52916815951E+03  0.00000000000E+00 0. -1.
         22    1    3    3    0    0 -0.62162408156E+02 -0.88614143308E+01  0.29014288878E+02  0.69170214766E+02  0.00000000000E+00 0.  1.
         22    1    3    3    0    0  0.26147268681E+02 -0.34050030621E+02  0.15126044935E+03  0.15723488093E+03  0.00000000000E+00 0.  1.
</event>
<event>
 7    1  0.6510186E-006  0.4586600E+02  0.7818608E-02  0.1502058E+00
          2   -1    0    0  502    0  0.00000000000E+00  0.00000000000E+00  0.56233339322E+02  0.56233339322E+02  0.00000000000E+00 0. -1.
          1   -1    0    0  501    0 -0.00000000000E+00 -0.00000000000E+00 -0.44618740382E+03  0.44618740382E+03  0.00000000000E+00 0. -1.
         25    2    1    2    0    0 -0.60348980232E+01  0.74702851419E+02 -0.88587921353E+02  0.17056278842E+03  0.12500763568E+03 0.  0.
          2    1    1    2  501    0  0.95194716582E+01 -0.35112444957E+02 -0.28745839296E+03  0.28975132755E+03  0.00000000000E+00 0. -1.
          1    1    1    2  502    0 -0.34845736350E+01 -0.39590406462E+02 -0.13907750184E+02  0.42106627179E+02  0.00000000000E+00 0. -1.
         22    1    3    3    0    0  0.18228279717E+02  0.55139376054E+01  0.27385483829E+02  0.33356235008E+02  0.00000000000E+00 0.  1.
         22    1    3    3    0    0 -0.24263177740E+02  0.69188913814E+02 -0.11597340518E+03  0.13720655341E+03  0.00000000000E+00 0.  1.
</event>
<event>
 7    1  0.6510186E-006  0.4834099E+02  0.7818608E-02  0.1459666E+00
          2   -1    0    0  502    0  0.00000000000E+00  0.00000000000E+00  0.84818261168E+02  0.84818261168E+02  0.00000000000E+00 0. -1.
          1   -1    0    0  501    0 -0.00000000000E+00 -0.00000000000E+00 -0.62359106550E+03  0.62359106550E+03  0.00000000000E+00 0. -1.
         25    2    1    2    0    0  0.19036002105E+01  0.29928941888E+02 -0.46461895076E+02  0.13668167725E+03  0.12499523170E+03 0.  0.
          2    1    1    2  501    0  0.46411382245E+02 -0.36354571192E+01 -0.51139147899E+03  0.51350606397E+03  0.00000000000E+00 0. -1.
          1    1    1    2  502    0 -0.48314982455E+02 -0.26293484768E+02  0.19080569730E+02  0.58221585448E+02  0.00000000000E+00 0. -1.
         22    1    3    3    0    0  0.23015959511E+02  0.52344549110E+02 -0.75261670627E+02  0.94519867115E+02  0.00000000000E+00 0.  1.
         22    1    3    3    0    0 -0.21112359301E+02 -0.22415607223E+02  0.28799775551E+02  0.42161810139E+02  0.00000000000E+00 0.  1.
</event>
<event>
 7    1  0.6510186E-006  0.3534720E+02  0.7818608E-02  0.1570719E+00
          2   -1    0    0  502    0  0.00000000000E+00  0.00000000000E+00  0.16775126716E+04  0.16775126716E+04  0.00000000000E+00 0. -1.
          1   -1    0    0  501    0 -0.00000000000E+00 -0.00000000000E+00 -0.20922836554E+03  0.20922836554E+03  0.00000000000E+00 0. -1.
         25    2    1    2    0    0 -0.40885351797E+02  0.11940374411E+02  0.53622497932E+03  0.55224687651E+03  0.12500079852E+03 0.  0.
          2    1    1    2  501    0  0.95238437009E+01 -0.28575281104E+02 -0.19981036380E+03  0.20206788901E+03  0.00000000000E+00 0. -1.
          1    1    1    2  502    0  0.31361508096E+02  0.16634906693E+02  0.11318696905E+04  0.11324262716E+04  0.00000000000E+00 0. -1.
         22    1    3    3    0    0  0.18239953324E+02 -0.35008497914E+02  0.73752481087E+02  0.83652371693E+02  0.00000000000E+00 0. -1.
         22    1    3    3    0    0 -0.59125305121E+02  0.46948872325E+02  0.46247249824E+03  0.46859450482E+03  0.00000000000E+00 0. -1.
</event>
<event>
 7    1  0.6510186E-006  0.6542867E+02  0.7818608E-02  0.1405950E+00
          2   -1    0    0  502    0  0.00000000000E+00  0.00000000000E+00  0.86768692267E+03  0.86768692267E+03  0.00000000000E+00 0. -1.
          1   -1    0    0  501    0 -0.00000000000E+00 -0.00000000000E+00 -0.27938184301E+02  0.27938184301E+02  0.00000000000E+00 0. -1.
         25    2    1    2    0    0 -0.58226785550E+02 -0.32814054592E+00  0.38286350811E+03  0.40694005342E+03  0.12500110001E+03 0.  0.
          2    1    1    2  501    0  0.90669712192E+01 -0.50802645100E+02  0.38640935261E+02  0.64468911843E+02  0.00000000000E+00 0. -1.
          1    1    1    2  502    0  0.49159814331E+02  0.51130785646E+02  0.41824429500E+03  0.42421614171E+03  0.00000000000E+00 0. -1.
         22    1    3    3    0    0  0.79661299655E+01  0.29264576197E+02  0.27682960489E+03  0.27848609443E+03  0.00000000000E+00 0.  1.
         22    1    3    3    0    0 -0.66192915516E+02 -0.29592716742E+02  0.10603390321E+03  0.12845395899E+03  0.00000000000E+00 0.  1.
</event>
<event>
 7    1  0.6510186E-006  0.6884733E+02  0.7818608E-02  0.1465408E+00
          2   -1    0    0  502    0  0.00000000000E+00  0.00000000000E+00  0.63087070847E+03  0.63087070847E+03  0.00000000000E+00 0. -1.
          1   -1    0    0  501    0 -0.00000000000E+00 -0.00000000000E+00 -0.64003210113E+03  0.64003210113E+03  0.00000000000E+00 0. -1.
         25    2    1    2    0    0 -0.55793874808E+02  0.71898019361E+02  0.22777858941E+03  0.27530206356E+03  0.12500343495E+03 0.  0.
          2    1    1    2  501    0  0.55467834561E+02 -0.40542763614E+02 -0.61370211950E+03  0.61753598100E+03  0.00000000000E+00 0. -1.
          1    1    1    2  502    0  0.32604024644E+00 -0.31355255747E+02  0.37676213743E+03  0.37806476504E+03  0.00000000000E+00 0. -1.
         22    1    3    3    0    0 -0.92171629331E+02  0.34831450502E+02  0.11707128219E+03  0.15301805224E+03  0.00000000000E+00 0.  1.
         22    1    3    3    0    0  0.36377754523E+02  0.37066568859E+02  0.11070730722E+03  0.12228401131E+03  0.00000000000E+00 0.  1.
</event>
<event>
 7    1  0.6510186E-006  0.8251298E+02  0.7818608E-02  0.1347618E+00
          2   -1    0    0  502    0  0.00000000000E+00  0.00000000000E+00  0.44762146579E+03  0.44762146579E+03  0.00000000000E+00 0. -1.
          1   -1    0    0  501    0 -0.00000000000E+00 -0.00000000000E+00 -0.11113940230E+04  0.11113940230E+04  0.00000000000E+00 0. -1.
         25    2    1    2    0    0 -0.30819683596E+02  0.14562865449E+02 -0.16972744516E+00  0.12956381977E+03  0.12499929856E+03 0.  0.
          2    1    1    2  501    0 -0.52065097573E+02 -0.40581791799E+02 -0.10405407081E+04  0.10426325438E+04  0.00000000000E+00 0. -1.
          1    1    1    2  502    0  0.82884781169E+02  0.26018926350E+02  0.37693787835E+03  0.38681912519E+03  0.00000000000E+00 0. -1.
         22    1    3    3    0    0 -0.77244341117E+02  0.94924159584E+01  0.17260234246E+02  0.79716434200E+02  0.00000000000E+00 0. -1.
         22    1    3    3    0    0  0.46424657521E+02  0.50704494907E+01 -0.17429961691E+02  0.49847385574E+02  0.00000000000E+00 0. -1.
</event>
<event>
 7    1  0.6510186E-006  0.9798706E+02  0.7818608E-02  0.1341379E+00
          2   -1    0    0  502    0  0.00000000000E+00  0.00000000000E+00  0.32508175847E+03  0.32508175847E+03  0.00000000000E+00 0. -1.
          1   -1    0    0  501    0 -0.00000000000E+00 -0.00000000000E+00 -0.24147700575E+03  0.24147700575E+03  0.00000000000E+00 0. -1.
         25    2    1    2    0    0  0.14010085057E+03  0.43568106305E+02 -0.37755143317E+02  0.19641292250E+03  0.12500462816E+03 0.  0.
          2    1    1    2  501    0 -0.84638129756E+02 -0.24487952490E+02 -0.10456164210E+03  0.13673481570E+03  0.00000000000E+00 0. -1.
          1    1    1    2  502    0 -0.55462720811E+02 -0.19080153815E+02  0.22592153815E+03  0.23341102602E+03  0.00000000000E+00 0. -1.
         22    1    3    3    0    0  0.12063707148E+03  0.21935026288E+02  0.26881934358E+02  0.12552723525E+03  0.00000000000E+00 0.  1.
         22    1    3    3    0    0  0.19463779087E+02  0.21633080017E+02 -0.64637077675E+02  0.70885687256E+02  0.00000000000E+00 0.  1.
</event>
<event>
 7    1  0.6510186E-006  0.1285581E+03  0.7818608E-02  0.1402028E+00
          2   -1    0    0  502    0  0.00000000000E+00  0.00000000000E+00  0.57483496480E+03  0.57483496480E+03  0.00000000000E+00 0. -1.
          1   -1    0    0  501    0 -0.00000000000E+00 -0.00000000000E+00 -0.21044678135E+04  0.21044678135E+04  0.00000000000E+00 0. -1.
         25    2    1    2    0    0 -0.82534377499E+02 -0.62181277629E+02 -0.12732292604E+03  0.20618829596E+03  0.12499620449E+03 0.  0.
          2    1    1    2  501    0  0.10031996199E+03  0.82612093110E+02 -0.19351888331E+04  0.19395475433E+04  0.00000000000E+00 0. -1.
          1    1    1    2  502    0 -0.17785584493E+02 -0.20430815482E+02  0.53287891048E+03  0.53356693907E+03  0.00000000000E+00 0. -1.
         22    1    3    3    0    0 -0.11280498515E+03 -0.42772253052E+02 -0.11862404927E+03  0.16919248025E+03  0.00000000000E+00 0. -1.
         22    1    3    3    0    0  0.30270607656E+02 -0.19409024577E+02 -0.86988767650E+01  0.36995815708E+02  0.00000000000E+00 0. -1.
</event>
<event>
 7    1  0.6510186E-006  0.1185005E+03  0.7818608E-02  0.1250100E+00
          2   -1    0    0  502    0  0.00000000000E+00  0.00000000000E+00  0.17165287954E+04  0.17165287954E+04  0.00000000000E+00 0. -1.
          1   -1    0    0  501    0 -0.00000000000E+00 -0.00000000000E+00 -0.49364489596E+03  0.49364489596E+03  0.00000000000E+00 0. -1.
         25    2    1    2    0    0  0.63565367165E+02 -0.13367090197E+03  0.26031806141E+03  0.32449785689E+03  0.12499960038E+03 0.  0.
          2    1    1    2  501    0  0.51669307367E+02  0.10079213840E+03 -0.45203468990E+03  0.46600872670E+03  0.00000000000E+00 0. -1.
          1    1    1    2  502    0 -0.11523467453E+03  0.32878763568E+02  0.14146005279E+04  0.14196671077E+04  0.00000000000E+00 0. -1.
         22    1    3    3    0    0  0.12030549584E+02 -0.65975017951E+02  0.20640300936E+02  0.70167365204E+02  0.00000000000E+00 0. -1.
         22    1    3    3    0    0  0.51534817581E+02 -0.67695884017E+02  0.23967776047E+03  0.25433049168E+03  0.00000000000E+00 0. -1.
</event>
<event>
 7    1  0.6510186E-006  0.5281728E+02  0.7818608E-02  0.1571291E+00
          2   -1    0    0  502    0  0.00000000000E+00  0.00000000000E+00  0.59939761707E+03  0.59939761707E+03  0.00000000000E+00 0. -1.
          1   -1    0    0  501    0 -0.00000000000E+00 -0.00000000000E+00 -0.35427039899E+03  0.35427039899E+03  0.00000000000E+00 0. -1.
         25    2    1    2    0    0  0.47655174801E+02 -0.19377744251E+02 -0.65366413717E+02  0.15014664350E+03  0.12499893541E+03 0.  0.
          2    1    1    2  501    0 -0.97950919400E+01 -0.17535609789E+02 -0.24484678937E+03  0.24566927301E+03  0.00000000000E+00 0. -1.
          1    1    1    2  502    0 -0.37860082862E+02  0.36913354040E+02  0.55534042118E+03  0.55785209955E+03  0.00000000000E+00 0. -1.
         22    1    3    3    0    0 -0.34867254831E+02  0.12489408189E+02 -0.46930243422E+02  0.59784266526E+02  0.00000000000E+00 0.  1.
         22    1    3    3    0    0  0.82522429633E+02 -0.31867152440E+02 -0.18436170295E+02  0.90362376974E+02  0.00000000000E+00 0.  1.
</event>
<event>
 7    1  0.6510186E-006  0.2871574E+03  0.7818608E-02  0.1243948E+00
          2   -1    0    0  502    0  0.00000000000E+00  0.00000000000E+00  0.27023396135E+04  0.27023396135E+04  0.00000000000E+00 0. -1.
          1   -1    0    0  501    0 -0.00000000000E+00 -0.00000000000E+00 -0.72203262705E+03  0.72203262705E+03  0.00000000000E+00 0. -1.
         25    2    1    2    0    0  0.20127458169E+03  0.21795722260E+03 -0.36333670270E+03  0.48544303927E+03  0.12499830692E+03 0.  0.
          2    1    1    2  501    0 -0.15378403656E+03 -0.23267190636E+03 -0.23201532689E+03  0.36279037725E+03  0.00000000000E+00 0. -1.
          1    1    1    2  502    0 -0.47490545123E+02  0.14714683755E+02  0.25756590160E+04  0.25761388240E+04  0.00000000000E+00 0. -1.
         22    1    3    3    0    0  0.64318114299E+02  0.45634574052E-01 -0.65316113386E+02  0.91667969201E+02  0.00000000000E+00 0. -1.
         22    1    3    3    0    0  0.13695646739E+03  0.21791158803E+03 -0.29802058931E+03  0.39377507007E+03  0.00000000000E+00 0. -1.
</event>
<event>
 7    1  0.6510186E-006  0.3829661E+02  0.7818608E-02  0.1542120E+00
          2   -1    0    0  502    0  0.00000000000E+00  0.00000000000E+00  0.12301057991E+03  0.12301057991E+03  0.00000000000E+00 0. -1.
          1   -1    0    0  501    0 -0.00000000000E+00 -0.00000000000E+00 -0.60819918692E+03  0.60819918692E+03  0.00000000000E+00 0. -1.
         25    2    1    2    0    0 -0.64340576509E+00 -0.36596778488E+02 -0.40798421171E+03  0.42826654249E+03  0.12498550412E+03 0.  0.
          2    1    1    2  501    0 -0.30336184681E+02  0.13866856191E+02 -0.18527065775E+03  0.18824927736E+03  0.00000000000E+00 0. -1.
          1    1    1    2  502    0  0.30979590446E+02  0.22729922297E+02  0.10806626246E+03  0.11469394698E+03  0.00000000000E+00 0. -1.
         22    1    3    3    0    0  0.48643981155E+02 -0.57245166458E+02 -0.20375962317E+03  0.21716636484E+03  0.00000000000E+00 0.  1.
         22    1    3    3    0    0 -0.49287386920E+02  0.20648387970E+02 -0.20422458854E+03  0.21110017764E+03  0.00000000000E+00 0.  1.
</event>
<event>
 7    1  0.6510186E-006  0.6667687E+02  0.7818608E-02  0.1391606E+00
          2   -1    0    0  502    0  0.00000000000E+00  0.00000000000E+00  0.48288530866E+03  0.48288530866E+03  0.00000000000E+00 0. -1.
          1   -1    0    0  501    0 -0.00000000000E+00 -0.00000000000E+00 -0.86650311545E+03  0.86650311545E+03  0.00000000000E+00 0. -1.
         25    2    1    2    0    0  0.12024714189E+03 -0.23149656971E+02 -0.93079438746E+02  0.19820201772E+03  0.12499990465E+03 0.  0.
          2    1    1    2  501    0 -0.55739171865E+02  0.10619988703E+02 -0.71722660296E+03  0.71946760833E+03  0.00000000000E+00 0. -1.
          1    1    1    2  502    0 -0.64507970022E+02  0.12529668268E+02  0.42668823491E+03  0.43171879806E+03  0.00000000000E+00 0. -1.
         22    1    3    3    0    0 -0.12452633000E+02 -0.36301677101E+02 -0.57633248599E+01  0.38808449369E+02  0.00000000000E+00 0. -1.
         22    1    3    3    0    0  0.13269977489E+03  0.13152020129E+02 -0.87316113886E+02  0.15939356835E+03  0.00000000000E+00 0. -1.
</event>
<event>
 7    1  0.6510186E-006  0.7037114E+02  0.7818608E-02  0.1365249E+00
          2   -1    0    0  502    0  0.00000000000E+00  0.00000000000E+00  0.15463211438E+04  0.15463211438E+04  0.00000000000E+00 0. -1.
          1   -1    0    0  501    0 -0.00000000000E+00 -0.00000000000E+00 -0.11348772928E+04  0.11348772928E+04  0.00000000000E+00 0. -1.
         25    2    1    2    0    0  0.23340381018E+02  0.11156076478E+03  0.19904875033E+03  0.26122060909E+03  0.12500089592E+03 0.  0.
          2    1    1    2  501    0  0.25020464925E+02 -0.65639295562E+02 -0.11018273736E+04  0.11040643559E+04  0.00000000000E+00 0. -1.
          1    1    1    2  502    0 -0.48360845943E+02 -0.45921469221E+02  0.13142224742E+04  0.13159134715E+04  0.00000000000E+00 0. -1.
         22    1    3    3    0    0  0.37271430759E+02  0.25445701113E+02  0.13706470740E+01  0.45149993681E+02  0.00000000000E+00 0.  1.
         22    1    3    3    0    0 -0.13931049741E+02  0.86115063669E+02  0.19767810325E+03  0.21607061541E+03  0.00000000000E+00 0.  1.
</event>
<event>
 7    1  0.6510186E-006  0.9549946E+02  0.7818608E-02  0.1424233E+00
          2   -1    0    0  502    0  0.00000000000E+00  0.00000000000E+00  0.16123339065E+04  0.16123339065E+04  0.00000000000E+00 0. -1.
          1   -1    0    0  501    0 -0.00000000000E+00 -0.00000000000E+00 -0.32611014382E+04  0.32611014382E+04  0.00000000000E+00 0. -1.
         25    2    1    2    0    0 -0.65292170935E+02 -0.18722396943E+02 -0.38409991638E+03  0.40960246534E+03  0.12501135195E+03 0.  0.
          2    1    1    2  501    0  0.95900078495E+02  0.16516000124E+02 -0.28632764136E+04  0.28649295670E+04  0.00000000000E+00 0. -1.
          1    1    1    2  502    0 -0.30607907560E+02  0.22063968193E+01  0.15986087983E+04  0.15989033123E+04  0.00000000000E+00 0. -1.
         22    1    3    3    0    0 -0.77122952613E+02 -0.14849582773E+02 -0.10968119744E+03  0.13490153817E+03  0.00000000000E+00 0.  1.
         22    1    3    3    0    0  0.11830781677E+02 -0.38728141700E+01 -0.27441871893E+03  0.27470092717E+03  0.00000000000E+00 0.  1.
</event>
<event>
 7    1  0.6510186E-006  0.4708368E+02  0.7818608E-02  0.1471603E+00
          2   -1    0    0  502    0  0.00000000000E+00  0.00000000000E+00  0.17009161635E+04  0.17009161635E+04  0.00000000000E+00 0. -1.
          1   -1    0    0  501    0 -0.00000000000E+00 -0.00000000000E+00 -0.15744710008E+02  0.15744710008E+02  0.00000000000E+00 0. -1.
         25    2    1    2    0    0  0.11433190095E+02  0.65424006933E+02  0.75963158100E+03  0.77270728026E+03  0.12500153437E+03 0.  0.
          2    1    1    2  501    0 -0.35641518990E+02 -0.25556031853E+02  0.47404164064E+02  0.64580054279E+02  0.00000000000E+00 0. -1.
          1    1    1    2  502    0  0.24208328896E+02 -0.39867975080E+02  0.87813570838E+03  0.87937353892E+03  0.00000000000E+00 0. -1.
         22    1    3    3    0    0  0.50465266485E+02  0.78385560511E+02  0.62558513451E+03  0.63249331992E+03  0.00000000000E+00 0.  1.
         22    1    3    3    0    0 -0.39032076391E+02 -0.12961553578E+02  0.13404644649E+03  0.14021396034E+03  0.00000000000E+00 0.  1.
</event>
<event>
 7    1  0.6510186E-006  0.6923659E+02  0.7818608E-02  0.1525894E+00
          2   -1    0    0  502    0  0.00000000000E+00  0.00000000000E+00  0.36040285537E+03  0.36040285537E+03  0.00000000000E+00 0. -1.
          1   -1    0    0  501    0 -0.00000000000E+00 -0.00000000000E+00 -0.14365568832E+04  0.14365568832E+04  0.00000000000E+00 0. -1.
         25    2    1    2    0    0 -0.24465552604E+02  0.60471849198E+02 -0.14782691664E+03  0.20429732820E+03  0.12501677173E+03 0.  0.
          2    1    1    2  501    0  0.43889305019E+02 -0.53846990948E+02 -0.12592194983E+04  0.12611342175E+04  0.00000000000E+00 0. -1.
          1    1    1    2  502    0 -0.19423752415E+02 -0.66248582496E+01  0.33089238707E+03  0.33152819296E+03  0.00000000000E+00 0. -1.
         22    1    3    3    0    0  0.74521795490E+01 -0.21387261544E+02 -0.10338262934E+03  0.10583438942E+03  0.00000000000E+00 0. -1.
         22    1    3    3    0    0 -0.31917732153E+02  0.81859110742E+02 -0.44444287308E+02  0.98462938772E+02  0.00000000000E+00 0. -1.
</event>
<event>
 7    1  0.6510186E-006  0.9787229E+02  0.7818608E-02  0.1366474E+00
          2   -1    0    0  502    0  0.00000000000E+00  0.00000000000E+00  0.10621638365E+03  0.10621638365E+03  0.00000000000E+00 0. -1.
          1   -1    0    0  501    0 -0.00000000000E+00 -0.00000000000E+00 -0.79974198273E+03  0.79974198273E+03  0.00000000000E+00 0. -1.
         25    2    1    2    0    0  0.56098835673E+02  0.72439355334E+02 -0.10942895338E+03  0.18972053541E+03  0.12499858461E+03 0.  0.
          2    1    1    2  501    0  0.36571513771E+02 -0.30254724919E+02 -0.60946067156E+03  0.61130608878E+03  0.00000000000E+00 0. -1.
          1    1    1    2  502    0 -0.92670349444E+02 -0.42184630415E+02  0.25364025859E+02  0.10493174218E+03  0.00000000000E+00 0. -1.
         22    1    3    3    0    0  0.11030785834E+02  0.64686766910E+01 -0.10907744800E+03  0.10982445846E+03  0.00000000000E+00 0. -1.
         22    1    3    3    0    0  0.45068049839E+02  0.65970678643E+02 -0.35150538091E+00  0.79896076956E+02  0.00000000000E+00 0. -1.
</event>
<event>
 7    1  0.6510186E-006  0.6760839E+02  0.7818608E-02  0.1471998E+00
          2   -1    0    0  502    0  0.00000000000E+00  0.00000000000E+00  0.44128660845E+04  0.44128660845E+04  0.00000000000E+00 0. -1.
          1   -1    0    0  501    0 -0.00000000000E+00 -0.00000000000E+00 -0.62301820863E+02  0.62301820863E+02  0.00000000000E+00 0. -1.
         25    2    1    2    0    0 -0.22403154161E+02 -0.45150791835E+02  0.35969067641E+04  0.35994309929E+04  0.12499883013E+03 0.  0.
          2    1    1    2  501    0  0.52742584761E+02  0.42480639365E+02 -0.41873768152E+02  0.79622844884E+02  0.00000000000E+00 0. -1.
          1    1    1    2  502    0 -0.30339430600E+02  0.26701524693E+01  0.79553126760E+03  0.79611406751E+03  0.00000000000E+00 0. -1.
         22    1    3    3    0    0 -0.50934021662E+02 -0.40623516264E+02  0.89434863501E+03  0.89671847621E+03  0.00000000000E+00 0. -1.
         22    1    3    3    0    0  0.28530867501E+02 -0.45272755703E+01  0.27025581291E+04  0.27027125167E+04  0.00000000000E+00 0. -1.
</event>
<event>
 7    1  0.6510186E-006  0.7828594E+02  0.7818608E-02  0.1340252E+00
          2   -1    0    0  502    0  0.00000000000E+00  0.00000000000E+00  0.51682512493E+03  0.51682512493E+03  0.00000000000E+00 0. -1.
          1   -1    0    0  501    0 -0.00000000000E+00 -0.00000000000E+00 -0.44582114452E+03  0.44582114452E+03  0.00000000000E+00 0. -1.
         25    2    1    2    0    0 -0.74730034004E+01  0.17331160549E+02  0.19308617141E+03  0.23079883356E+03  0.12501846694E+03 0.  0.
          2    1    1    2  501    0 -0.38224545210E+02  0.68319637475E+02 -0.41548771693E+03  0.42279868926E+03  0.00000000000E+00 0. -1.
          1    1    1    2  502    0  0.45697548610E+02 -0.85650798024E+02  0.29340552593E+03  0.30904874663E+03  0.00000000000E+00 0. -1.
         22    1    3    3    0    0  0.42196287488E+02  0.21667342894E+02  0.16880406643E+03  0.17534198946E+03  0.00000000000E+00 0.  1.
         22    1    3    3    0    0 -0.49669290889E+02 -0.43361823457E+01  0.24282104977E+02  0.55456844093E+02  0.00000000000E+00 0.  1.
</event>
<event>
 7    1  0.6510186E-006  0.2413289E+03  0.7818608E-02  0.1213346E+00
          2   -1    0    0  502    0  0.00000000000E+00  0.00000000000E+00  0.20816891313E+04  0.20816891313E+04  0.00000000000E+00 0. -1.
          1   -1    0    0  501    0 -0.00000000000E+00 -0.00000000000E+00 -0.32089192671E+04  0.32089192671E+04  0.00000000000E+00 0. -1.
         25    2    1    2    0    0 -0.16098996098E+03 -0.28755754143E+02  0.15884137504E+03  0.26000167262E+03  0.12500250560E+03 0.  0.
          2    1    1    2  501    0  0.23498696941E+03  0.62196868221E+02 -0.31527780516E+04  0.31621348435E+04  0.00000000000E+00 0. -1.
          1    1    1    2  502    0 -0.73997008424E+02 -0.33441114078E+02  0.18667065408E+04  0.18684718823E+04  0.00000000000E+00 0. -1.
         22    1    3    3    0    0 -0.17529499969E+03 -0.47547899479E+02  0.13388670371E+03  0.22564305682E+03  0.00000000000E+00 0.  1.
         22    1    3    3    0    0  0.14305038701E+02  0.18792145336E+02  0.24954671329E+02  0.34358615800E+02  0.00000000000E+00 0.  1.
</event>
<event>
 7    1  0.6510186E-006  0.7133467E+02  0.7818608E-02  0.1362622E+00
          2   -1    0    0  502    0  0.00000000000E+00  0.00000000000E+00  0.54599285741E+03  0.54599285741E+03  0.00000000000E+00 0. -1.
          1   -1    0    0  501    0 -0.00000000000E+00 -0.00000000000E+00 -0.40301638342E+03  0.40301638342E+03  0.00000000000E+00 0. -1.
         25    2    1    2    0    0 -0.30752037859E+02 -0.45870097364E+02 -0.27893881620E+03  0.31062785634E+03  0.12503218901E+03 0.  0.
          2    1    1    2  501    0 -0.19812314809E+02  0.96187900094E+02 -0.82919712576E+02  0.12853139179E+03  0.00000000000E+00 0. -1.
          1    1    1    2  502    0  0.50564352668E+02 -0.50317802730E+02  0.50483500277E+03  0.50984999270E+03  0.00000000000E+00 0. -1.
         22    1    3    3    0    0 -0.77864581544E+02 -0.33249099681E+02 -0.14276306853E+03  0.16598099116E+03  0.00000000000E+00 0. -1.
         22    1    3    3    0    0  0.47112543685E+02 -0.12620997684E+02 -0.13617574767E+03  0.14464686518E+03  0.00000000000E+00 0. -1.
</event>
<event>
 7    1  0.6510186E-006  0.2590837E+02  0.7818608E-02  0.1650372E+00
          2   -1    0    0  502    0  0.00000000000E+00  0.00000000000E+00  0.69949263287E+03  0.69949263287E+03  0.00000000000E+00 0. -1.
          1   -1    0    0  501    0 -0.00000000000E+00 -0.00000000000E+00 -0.89717201460E+03  0.89717201460E+03  0.00000000000E+00 0. -1.
         25    2    1    2    0    0 -0.38906845639E+02  0.32753662922E+02  0.25497969047E+03  0.28849265266E+03  0.12500729186E+03 0.  0.
          2    1    1    2  501    0  0.16961830386E+02 -0.19561621139E+02 -0.87984175648E+03  0.88022262932E+03  0.00000000000E+00 0. -1.
          1    1    1    2  502    0  0.21945015253E+02 -0.13192041784E+02  0.42718268429E+03  0.42794936549E+03  0.00000000000E+00 0. -1.
         22    1    3    3    0    0  0.97073739355E+01  0.20523733468E+02 -0.53953530122E+01  0.23335950341E+02  0.00000000000E+00 0.  1.
         22    1    3    3    0    0 -0.48614219575E+02  0.12229929454E+02  0.26037504348E+03  0.26515670232E+03  0.00000000000E+00 0.  1.
</event>
<event>
 7    1  0.6510186E-006  0.6468489E+02  0.7818608E-02  0.1389573E+00
          2   -1    0    0  502    0  0.00000000000E+00  0.00000000000E+00  0.14747269809E+04  0.14747269809E+04  0.00000000000E+00 0. -1.
          1   -1    0    0  501    0 -0.00000000000E+00 -0.00000000000E+00 -0.16572018920E+04  0.16572018920E+04  0.00000000000E+00 0. -1.
         25    2    1    2    0    0  0.67110025493E+01 -0.24408762531E+01  0.44547886324E+03  0.46273909379E+03  0.12500022358E+03 0.  0.
          2    1    1    2  501    0  0.35208802603E+02  0.54263022939E+02 -0.16468479074E+04  0.16481177644E+04  0.00000000000E+00 0. -1.
          1    1    1    2  502    0 -0.41919805152E+02 -0.51822146686E+02  0.10188941330E+04  0.10210720147E+04  0.00000000000E+00 0. -1.
         22    1    3    3    0    0  0.87391159222E+01 -0.62749512585E+02  0.26380363580E+03  0.27130468433E+03  0.00000000000E+00 0.  1.
         22    1    3    3    0    0 -0.20281133729E+01  0.60308636332E+02  0.18167522744E+03  0.19143440946E+03  0.00000000000E+00 0.  1.
</event>
<event>
 7    1  0.6510186E-006  0.3897186E+02  0.7818608E-02  0.1590191E+00
          2   -1    0    0  502    0  0.00000000000E+00  0.00000000000E+00  0.57191855975E+03  0.57191855975E+03  0.00000000000E+00 0. -1.
          1   -1    0    0  501    0 -0.00000000000E+00 -0.00000000000E+00 -0.28967245252E+04  0.28967245252E+04  0.00000000000E+00 0. -1.
         25    2    1    2    0    0  0.38975634649E+02 -0.35295115583E+02  0.11469193535E+03  0.17760613168E+03  0.12499941078E+03 0.  0.
          2    1    1    2  501    0 -0.14761660281E+02  0.36059687798E+02 -0.28647902253E+04  0.28650551902E+04  0.00000000000E+00 0. -1.
          1    1    1    2  502    0 -0.24213974367E+02 -0.76457221456E+00  0.42529232455E+03  0.42598176305E+03  0.00000000000E+00 0. -1.
         22    1    3    3    0    0 -0.57574050856E+01  0.44099742427E+02  0.36892145660E+02  0.57783781521E+02  0.00000000000E+00 0. -1.
         22    1    3    3    0    0  0.44733039734E+02 -0.79394858010E+02  0.77799789691E+02  0.11982235016E+03  0.00000000000E+00 0. -1.
</event>
<event>
 7    1  0.6510186E-006  0.1001428E+03  0.7818608E-02  0.1366737E+00
          2   -1    0    0  502    0  0.00000000000E+00  0.00000000000E+00  0.88435885968E+03  0.88435885968E+03  0.00000000000E+00 0. -1.
          1   -1    0    0  501    0 -0.00000000000E+00 -0.00000000000E+00 -0.84388308419E+03  0.84388308419E+03  0.00000000000E+00 0. -1.
         25    2    1    2    0    0 -0.58841409966E+02 -0.10915622755E+03 -0.10734773335E+02  0.17640038845E+03  0.12499787257E+03 0.  0.
          2    1    1    2  501    0  0.13792258314E+02  0.98525696209E+02 -0.74634375981E+03  0.75294524834E+03  0.00000000000E+00 0. -1.
          1    1    1    2  502    0  0.45049151653E+02  0.10630531346E+02  0.79755430862E+03  0.79889630708E+03  0.00000000000E+00 0. -1.
         22    1    3    3    0    0 -0.52983259549E+02 -0.39713522195E+02  0.50780455670E+02  0.83444857934E+02  0.00000000000E+00 0.  1.
         22    1    3    3    0    0 -0.58581504169E+01 -0.69442705360E+02 -0.61515229004E+02  0.92955530516E+02  0.00000000000E+00 0.  1.
</event>
<event>
 7    1  0.6510186E-006  0.1518623E+03  0.7818608E-02  0.1308134E+00
          2   -1    0    0  502    0  0.00000000000E+00  0.00000000000E+00  0.10303080318E+03  0.10303080318E+03  0.00000000000E+00 0. -1.
          1   -1    0    0  501    0 -0.00000000000E+00 -0.00000000000E+00 -0.83548977527E+03  0.83548977527E+03  0.00000000000E+00 0. -1.
         25    2    1    2    0    0  0.11996635480E+03 -0.69126415239E+02 -0.13276280703E+03  0.22895740688E+03  0.12500057466E+03 0.  0.
          2    1    1    2  501    0  0.39478891572E+02  0.32007894337E+02 -0.52867553206E+03  0.53111289420E+03  0.00000000000E+00 0. -1.
          1    1    1    2  502    0 -0.15944524638E+03  0.37118520901E+02 -0.71020633000E+02  0.17845027738E+03  0.00000000000E+00 0. -1.
         22    1    3    3    0    0  0.85864703231E+02  0.47593467697E+01 -0.17331440853E+02  0.87725580561E+02  0.00000000000E+00 0.  1.
         22    1    3    3    0    0  0.34101651574E+02 -0.73885762008E+02 -0.11543136618E+03  0.14123182632E+03  0.00000000000E+00 0.  1.
</event>
<event>
 7    1  0.6510186E-006  0.2008255E+03  0.7818608E-02  0.1377822E+00
          2   -1    0    0  502    0  0.00000000000E+00  0.00000000000E+00  0.10636189266E+03  0.10636189266E+03  0.00000000000E+00 0. -1.
          1   -1    0    0  501    0 -0.00000000000E+00 -0.00000000000E+00 -0.14468770853E+04  0.14468770853E+04  0.00000000000E+00 0. -1.
         25    2    1    2    0    0 -0.18631358684E+03 -0.30415992328E+02 -0.64513333499E+03  0.68371030843E+03  0.12499952279E+03 0.  0.
          2    1    1    2  501    0  0.20737691299E+03  0.30582558097E+02 -0.76686930603E+03  0.79500252165E+03  0.00000000000E+00 0. -1.
          1    1    1    2  502    0 -0.21063326142E+02 -0.16656576933E+00  0.71487448345E+02  0.74526147916E+02  0.00000000000E+00 0. -1.
         22    1    3    3    0    0 -0.17386505594E+03  0.11539795396E+02 -0.57696593521E+03  0.60270383684E+03  0.00000000000E+00 0. -1.
         22    1    3    3    0    0 -0.12448530907E+02 -0.41955787723E+02 -0.68167399785E+02  0.81006471585E+02  0.00000000000E+00 0. -1.
</event>
<event>
 7    1  0.6510186E-006  0.4340762E+02  0.7818608E-02  0.1539329E+00
          2   -1    0    0  502    0  0.00000000000E+00  0.00000000000E+00  0.18084717649E+04  0.18084717649E+04  0.00000000000E+00 0. -1.
          1   -1    0    0  501    0 -0.00000000000E+00 -0.00000000000E+00 -0.18812578828E+03  0.18812578828E+03  0.00000000000E+00 0. -1.
         25    2    1    2    0    0 -0.42780687756E+02 -0.36737989948E+02  0.49165513387E+02  0.14567665945E+03  0.12499829700E+03 0.  0.
          2    1    1    2  501    0 -0.68775638099E-01  0.29966859260E+02 -0.13798673527E+03  0.14120324534E+03  0.00000000000E+00 0. -1.
          1    1    1    2  502    0  0.42849463394E+02  0.67711306875E+01  0.17091671985E+04  0.17097176483E+04  0.00000000000E+00 0. -1.
         22    1    3    3    0    0 -0.70435039505E+02  0.20667749966E+02  0.25696994519E+02  0.77772657188E+02  0.00000000000E+00 0. -1.
         22    1    3    3    0    0  0.27654351749E+02 -0.57405739914E+02  0.23468518868E+02  0.67904002265E+02  0.00000000000E+00 0. -1.
</event>
<event>
 7    1  0.6510186E-006  0.1144101E+03  0.7818608E-02  0.1394231E+00
          2   -1    0    0  502    0  0.00000000000E+00  0.00000000000E+00  0.11643944532E+03  0.11643944532E+03  0.00000000000E+00 0. -1.
          1   -1    0    0  501    0 -0.00000000000E+00 -0.00000000000E+00 -0.24337513900E+04  0.24337513900E+04  0.00000000000E+00 0. -1.
         25    2    1    2    0    0 -0.67091974928E+02  0.55800845003E+02 -0.86603769338E+03  0.87935259568E+03  0.12499853508E+03 0.  0.
          2    1    1    2  501    0 -0.87343210361E+01  0.31180930651E+02 -0.15305151210E+04  0.15308576271E+04  0.00000000000E+00 0. -1.
          1    1    1    2  502    0  0.75826295964E+02 -0.86981775654E+02  0.79240869707E+02  0.13998061254E+03  0.00000000000E+00 0. -1.
         22    1    3    3    0    0 -0.77845305715E+02  0.48197947044E+02 -0.31195970910E+03  0.32511812287E+03  0.00000000000E+00 0. -1.
         22    1    3    3    0    0  0.10753330787E+02  0.76028979588E+01 -0.55407798428E+03  0.55423447280E+03  0.00000000000E+00 0. -1.
</event>
<event>
 7    1  0.6510186E-006  0.1239909E+03  0.7818608E-02  0.1240387E+00
          2   -1    0    0  502    0  0.00000000000E+00  0.00000000000E+00  0.33761929521E+03  0.33761929521E+03  0.00000000000E+00 0. -1.
          1   -1    0    0  501    0 -0.00000000000E+00 -0.00000000000E+00 -0.56704919941E+03  0.56704919941E+03  0.00000000000E+00 0. -1.
         25    2    1    2    0    0 -0.32318906429E+02 -0.13213149783E+03 -0.20628529324E+03  0.27691171346E+03  0.12499292144E+03 0.  0.
          2    1    1    2  501    0  0.12338535546E+03  0.54957481349E+02 -0.29850172409E+03  0.32763935963E+03  0.00000000000E+00 0. -1.
          1    1    1    2  502    0 -0.91066449030E+02  0.77174016484E+02  0.27535711313E+03  0.30011742153E+03  0.00000000000E+00 0. -1.
         22    1    3    3    0    0  0.32978883840E+02 -0.93587856335E+00 -0.15809110163E+02  0.36584294611E+02  0.00000000000E+00 0.  1.
         22    1    3    3    0    0 -0.65297790269E+02 -0.13119561927E+03 -0.19047618308E+03  0.24032741885E+03  0.00000000000E+00 0.  1.
</event>
<event>
 7    1  0.6510186E-006  0.1144918E+03  0.7818608E-02  0.1288641E+00
          2   -1    0    0  502    0  0.00000000000E+00  0.00000000000E+00  0.39285778043E+04  0.39285778043E+04  0.00000000000E+00 0. -1.
          1   -1    0    0  501    0 -0.00000000000E+00 -0.00000000000E+00 -0.70132148456E+03  0.70132148456E+03  0.00000000000E+00 0. -1.
         25    2    1    2    0    0  0.94876189057E+02  0.14570376944E+03  0.33034418650E+03  0.39367115356E+03  0.12497446105E+03 0.  0.
          2    1    1    2  501    0 -0.21623604706E+02 -0.11179318483E+03 -0.66435707190E+03  0.67404422365E+03  0.00000000000E+00 0. -1.
          1    1    1    2  502    0 -0.73252584351E+02 -0.33910584617E+02  0.35612692051E+04  0.35621839116E+04  0.00000000000E+00 0. -1.
         22    1    3    3    0    0  0.30338758362E+02  0.63406027489E+02  0.31446105860E+02  0.77004039859E+02  0.00000000000E+00 0.  1.
         22    1    3    3    0    0  0.64537430695E+02  0.82297741955E+02  0.29889808064E+03  0.31666711370E+03  0.00000000000E+00 0.  1.
</event>
<event>
 7    1  0.6510186E-006  0.7245031E+02  0.7818608E-02  0.1434766E+00
          2   -1    0    0  502    0  0.00000000000E+00  0.00000000000E+00  0.21635756302E+03  0.21635756302E+03  0.00000000000E+00 0. -1.
          1   -1    0    0  501    0 -0.00000000000E+00 -0.00000000000E+00 -0.12586580810E+04  0.12586580810E+04  0.00000000000E+00 0. -1.
         25    2    1    2    0    0  0.74504629622E+02 -0.40006639982E+02 -0.39897085718E+02  0.15610994493E+03  0.12500826525E+03 0.  0.
          2    1    1    2  501    0 -0.32422562875E+02 -0.18529269135E+02 -0.11521257045E+04  0.11527307558E+04  0.00000000000E+00 0. -1.
          1    1    1    2  502    0 -0.42082066747E+02  0.58535909116E+02  0.14972227220E+03  0.16617494333E+03  0.00000000000E+00 0. -1.
         22    1    3    3    0    0  0.12206725742E+02 -0.30972628101E+02  0.41505301489E+02  0.53207122611E+02  0.00000000000E+00 0.  1.
         22    1    3    3    0    0  0.62297903880E+02 -0.90340118801E+01 -0.81402387207E+02  0.10290282232E+03  0.00000000000E+00 0.  1.
</event>
<event>
 7    1  0.1461214E-005  0.1030260E+03  0.7818608E-02  0.1306817E+00
          2   -1    0    0  502    0  0.00000000000E+00  0.00000000000E+00  0.87154848188E+03  0.87154848188E+03  0.00000000000E+00 0. -1.
          1   -1    0    0  501    0 -0.00000000000E+00 -0.00000000000E+00 -0.15647345389E+04  0.15647345389E+04  0.00000000000E+00 0. -1.
         25    2    1    2    0    0 -0.14784975401E+02 -0.24100129990E+02 -0.31152236097E+03  0.33685349843E+03  0.12499874504E+03 0.  0.
          2    1    1    2  501    0 -0.50706839048E+02 -0.56368953484E+02 -0.12362476684E+04  0.12385705228E+04  0.00000000000E+00 0. -1.
          1    1    1    2  502    0  0.65491814449E+02  0.80469083474E+02  0.85458397237E+03  0.86085899948E+03  0.00000000000E+00 0. -1.
         22    1    3    3    0    0 -0.14544881612E+02  0.40312769948E+02 -0.22467598700E+03  0.22872685050E+03  0.00000000000E+00 0. -1.
         22    1    3    3    0    0 -0.24009378930E+00 -0.64412899938E+02 -0.86846373962E+02  0.10812664794E+03  0.00000000000E+00 0. -1.
</event>
<event>
 7    1  0.6510186E-006  0.9836040E+02  0.7818608E-02  0.1350836E+00
          2   -1    0    0  502    0  0.00000000000E+00  0.00000000000E+00  0.17239690545E+04  0.17239690545E+04  0.00000000000E+00 0. -1.
          1   -1    0    0  501    0 -0.00000000000E+00 -0.00000000000E+00 -0.61412191372E+03  0.61412191372E+03  0.00000000000E+00 0. -1.
         25    2    1    2    0    0 -0.89476433518E+02  0.10237222665E+03  0.63206114018E+01  0.18478471511E+03  0.12497734141E+03 0.  0.
          2    1    1    2  501    0  0.37160312040E+02 -0.89503863465E+02 -0.51996597084E+03  0.52892007071E+03  0.00000000000E+00 0. -1.
          1    1    1    2  502    0  0.52316121477E+02 -0.12868363183E+02  0.16234925002E+04  0.16243861824E+04  0.00000000000E+00 0. -1.
         22    1    3    3    0    0 -0.55930014923E+02  0.79710304931E+02 -0.54600959206E+02  0.11163854186E+03  0.00000000000E+00 0. -1.
         22    1    3    3    0    0 -0.33546418594E+02  0.22661921717E+02  0.60921570607E+02  0.73146173254E+02  0.00000000000E+00 0. -1.
</event>
<event>
 7    1  0.6510186E-006  0.4827721E+02  0.7818608E-02  0.1503460E+00
          2   -1    0    0  502    0  0.00000000000E+00  0.00000000000E+00  0.96346440470E+03  0.96346440470E+03  0.00000000000E+00 0. -1.
          1   -1    0    0  501    0 -0.00000000000E+00 -0.00000000000E+00 -0.56032084722E+02  0.56032084722E+02  0.00000000000E+00 0. -1.
         25    2    1    2    0    0 -0.78049273671E+01 -0.66946091959E+02  0.22513522754E+03  0.26618277788E+03  0.12499881777E+03 0.  0.
          2    1    1    2  501    0 -0.17690314929E+02  0.44101229958E+02 -0.19004920757E+02  0.51176681595E+02  0.00000000000E+00 0. -1.
          1    1    1    2  502    0  0.25495242296E+02  0.22844862001E+02  0.70130201320E+03  0.70213702994E+03  0.00000000000E+00 0. -1.
         22    1    3    3    0    0  0.22634776700E+02  0.27680670172E+02  0.10106590561E+03  0.10720480350E+03  0.00000000000E+00 0.  1.
         22    1    3    3    0    0 -0.30439704067E+02 -0.94626762131E+02  0.12406932192E+03  0.15897797438E+03  0.00000000000E+00 0.  1.
</event>
<event>
 7    1  0.6510186E-006  0.3383804E+02  0.7818608E-02  0.1565617E+00
          2   -1    0    0  502    0  0.00000000000E+00  0.00000000000E+00  0.24079529739E+04  0.24079529739E+04  0.00000000000E+00 0. -1.
          1   -1    0    0  501    0 -0.00000000000E+00 -0.00000000000E+00 -0.10406712275E+02  0.10406712275E+02  0.00000000000E+00 0. -1.
         25    2    1    2    0    0 -0.20080982825E+02  0.19235434016E+02  0.75377503689E+03  0.76457501294E+03  0.12499958551E+03 0.  0.
          2    1    1    2  501    0 -0.12786399313E+02 -0.29864784923E+02  0.49925702592E+02  0.59564865191E+02  0.00000000000E+00 0. -1.
          1    1    1    2  502    0  0.32867382139E+02  0.10629350907E+02  0.15938455221E+04  0.15942198080E+04  0.00000000000E+00 0. -1.
         22    1    3    3    0    0 -0.63777904399E+02 -0.12744616363E+02  0.54599225131E+03  0.54985233002E+03  0.00000000000E+00 0.  1.
         22    1    3    3    0    0  0.43696921574E+02  0.31980050378E+02  0.20778278558E+03  0.21472268292E+03  0.00000000000E+00 0.  1.
</event>
<event>
 7    1  0.6510186E-006  0.5089225E+02  0.7818608E-02  0.1473581E+00
          2   -1    0    0  502    0  0.00000000000E+00  0.00000000000E+00  0.11964709357E+04  0.11964709357E+04  0.00000000000E+00 0. -1.
          1   -1    0    0  501    0 -0.00000000000E+00 -0.00000000000E+00 -0.18556824043E+02  0.18556824043E+02  0.00000000000E+00 0. -1.
         25    2    1    2    0    0 -0.28470910647E+02  0.10320738554E+02  0.52264094381E+03  0.53823374649E+03  0.12499959728E+03 0.  0.
          2    1    1    2  501    0  0.23011273303E+02 -0.49952710038E+02  0.64910631966E+02  0.85077506319E+02  0.00000000000E+00 0. -1.
          1    1    1    2  502    0  0.54596373439E+01  0.39631971484E+02  0.59036253585E+03  0.59171650691E+03  0.00000000000E+00 0. -1.
         22    1    3    3    0    0  0.15067481675E+02  0.37554451457E+02  0.57752743729E+02  0.70517694492E+02  0.00000000000E+00 0.  1.
         22    1    3    3    0    0 -0.43538392322E+02 -0.27233712903E+02  0.46488820008E+03  0.46771605200E+03  0.00000000000E+00 0.  1.
</event>
<event>
 7    1  0.6510186E-006  0.1580994E+03  0.7818608E-02  0.1245086E+00
          2   -1    0    0  502    0  0.00000000000E+00  0.00000000000E+00  0.39840408764E+03  0.39840408764E+03  0.00000000000E+00 0. -1.
          1   -1    0    0  501    0 -0.00000000000E+00 -0.00000000000E+00 -0.25947509291E+04  0.25947509291E+04  0.00000000000E+00 0. -1.
         25    2    1    2    0    0 -0.21141695041E+02 -0.76899744642E+02 -0.14389517899E+03  0.20661346006E+03  0.12499102906E+03 0.  0.
          2    1    1    2  501    0  0.77782718644E+02  0.14590265082E+03 -0.24111950571E+04  0.24168573268E+04  0.00000000000E+00 0. -1.
          1    1    1    2  502    0 -0.56641023603E+02 -0.69002906174E+02  0.35874339462E+03  0.36968422985E+03  0.00000000000E+00 0. -1.
         22    1    3    3    0    0 -0.42818771216E+01 -0.66525385912E+02 -0.55880891733E+01  0.66896847332E+02  0.00000000000E+00 0.  1.
         22    1    3    3    0    0 -0.16859817919E+02 -0.10374358731E+02 -0.13830708981E+03  0.13971661273E+03  0.00000000000E+00 0.  1.
</event>
<event>
 7    1  0.6510186E-006  0.8252061E+02  0.7818608E-02  0.1358793E+00
          2   -1    0    0  502    0  0.00000000000E+00  0.00000000000E+00  0.74778998242E+02  0.74778998242E+02  0.00000000000E+00 0. -1.
          1   -1    0    0  501    0 -0.00000000000E+00 -0.00000000000E+00 -0.30588455626E+04  0.30588455626E+04  0.00000000000E+00 0. -1.
         25    2    1    2    0    0  0.56244903786E+02  0.21093672038E+02 -0.24562786892E+03  0.28206160273E+03  0.12496905834E+03 0.  0.
          2    1    1    2  501    0 -0.75993174239E+02  0.35596874698E+02 -0.27782583042E+04  0.27795253740E+04  0.00000000000E+00 0. -1.
          1    1    1    2  502    0  0.19748270453E+02 -0.56690546737E+02  0.39819608776E+02  0.72037584067E+02  0.00000000000E+00 0. -1.
         22    1    3    3    0    0  0.33788049548E+02 -0.39697573169E+02 -0.18881177509E+03  0.19587602207E+03  0.00000000000E+00 0.  1.
         22    1    3    3    0    0  0.22456854238E+02  0.60791245207E+02 -0.56816093825E+02  0.86185580660E+02  0.00000000000E+00 0.  1.
</event>
<event>
 7    1  0.6510186E-006  0.6757453E+02  0.7818608E-02  0.1466199E+00
          2   -1    0    0  502    0  0.00000000000E+00  0.00000000000E+00  0.49174512367E+03  0.49174512367E+03  0.00000000000E+00 0. -1.
          1   -1    0    0  501    0 -0.00000000000E+00 -0.00000000000E+00 -0.14246398940E+03  0.14246398940E+03  0.00000000000E+00 0. -1.
         25    2    1    2    0    0  0.35708707992E+02 -0.83506936921E+01 -0.51278802299E+02  0.14000034312E+03  0.12500293835E+03 0.  0.
          2    1    1    2  501    0  0.30710515460E+02 -0.81203945180E+01 -0.38462980257E+02  0.49884641096E+02  0.00000000000E+00 0. -1.
          1    1    1    2  502    0 -0.66419223452E+02  0.16471088210E+02  0.43902291682E+03  0.44432412886E+03  0.00000000000E+00 0. -1.
         22    1    3    3    0    0  0.48606980379E+02  0.10162100481E+02  0.28388362416E+02  0.57199702346E+02  0.00000000000E+00 0.  1.
         22    1    3    3    0    0 -0.12898272388E+02 -0.18512794174E+02 -0.79667164714E+02  0.82800640772E+02  0.00000000000E+00 0.  1.
</event>
<event>
 7    1  0.6510186E-006  0.1196278E+03  0.7818608E-02  0.1398621E+00
          2   -1    0    0  502    0  0.00000000000E+00  0.00000000000E+00  0.18433248970E+04  0.18433248970E+04  0.00000000000E+00 0. -1.
          1   -1    0    0  501    0 -0.00000000000E+00 -0.00000000000E+00 -0.87198761658E+03  0.87198761658E+03  0.00000000000E+00 0. -1.
         25    2    1    2    0    0 -0.96566135614E+02  0.11070765294E+03 -0.67194969348E+02  0.20425781879E+03  0.12499955866E+03 0.  0.
          2    1    1    2  501    0  0.81844105396E+02 -0.84676954161E+02 -0.73142495662E+03  0.74084486319E+03  0.00000000000E+00 0. -1.
          1    1    1    2  502    0  0.14722030218E+02 -0.26030698779E+02  0.17699572064E+04  0.17702098316E+04  0.00000000000E+00 0. -1.
         22    1    3    3    0    0 -0.70792484805E+02  0.13174685738E+03 -0.78762714398E+02  0.16903365202E+03  0.00000000000E+00 0. -1.
         22    1    3    3    0    0 -0.25773650809E+02 -0.21039204440E+02  0.11567745051E+02  0.35224166776E+02  0.00000000000E+00 0. -1.
</event>
<event>
 7    1  0.6510186E-006  0.1708006E+03  0.7818608E-02  0.1211103E+00
          2   -1    0    0  502    0  0.00000000000E+00  0.00000000000E+00  0.76629388762E+03  0.76629388762E+03  0.00000000000E+00 0. -1.
          1   -1    0    0  501    0 -0.00000000000E+00 -0.00000000000E+00 -0.68323037868E+03  0.68323037868E+03  0.00000000000E+00 0. -1.
         25    2    1    2    0    0  0.30730525941E+02  0.27813460257E+03  0.22021592623E+02  0.30726739385E+03  0.12500031364E+03 0.  0.
          2    1    1    2  501    0 -0.14287415573E+02 -0.11663096427E+03 -0.52301849979E+03  0.53605527997E+03  0.00000000000E+00 0. -1.
          1    1    1    2  502    0 -0.16443110368E+02 -0.16150363830E+03  0.58406041611E+03  0.60620159248E+03  0.00000000000E+00 0. -1.
         22    1    3    3    0    0  0.20910730179E+02  0.28529576876E+03  0.46904576066E+01  0.28609951887E+03  0.00000000000E+00 0. -1.
         22    1    3    3    0    0  0.98197957626E+01 -0.71611661893E+01  0.17331135016E+02  0.21167874975E+02  0.00000000000E+00 0. -1.
</event>
<event>
 7    1  0.6510186E-006  0.2337260E+03  0.7818608E-02  0.1281727E+00
          2   -1    0    0  502    0  0.00000000000E+00  0.00000000000E+00  0.10584400015E+04  0.10584400015E+04  0.00000000000E+00 0. -1.
          1   -1    0    0  501    0 -0.00000000000E+00 -0.00000000000E+00 -0.46593441243E+03  0.46593441243E+03  0.00000000000E+00 0. -1.
         25    2    1    2    0    0  0.11854915633E+03  0.15653962761E+03  0.26621208545E+03  0.35362869640E+03  0.12500329198E+03 0.  0.
          2    1    1    2  501    0 -0.13632822146E+03 -0.19481975155E+03 -0.38807635611E+03  0.45513006683E+03  0.00000000000E+00 0. -1.
          1    1    1    2  502    0  0.17779065134E+02  0.38280123938E+02  0.71436985974E+03  0.71561565072E+03  0.00000000000E+00 0. -1.
         22    1    3    3    0    0  0.64448127527E+01  0.95494970905E+02  0.66273917134E+02  0.11641759820E+03  0.00000000000E+00 0.  1.
         22    1    3    3    0    0  0.11210434357E+03  0.61044656702E+02  0.19993816832E+03  0.23721109820E+03  0.00000000000E+00 0.  1.
</event>
<event>
 7    1  0.6510186E-006  0.3172376E+02  0.7818608E-02  0.1636932E+00
          2   -1    0    0  502    0  0.00000000000E+00  0.00000000000E+00  0.23228998018E+03  0.23228998018E+03  0.00000000000E+00 0. -1.
          1   -1    0    0  501    0 -0.00000000000E+00 -0.00000000000E+00 -0.81647454385E+03  0.81647454385E+03  0.00000000000E+00 0. -1.
         25    2    1    2    0    0 -0.51877408476E+02  0.15873664775E+02  0.12774706323E+03  0.18678250078E+03  0.12500060677E+03 0.  0.
          2    1    1    2  501    0  0.30302449226E+02 -0.92334690776E+01 -0.78493208164E+03  0.78557104591E+03  0.00000000000E+00 0. -1.
          1    1    1    2  502    0  0.21574959250E+02 -0.66401956976E+01  0.73000454747E+02  0.76410977345E+02  0.00000000000E+00 0. -1.
         22    1    3    3    0    0 -0.83550782635E+02  0.18262821338E+02  0.12925033914E+03  0.15498359297E+03  0.00000000000E+00 0.  1.
         22    1    3    3    0    0  0.31673374160E+02 -0.23891565624E+01 -0.15032759100E+01  0.31798907815E+02  0.00000000000E+00 0.  1.
</event>
<event>
 7    1  0.6510186E-006  0.8523307E+02  0.7818608E-02  0.1317896E+00
          2   -1    0    0  502    0  0.00000000000E+00  0.00000000000E+00  0.87393028487E+03  0.87393028487E+03  0.00000000000E+00 0. -1.
          1   -1    0    0  501    0 -0.00000000000E+00 -0.00000000000E+00 -0.46568753325E+03  0.46568753325E+03  0.00000000000E+00 0. -1.
         25    2    1    2    0    0 -0.38626426687E+02 -0.35435381849E+02  0.45260444913E+02  0.14289943085E+03  0.12499628930E+03 0.  0.
          2    1    1    2  501    0 -0.42303254503E+02  0.71308710184E+02 -0.41019458766E+03  0.41849025942E+03  0.00000000000E+00 0. -1.
          1    1    1    2  502    0  0.80929681189E+02 -0.35873328335E+02  0.77317689436E+03  0.77822812784E+03  0.00000000000E+00 0. -1.
         22    1    3    3    0    0 -0.17280782763E+02 -0.64552854001E+02  0.71803357886E+02  0.98088830232E+02  0.00000000000E+00 0. -1.
         22    1    3    3    0    0 -0.21345643924E+02  0.29117472152E+02 -0.26542912973E+02  0.44810600622E+02  0.00000000000E+00 0. -1.
</event>
<event>
 7    1  0.6510186E-006  0.6171076E+02  0.7818608E-02  0.1425371E+00
          2   -1    0    0  502    0  0.00000000000E+00  0.00000000000E+00  0.24831297125E+02  0.24831297125E+02  0.00000000000E+00 0. -1.
          1   -1    0    0  501    0 -0.00000000000E+00 -0.00000000000E+00 -0.12416024921E+04  0.12416024921E+04  0.00000000000E+00 0. -1.
         25    2    1    2    0    0  0.36529553954E+02 -0.22416560194E+02 -0.63625303252E+03  0.64982994888E+03  0.12499652229E+03 0.  0.
          2    1    1    2  501    0 -0.21979904912E+02  0.67190560646E+02 -0.56133138622E+03  0.56576551045E+03  0.00000000000E+00 0. -1.
          1    1    1    2  502    0 -0.14549649042E+02 -0.44774000453E+02 -0.19186776227E+02  0.50838329888E+02  0.00000000000E+00 0. -1.
         22    1    3    3    0    0 -0.22754851502E+02 -0.30568109509E+02 -0.49445931132E+03  0.49592560242E+03  0.00000000000E+00 0. -1.
         22    1    3    3    0    0  0.59284405455E+02  0.81515493150E+01 -0.14179372120E+03  0.15390434645E+03  0.00000000000E+00 0. -1.
</event>
<event>
 7    1  0.6510186E-006  0.7645161E+02  0.7818608E-02  0.1466942E+00
          2   -1    0    0  502    0  0.00000000000E+00  0.00000000000E+00  0.38358540677E+03  0.38358540677E+03  0.00000000000E+00 0. -1.
          1   -1    0    0  501    0 -0.00000000000E+00 -0.00000000000E+00 -0.46149539391E+03  0.46149539391E+03  0.00000000000E+00 0. -1.
         25    2    1    2    0    0 -0.75538944278E+02 -0.68283723644E+02 -0.98981427570E+02  0.18918569209E+03  0.12500041628E+03 0.  0.
          2    1    1    2  501    0  0.56387362040E+02  0.47956883609E+02 -0.31250467497E+03  0.32115194093E+03  0.00000000000E+00 0. -1.
          1    1    1    2  502    0  0.19151582238E+02  0.20326840035E+02  0.33357611541E+03  0.33474316766E+03  0.00000000000E+00 0. -1.
         22    1    3    3    0    0 -0.36872579178E+02 -0.72672930772E+02 -0.11992512805E+03  0.14499302845E+03  0.00000000000E+00 0.  1.
         22    1    3    3    0    0 -0.38666365100E+02  0.43892071280E+01  0.20943700480E+02  0.44192663634E+02  0.00000000000E+00 0.  1.
</event>
<event>
 7    1  0.6510186E-006  0.1196977E+03  0.7818608E-02  0.1421742E+00
          2   -1    0    0  502    0  0.00000000000E+00  0.00000000000E+00  0.83642502415E+02  0.83642502415E+02  0.00000000000E+00 0. -1.
          1   -1    0    0  501    0 -0.00000000000E+00 -0.00000000000E+00 -0.12236804807E+04  0.12236804807E+04  0.00000000000E+00 0. -1.
         25    2    1    2    0    0 -0.78903090212E+02 -0.10310259695E+03 -0.16792347951E+03  0.24633479007E+03  0.12500676257E+03 0.  0.
          2    1    1    2  501    0 -0.66158293301E+01  0.24062126198E+02 -0.93980728051E+03  0.94013854277E+03  0.00000000000E+00 0. -1.
          1    1    1    2  502    0  0.85518919542E+02  0.79040470748E+02 -0.32307218258E+02  0.12084965026E+03  0.00000000000E+00 0. -1.
         22    1    3    3    0    0 -0.10296117280E+02  0.29327649644E+02 -0.29057521025E+02  0.42549507551E+02  0.00000000000E+00 0. -1.
         22    1    3    3    0    0 -0.68606972931E+02 -0.13243024659E+03 -0.13886595848E+03  0.20378528252E+03  0.00000000000E+00 0. -1.
</event>
<event>
 7    1  0.6510186E-006  0.9462030E+02  0.7818608E-02  0.1306777E+00
          2   -1    0    0  502    0  0.00000000000E+00  0.00000000000E+00  0.49269040708E+03  0.49269040708E+03  0.00000000000E+00 0. -1.
          1   -1    0    0  501    0 -0.00000000000E+00 -0.00000000000E+00 -0.38590980742E+03  0.38590980742E+03  0.00000000000E+00 0. -1.
         25    2    1    2    0    0  0.14430090982E+01 -0.20414429529E+02  0.12087446660E+03  0.17508381795E+03  0.12499950170E+03 0.  0.
          2    1    1    2  501    0  0.52241595196E+02  0.83170538576E+02 -0.34694174237E+03  0.36057606043E+03  0.00000000000E+00 0. -1.
          1    1    1    2  502    0 -0.53684604294E+02 -0.62756109048E+02  0.33284787543E+03  0.34294033612E+03  0.00000000000E+00 0. -1.
         22    1    3    3    0    0 -0.51941837071E+02  0.23874659992E+02  0.50630623856E+02  0.76363694908E+02  0.00000000000E+00 0. -1.
         22    1    3    3    0    0  0.53384846169E+02 -0.44289089521E+02  0.70243842742E+02  0.98720123047E+02  0.00000000000E+00 0. -1.
</event>
<event>
 7    1  0.6510186E-006  0.1122534E+03  0.7818608E-02  0.1257366E+00
          2   -1    0    0  502    0  0.00000000000E+00  0.00000000000E+00  0.26608695949E+03  0.26608695949E+03  0.00000000000E+00 0. -1.
          1   -1    0    0  501    0 -0.00000000000E+00 -0.00000000000E+00 -0.16203549738E+04  0.16203549738E+04  0.00000000000E+00 0. -1.
         25    2    1    2    0    0  0.63817804842E+01  0.37870383369E+02  0.93961184812E+01  0.13110609493E+03  0.12500251209E+03 0.  0.
          2    1    1    2  501    0  0.63717525885E+02  0.91190881377E+02 -0.15296562973E+04  0.15336962176E+04  0.00000000000E+00 0. -1.
          1    1    1    2  502    0 -0.70099306369E+02 -0.12906126475E+03  0.16599216452E+03  0.22163962077E+03  0.00000000000E+00 0. -1.
         22    1    3    3    0    0 -0.43895871933E+01  0.34839788229E+02 -0.55268535184E+02  0.65480457397E+02  0.00000000000E+00 0. -1.
         22    1    3    3    0    0  0.10771367677E+02  0.30305951392E+01  0.64664653665E+02  0.65625637537E+02  0.00000000000E+00 0. -1.
</event>
<event>
 7    1  0.6510186E-006  0.3996436E+02  0.7818608E-02  0.1552394E+00
          2   -1    0    0  502    0  0.00000000000E+00  0.00000000000E+00  0.13529990248E+04  0.13529990248E+04  0.00000000000E+00 0. -1.
          1   -1    0    0  501    0 -0.00000000000E+00 -0.00000000000E+00 -0.65442719500E+03  0.65442719500E+03  0.00000000000E+00 0. -1.
         25    2    1    2    0    0 -0.58576609242E+01  0.98722479020E+01  0.25132512658E+02  0.12802615268E+03  0.12500911610E+03 0.  0.
          2    1    1    2  501    0  0.32096299019E+02 -0.24240224856E+02 -0.60213407599E+03  0.60347593687E+03  0.00000000000E+00 0. -1.
          1    1    1    2  502    0 -0.26238638095E+02  0.14367976954E+02  0.12755733931E+04  0.12759241302E+04  0.00000000000E+00 0. -1.
         22    1    3    3    0    0  0.30300863210E+02  0.43020261640E+02  0.50386409768E+02  0.72853795455E+02  0.00000000000E+00 0. -1.
         22    1    3    3    0    0 -0.36158524134E+02 -0.33148013738E+02 -0.25253897110E+02  0.55172357224E+02  0.00000000000E+00 0. -1.
</event>
<event>
 7    1  0.6510186E-006  0.1723971E+03  0.7818608E-02  0.1352390E+00
          2   -1    0    0  502    0  0.00000000000E+00  0.00000000000E+00  0.39076380842E+03  0.39076380842E+03  0.00000000000E+00 0. -1.
          1   -1    0    0  501    0 -0.00000000000E+00 -0.00000000000E+00 -0.34284187642E+03  0.34284187642E+03  0.00000000000E+00 0. -1.
         25    2    1    2    0    0 -0.15361447165E+03 -0.80609954347E+02 -0.16206816450E+03  0.26830262578E+03  0.12499935367E+03 0.  0.
          2    1    1    2  501    0  0.16448558605E+03  0.52290321006E+02 -0.68112619578E+02  0.18555084110E+03  0.00000000000E+00 0. -1.
          1    1    1    2  502    0 -0.10871114393E+02  0.28319633341E+02  0.27810271608E+03  0.27975221795E+03  0.00000000000E+00 0. -1.
         22    1    3    3    0    0 -0.11489093160E+03 -0.41807605788E+01 -0.13737734754E+03  0.17913665326E+03  0.00000000000E+00 0. -1.
         22    1    3    3    0    0 -0.38723540051E+02 -0.76429193768E+02 -0.24690816957E+02  0.89165972524E+02  0.00000000000E+00 0. -1.
</event>
<event>
 7    1  0.6510186E-006  0.1400693E+03  0.7818608E-02  0.1288025E+00
          2   -1    0    0  502    0  0.00000000000E+00  0.00000000000E+00  0.25040172524E+04  0.25040172524E+04  0.00000000000E+00 0. -1.
          1   -1    0    0  501    0 -0.00000000000E+00 -0.00000000000E+00 -0.33751512764E+02  0.33751512764E+02  0.00000000000E+00 0. -1.
         25    2    1    2    0    0  0.12300603090E+03  0.29155999407E+02  0.15315449983E+04  0.15418284985E+04  0.12499792356E+03 0.  0.
          2    1    1    2  501    0 -0.13894320636E+03  0.35265073977E+02  0.16170491236E+03  0.21609562402E+03  0.00000000000E+00 0. -1.
          1    1    1    2  502    0  0.15937175467E+02 -0.64421073383E+02  0.77701582892E+03  0.77984464263E+03  0.00000000000E+00 0. -1.
         22    1    3    3    0    0  0.10743774981E+03  0.72448672957E+02  0.12277757340E+04  0.12345950483E+04  0.00000000000E+00 0. -1.
         22    1    3    3    0    0  0.15568281090E+02 -0.43292673550E+02  0.30376926432E+03  0.30723345018E+03  0.00000000000E+00 0. -1.
</event>
<event>
 7    1  0.6510186E-006  0.4709891E+02  0.7818608E-02  0.1507540E+00
          2   -1    0    0  502    0  0.00000000000E+00  0.00000000000E+00  0.11336790937E+03  0.11336790937E+03  0.00000000000E+00 0. -1.
          1   -1    0    0  501    0 -0.00000000000E+00 -0.00000000000E+00 -0.41081402339E+03  0.41081402339E+03  0.00000000000E+00 0. -1.
         25    2    1    2    0    0  0.40969673119E+02  0.43695389397E+01  0.14425469793E+02  0.13239890734E+03  0.12499507790E+03 0.  0.
          2    1    1    2  501    0 -0.30112533073E+02 -0.36722996518E+02 -0.34259087641E+03  0.34586681211E+03  0.00000000000E+00 0. -1.
          1    1    1    2  502    0 -0.10857140046E+02  0.32353457579E+02  0.30719292594E+02  0.45916213310E+02  0.00000000000E+00 0. -1.
         22    1    3    3    0    0  0.55640132757E+02  0.71034403329E+00 -0.44697225055E+02  0.71373460681E+02  0.00000000000E+00 0.  1.
         22    1    3    3    0    0 -0.14670459639E+02  0.36591949064E+01  0.59122694849E+02  0.61025446656E+02  0.00000000000E+00 0.  1.
</event>
<event>
 7    1  0.6510186E-006  0.7286790E+02  0.7818608E-02  0.1472025E+00
          2   -1    0    0  502    0  0.00000000000E+00  0.00000000000E+00  0.20795824563E+04  0.20795824563E+04  0.00000000000E+00 0. -1.
          1   -1    0    0  501    0 -0.00000000000E+00 -0.00000000000E+00 -0.30964938039E+03  0.30964938039E+03  0.00000000000E+00 0. -1.
         25    2    1    2    0    0 -0.52397224783E+02  0.83637378737E+01  0.16045415434E+04  0.16102781663E+04  0.12500714904E+03 0.  0.
          2    1    1    2  501    0  0.71925897280E+02  0.12053271241E+02 -0.30201426859E+03  0.31069476095E+03  0.00000000000E+00 0. -1.
          1    1    1    2  502    0 -0.19528672497E+02 -0.20417009115E+02  0.46740580109E+03  0.46825890937E+03  0.00000000000E+00 0. -1.
         22    1    3    3    0    0 -0.58999579916E+02  0.42749804836E+02  0.14495875796E+04  0.14514174614E+04  0.00000000000E+00 0.  1.
         22    1    3    3    0    0  0.66023551334E+01 -0.34386066962E+02  0.15495396373E+03  0.15886070493E+03  0.00000000000E+00 0.  1.
</event>
<event>
 7    1  0.6510186E-006  0.9641665E+02  0.7818608E-02  0.1306181E+00
          2   -1    0    0  502    0  0.00000000000E+00  0.00000000000E+00  0.36128565434E+04  0.36128565434E+04  0.00000000000E+00 0. -1.
          1   -1    0    0  501    0 -0.00000000000E+00 -0.00000000000E+00 -0.29072783977E+02  0.29072783977E+02  0.00000000000E+00 0. -1.
         25    2    1    2    0    0  0.19752777222E+02 -0.90787138368E+02  0.21463709109E+04  0.21520143738E+04  0.12500120476E+03 0.  0.
          2    1    1    2  501    0  0.60573994643E+02  0.77073934340E+02  0.70915709665E+02  0.12099023952E+03  0.00000000000E+00 0. -1.
          1    1    1    2  502    0 -0.80326771866E+02  0.13713204028E+02  0.13664971388E+04  0.13689247140E+04  0.00000000000E+00 0. -1.
         22    1    3    3    0    0  0.65058483746E+02 -0.56226797563E+02  0.16760104529E+04  0.16782148543E+04  0.00000000000E+00 0.  1.
         22    1    3    3    0    0 -0.45305706523E+02 -0.34560340805E+02  0.47036045805E+03  0.47379951952E+03  0.00000000000E+00 0.  1.
</event>
<event>
 7    1  0.6510186E-006  0.2244467E+03  0.7818608E-02  0.1301210E+00
          2   -1    0    0  502    0  0.00000000000E+00  0.00000000000E+00  0.92492650455E+03  0.92492650455E+03  0.00000000000E+00 0. -1.
          1   -1    0    0  501    0 -0.00000000000E+00 -0.00000000000E+00 -0.54288411980E+03  0.54288411980E+03  0.00000000000E+00 0. -1.
         25    2    1    2    0    0 -0.22193902803E+03 -0.99500922812E+02  0.35692107854E+03  0.44963949459E+03  0.12500261194E+03 0.  0.
          2    1    1    2  501    0  0.16754126093E+02  0.32581965046E+02 -0.47346381025E+03  0.47487921076E+03  0.00000000000E+00 0. -1.
          1    1    1    2  502    0  0.20518490193E+03  0.66918957765E+02  0.49858511647E+03  0.54329191900E+03  0.00000000000E+00 0. -1.
         22    1    3    3    0    0 -0.10906585544E+03 -0.46373257035E+02  0.27751033519E+03  0.30175789290E+03  0.00000000000E+00 0.  1.
         22    1    3    3    0    0 -0.11287317258E+03 -0.53127665777E+02  0.79410743346E+02  0.14788160169E+03  0.00000000000E+00 0.  1.
</event>
<event>
 7    1  0.6510186E-006  0.1008595E+03  0.7818608E-02  0.1432624E+00
          2   -1    0    0  502    0  0.00000000000E+00  0.00000000000E+00  0.14291962521E+04  0.14291962521E+04  0.00000000000E+00 0. -1.
          1   -1    0    0  501    0 -0.00000000000E+00 -0.00000000000E+00 -0.45028374629E+03  0.45028374629E+03  0.00000000000E+00 0. -1.
         25    2    1    2    0    0 -0.85913582598E+02  0.94628412370E+02  0.59752285910E+03  0.62369375304E+03  0.12499860132E+03 0.  0.
          2    1    1    2  501    0  0.68753573792E+02 -0.73444637834E+02 -0.43117915668E+03  0.44276024426E+03  0.00000000000E+00 0. -1.
          1    1    1    2  502    0  0.17160008807E+02 -0.21183774535E+02  0.81256880338E+03  0.81302600108E+03  0.00000000000E+00 0. -1.
         22    1    3    3    0    0  0.28774432875E+02  0.19213904011E+01  0.64637663003E+02  0.70779143869E+02  0.00000000000E+00 0. -1.
         22    1    3    3    0    0 -0.11468801547E+03  0.92707021968E+02  0.53288519610E+03  0.55291460917E+03  0.00000000000E+00 0. -1.
</event>
<event>
 7    1  0.6510186E-006  0.4538624E+02  0.7818608E-02  0.1481355E+00
          2   -1    0    0  502    0  0.00000000000E+00  0.00000000000E+00  0.63395046438E+02  0.63395046438E+02  0.00000000000E+00 0. -1.
          1   -1    0    0  501    0 -0.00000000000E+00 -0.00000000000E+00 -0.42006884798E+03  0.42006884798E+03  0.00000000000E+00 0. -1.
         25    2    1    2    0    0 -0.53101713101E+02  0.11181884876E+02 -0.32776749251E+03  0.35496548129E+03  0.12499654907E+03 0.  0.
          2    1    1    2  501    0  0.22887760002E+02 -0.41006187017E+02 -0.59769265722E+02  0.76011328475E+02  0.00000000000E+00 0. -1.
          1    1    1    2  502    0  0.30213953099E+02  0.29824302141E+02  0.30862956687E+02  0.52487084655E+02  0.00000000000E+00 0. -1.
         22    1    3    3    0    0 -0.87232497980E+02  0.12500034943E+02 -0.29404828910E+03  0.30696930775E+03  0.00000000000E+00 0.  1.
         22    1    3    3    0    0  0.34130784879E+02 -0.13181500666E+01 -0.33719203406E+02  0.47996173539E+02  0.00000000000E+00 0.  1.
</event>
<event>
 7    1  0.6510186E-006  0.3515661E+02  0.7818608E-02  0.1576088E+00
          2   -1    0    0  502    0  0.00000000000E+00  0.00000000000E+00  0.67385757648E+03  0.67385757648E+03  0.00000000000E+00 0. -1.
          1   -1    0    0  501    0 -0.00000000000E+00 -0.00000000000E+00 -0.36523747254E+03  0.36523747254E+03  0.00000000000E+00 0. -1.
         25    2    1    2    0    0 -0.11492822659E+02 -0.16941379813E+02 -0.32201262227E+02  0.13069955596E+03  0.12500542915E+03 0.  0.
          2    1    1    2  501    0  0.24649792677E+02 -0.15817093042E+02 -0.28253065837E+03  0.28404465429E+03  0.00000000000E+00 0. -1.
          1    1    1    2  502    0 -0.13156970019E+02  0.32758472855E+02  0.62335202453E+03  0.62435083878E+03  0.00000000000E+00 0. -1.
         22    1    3    3    0    0 -0.13175449158E+02  0.36641836744E+02  0.29581253778E+02  0.48900585227E+02  0.00000000000E+00 0. -1.
         22    1    3    3    0    0  0.16826264994E+01 -0.53583216557E+02 -0.61782516005E+02  0.81798970730E+02  0.00000000000E+00 0. -1.
</event>
<event>
 7    1  0.6510186E-006  0.1321870E+03  0.7818608E-02  0.1366540E+00
          2   -1    0    0  502    0  0.00000000000E+00  0.00000000000E+00  0.47737236346E+03  0.47737236346E+03  0.00000000000E+00 0. -1.
          1   -1    0    0  501    0 -0.00000000000E+00 -0.00000000000E+00 -0.78141719581E+03  0.78141719581E+03  0.00000000000E+00 0. -1.
         25    2    1    2    0    0  0.61539654604E+02 -0.76626760184E+02 -0.25510544494E+03  0.30060354550E+03  0.12499965626E+03 0.  0.
          2    1    1    2  501    0  0.20902549406E+02 -0.28226631980E+02 -0.49314127582E+03  0.49439051087E+03  0.00000000000E+00 0. -1.
          1    1    1    2  502    0 -0.82442204010E+02  0.10485339216E+03  0.44420188840E+03  0.46379550290E+03  0.00000000000E+00 0. -1.
         22    1    3    3    0    0  0.86311795252E+02 -0.78914376599E+02 -0.24883583132E+03  0.27494813289E+03  0.00000000000E+00 0.  1.
         22    1    3    3    0    0 -0.24772140649E+02  0.22876164156E+01 -0.62696136248E+01  0.25655412610E+02  0.00000000000E+00 0.  1.
</event>
<event>
 7    1  0.6510186E-006  0.6223661E+02  0.7818608E-02  0.1538336E+00
          2   -1    0    0  502    0  0.00000000000E+00  0.00000000000E+00  0.14653864637E+03  0.14653864637E+03  0.00000000000E+00 0. -1.
          1   -1    0    0  501    0 -0.00000000000E+00 -0.00000000000E+00 -0.16304250477E+04  0.16304250477E+04  0.00000000000E+00 0. -1.
         25    2    1    2    0    0 -0.81112853724E+02  0.11014440673E+02 -0.55954772478E+03  0.57915468460E+03  0.12500351775E+03 0.  0.
          2    1    1    2  501    0  0.20781170167E+02  0.32669316266E+01 -0.10539355374E+04  0.10541454581E+04  0.00000000000E+00 0. -1.
          1    1    1    2  502    0  0.60331683556E+02 -0.14281372300E+02  0.12959686087E+03  0.14366355133E+03  0.00000000000E+00 0. -1.
         22    1    3    3    0    0 -0.43050349019E+02  0.59161431884E+02 -0.42523119219E+03  0.43147998144E+03  0.00000000000E+00 0.  1.
         22    1    3    3    0    0 -0.38062504705E+02 -0.48146991211E+02 -0.13431653259E+03  0.14767470316E+03  0.00000000000E+00 0.  1.
</event>
<event>
 7    1  0.6510186E-006  0.1814690E+03  0.7818608E-02  0.1207835E+00
          2   -1    0    0  502    0  0.00000000000E+00  0.00000000000E+00  0.16577839446E+03  0.16577839446E+03  0.00000000000E+00 0. -1.
          1   -1    0    0  501    0 -0.00000000000E+00 -0.00000000000E+00 -0.13068700912E+04  0.13068700912E+04  0.00000000000E+00 0. -1.
         25    2    1    2    0    0  0.16371625472E+03  0.23722708415E+02 -0.17195194825E+03  0.26936500017E+03  0.12499700740E+03 0.  0.
          2    1    1    2  501    0 -0.21655989103E+02  0.11245916919E+03 -0.99785768950E+03  0.10044082910E+04  0.00000000000E+00 0. -1.
          1    1    1    2  502    0 -0.14206026561E+03 -0.13618187761E+03  0.28717940957E+02  0.19887519450E+03  0.00000000000E+00 0. -1.
         22    1    3    3    0    0  0.93579075583E+02 -0.34478084096E+02 -0.36691654047E+02  0.10626410093E+03  0.00000000000E+00 0. -1.
         22    1    3    3    0    0  0.70137179132E+02  0.58200792512E+02 -0.13526029420E+03  0.16310089924E+03  0.00000000000E+00 0. -1.
</event>
<event>
 7    1  0.6510186E-006  0.9418222E+02  0.7818608E-02  0.1336671E+00
          2   -1    0    0  502    0  0.00000000000E+00  0.00000000000E+00  0.11917853938E+04  0.11917853938E+04  0.00000000000E+00 0. -1.
          1   -1    0    0  501    0 -0.00000000000E+00 -0.00000000000E+00 -0.28827843960E+03  0.28827843960E+03  0.00000000000E+00 0. -1.
         25    2    1    2    0    0  0.15233420170E+03  0.38116285728E+01 -0.13285932029E+03  0.23769383752E+03  0.12500609540E+03 0.  0.
          2    1    1    2  501    0 -0.60208462385E+02 -0.20388069776E+02 -0.91066656747E+02  0.11105795020E+03  0.00000000000E+00 0. -1.
          1    1    1    2  502    0 -0.92125739318E+02  0.16576441204E+02  0.11274329312E+04  0.11313120457E+04  0.00000000000E+00 0. -1.
         22    1    3    3    0    0  0.23574842021E+02  0.51098243199E+02 -0.60441311506E+02  0.82583023503E+02  0.00000000000E+00 0. -1.
         22    1    3    3    0    0  0.12875935968E+03 -0.47286614626E+02 -0.72418008781E+02  0.15511081401E+03  0.00000000000E+00 0. -1.
</event>
<event>
 7    1  0.6510186E-006  0.7940876E+02  0.7818608E-02  0.1411363E+00
          2   -1    0    0  502    0  0.00000000000E+00  0.00000000000E+00  0.11202942031E+04  0.11202942031E+04  0.00000000000E+00 0. -1.
          1   -1    0    0  501    0 -0.00000000000E+00 -0.00000000000E+00 -0.80525982583E+03  0.80525982583E+03  0.00000000000E+00 0. -1.
         25    2    1    2    0    0  0.90277887282E+02 -0.78120258368E+02 -0.38937724257E+03  0.42601994738E+03  0.12500194733E+03 0.  0.
          2    1    1    2  501    0 -0.34341509158E+02  0.21952190310E+02 -0.39508590380E+03  0.39718271525E+03  0.00000000000E+00 0. -1.
          1    1    1    2  502    0 -0.55936378123E+02  0.56168068059E+02  0.10994975236E+04  0.11023513662E+04  0.00000000000E+00 0. -1.
         22    1    3    3    0    0  0.72309434385E+02 -0.89263811902E+02 -0.16732807794E+03  0.20296642107E+03  0.00000000000E+00 0. -1.
         22    1    3    3    0    0  0.17968452896E+02  0.11143553533E+02 -0.22204916463E+03  0.22305352631E+03  0.00000000000E+00 0. -1.
</event>
<event>
 7    1  0.6510186E-006  0.7778714E+02  0.7818608E-02  0.1345296E+00
          2   -1    0    0  502    0  0.00000000000E+00  0.00000000000E+00  0.72993210277E+03  0.72993210277E+03  0.00000000000E+00 0. -1.
          1   -1    0    0  501    0 -0.00000000000E+00 -0.00000000000E+00 -0.14597586471E+03  0.14597586471E+03  0.00000000000E+00 0. -1.
         25    2    1    2    0    0  0.68360547273E+02  0.71522435323E+02  0.53418552306E+02  0.16812630925E+03  0.12499716378E+03 0.  0.
          2    1    1    2  501    0  0.97474266884E+01 -0.70763524211E+02 -0.71282062265E+02  0.10091392910E+03  0.00000000000E+00 0. -1.
          1    1    1    2  502    0 -0.78107973961E+02 -0.75891111200E+00  0.60181974802E+03  0.60686772912E+03  0.00000000000E+00 0. -1.
         22    1    3    3    0    0  0.72645111765E+02  0.10202557114E+03  0.56041679126E+02  0.13721224154E+03  0.00000000000E+00 0.  1.
         22    1    3    3    0    0 -0.42845644919E+01 -0.30503135821E+02 -0.26231268203E+01  0.30914067706E+02  0.00000000000E+00 0.  1.
</event>
<event>
 7    1  0.6510186E-006  0.1257384E+03  0.7818608E-02  0.1418735E+00
          2   -1    0    0  502    0  0.00000000000E+00  0.00000000000E+00  0.11381261021E+04  0.11381261021E+04  0.00000000000E+00 0. -1.
          1   -1    0    0  501    0 -0.00000000000E+00 -0.00000000000E+00 -0.99023560408E+02  0.99023560408E+02  0.00000000000E+00 0. -1.
         25    2    1    2    0    0 -0.11417502658E+03 -0.27089420706E+02  0.10508770464E+03  0.20109225018E+03  0.12499957604E+03 0.  0.
          2    1    1    2  501    0 -0.12286830681E+02  0.20978421333E+02 -0.43791914514E+02  0.50087844300E+02  0.00000000000E+00 0. -1.
          1    1    1    2  502    0  0.12646185726E+03  0.61109993726E+01  0.97780675159E+03  0.98596956805E+03  0.00000000000E+00 0. -1.
         22    1    3    3    0    0 -0.85296451195E+02 -0.23496583336E+02  0.13367315521E+03  0.16029998889E+03  0.00000000000E+00 0.  1.
         22    1    3    3    0    0 -0.28878575383E+02 -0.35928373696E+01 -0.28585450576E+02  0.40792261290E+02  0.00000000000E+00 0.  1.
</event>
<event>
 7    1  0.6510186E-006  0.6539174E+02  0.7818608E-02  0.1394374E+00
          2   -1    0    0  502    0  0.00000000000E+00  0.00000000000E+00  0.11981227963E+04  0.11981227963E+04  0.00000000000E+00 0. -1.
          1   -1    0    0  501    0 -0.00000000000E+00 -0.00000000000E+00 -0.12205622847E+04  0.12205622847E+04  0.00000000000E+00 0. -1.
         25    2    1    2    0    0  0.10153569234E+03 -0.44771553960E+02  0.39969956337E+02  0.17186265521E+03  0.12500074393E+03 0.  0.
          2    1    1    2  501    0 -0.65051313307E+02  0.15128708935E+01 -0.11529649724E+04  0.11547996319E+04  0.00000000000E+00 0. -1.
          1    1    1    2  502    0 -0.36484379030E+02  0.43258683066E+02  0.10905555277E+04  0.10920227940E+04  0.00000000000E+00 0. -1.
         22    1    3    3    0    0  0.96823631791E+02 -0.57787056051E+01 -0.21089036949E+02  0.99262060179E+02  0.00000000000E+00 0.  1.
         22    1    3    3    0    0  0.47120605463E+01 -0.38992848355E+02  0.61058993285E+02  0.72600595028E+02  0.00000000000E+00 0.  1.
</event>
<event>
 7    1  0.6510186E-006  0.5595501E+02  0.7818608E-02  0.1446125E+00
          2   -1    0    0  502    0  0.00000000000E+00  0.00000000000E+00  0.74028619979E+03  0.74028619979E+03  0.00000000000E+00 0. -1.
          1   -1    0    0  501    0 -0.00000000000E+00 -0.00000000000E+00 -0.12205700574E+04  0.12205700574E+04  0.00000000000E+00 0. -1.
         25    2    1    2    0    0  0.10847227326E+02  0.63726455289E+02  0.28606161739E+03  0.31879555401E+03  0.12498253024E+03 0.  0.
          2    1    1    2  501    0 -0.41434476699E+02 -0.16009995491E+02 -0.12019569273E+04  0.12027774486E+04  0.00000000000E+00 0. -1.
          1    1    1    2  502    0  0.30587249373E+02 -0.47716459798E+02  0.43561145230E+03  0.43928325456E+03  0.00000000000E+00 0. -1.
         22    1    3    3    0    0 -0.40976888412E+02  0.22829215854E+02  0.33224504954E+02  0.57481703262E+02  0.00000000000E+00 0.  1.
         22    1    3    3    0    0  0.51824115738E+02  0.40897239435E+02  0.25283711244E+03  0.26131385074E+03  0.00000000000E+00 0.  1.
</event>
<event>
 7    1  0.6510186E-006  0.9662357E+02  0.7818608E-02  0.1368582E+00
          2   -1    0    0  502    0  0.00000000000E+00  0.00000000000E+00  0.77572434524E+03  0.77572434524E+03  0.00000000000E+00 0. -1.
          1   -1    0    0  501    0 -0.00000000000E+00 -0.00000000000E+00 -0.12611893398E+04  0.12611893398E+04  0.00000000000E+00 0. -1.
         25    2    1    2    0    0 -0.62961229364E+02  0.94524707851E+02  0.14020338748E+03  0.21950086456E+03  0.12499841152E+03 0.  0.
          2    1    1    2  501    0 -0.18231781915E+02 -0.43583036617E+02 -0.12172248280E+04  0.12181412730E+04  0.00000000000E+00 0. -1.
          1    1    1    2  502    0  0.81193011279E+02 -0.50941671234E+02  0.59155644596E+03  0.59927154755E+03  0.00000000000E+00 0. -1.
         22    1    3    3    0    0 -0.18735245102E+02  0.10832673263E+03  0.55959309030E+02  0.12335775079E+03  0.00000000000E+00 0. -1.
         22    1    3    3    0    0 -0.44225984262E+02 -0.13802024781E+02  0.84244078447E+02  0.96143113770E+02  0.00000000000E+00 0. -1.
</event>
<event>
 7    1  0.6510186E-006  0.6403471E+02  0.7818608E-02  0.1414543E+00
          2   -1    0    0  502    0  0.00000000000E+00  0.00000000000E+00  0.24477794512E+04  0.24477794512E+04  0.00000000000E+00 0. -1.
          1   -1    0    0  501    0 -0.00000000000E+00 -0.00000000000E+00 -0.40799013408E+03  0.40799013408E+03  0.00000000000E+00 0. -1.
         25    2    1    2    0    0  0.32813362361E+02 -0.30951901221E+02  0.73384319455E+03  0.74577815485E+03  0.12499794050E+03 0.  0.
          2    1    1    2  501    0  0.34728247385E+02  0.35006501912E+02 -0.39983734721E+03  0.40286649223E+03  0.00000000000E+00 0. -1.
          1    1    1    2  502    0 -0.67541609746E+02 -0.40546006907E+01  0.17057834698E+04  0.17071249382E+04  0.00000000000E+00 0. -1.
         22    1    3    3    0    0  0.50550303255E+02 -0.65229494842E+02  0.33267633906E+03  0.34275905054E+03  0.00000000000E+00 0.  1.
         22    1    3    3    0    0 -0.17736940894E+02  0.34277593621E+02  0.40116685549E+03  0.40301910432E+03  0.00000000000E+00 0.  1.
</event>
<event>
 7    1  0.6510186E-006  0.5776549E+02  0.7818608E-02  0.1500446E+00
          2   -1    0    0  502    0  0.00000000000E+00  0.00000000000E+00  0.14236143917E+04  0.14236143917E+04  0.00000000000E+00 0. -1.
          1   -1    0    0  501    0 -0.00000000000E+00 -0.00000000000E+00 -0.28343550601E+03  0.28343550601E+03  0.00000000000E+00 0. -1.
         25    2    1    2    0    0 -0.85364276745E+00  0.32627189394E+02 -0.12619995319E+03  0.18060503674E+03  0.12500595552E+03 0.  0.
          2    1    1    2  501    0 -0.19870520223E+02  0.21405899596E+02 -0.12778504767E+03  0.13108038953E+03  0.00000000000E+00 0. -1.
          1    1    1    2  502    0  0.20724162991E+02 -0.54033088991E+02  0.13941638865E+04  0.13953644714E+04  0.00000000000E+00 0. -1.
         22    1    3    3    0    0  0.48494123143E+02  0.36650325182E+02 -0.20956553626E+02  0.64296994139E+02  0.00000000000E+00 0. -1.
         22    1    3    3    0    0 -0.49347765911E+02 -0.40231357879E+01 -0.10524339956E+03  0.11630804260E+03  0.00000000000E+00 0. -1.
</event>
<event>
 7    1  0.6510186E-006  0.1008215E+03  0.7818608E-02  0.1355736E+00
          2   -1    0    0  502    0  0.00000000000E+00  0.00000000000E+00  0.10029101161E+04  0.10029101161E+04  0.00000000000E+00 0. -1.
          1   -1    0    0  501    0 -0.00000000000E+00 -0.00000000000E+00 -0.14934249791E+03  0.14934249791E+03  0.00000000000E+00 0. -1.
         25    2    1    2    0    0 -0.49036729010E+02 -0.50512144510E+02  0.10143610126E+03  0.17569887258E+03  0.12499893461E+03 0.  0.
          2    1    1    2  501    0 -0.48370603274E+02  0.14224956681E+02 -0.10323774396E+03  0.11489167259E+03  0.00000000000E+00 0. -1.
          1    1    1    2  502    0  0.97407332284E+02  0.36287187829E+02  0.85536926087E+03  0.86166206881E+03  0.00000000000E+00 0. -1.
         22    1    3    3    0    0  0.38636718049E+02  0.60220339372E+01  0.25901820518E+02  0.46903786420E+02  0.00000000000E+00 0. -1.
         22    1    3    3    0    0 -0.87673447060E+02 -0.56534178447E+02  0.75534280747E+02  0.12879508616E+03  0.00000000000E+00 0. -1.
</event>
<event>
 7    1  0.6510186E-006  0.1086887E+03  0.7818608E-02  0.1321550E+00
          2   -1    0    0  502    0  0.00000000000E+00  0.00000000000E+00  0.33417261828E+04  0.33417261828E+04  0.00000000000E+00 0. -1.
          1   -1    0    0  501    0 -0.00000000000E+00 -0.00000000000E+00 -0.10162215171E+03  0.10162215171E+03  0.00000000000E+00 0. -1.
         25    2    1    2    0    0 -0.15051766596E+03  0.47916291497E+02  0.69932929341E+03  0.72776263144E+03  0.12500179334E+03 0.  0.
          2    1    1    2  501    0  0.10666238368E+03 -0.27833632208E+01 -0.54318655036E+02  0.11972939275E+03  0.00000000000E+00 0. -1.
          1    1    1    2  502    0  0.43855282281E+02 -0.45132928277E+02  0.25950933927E+04  0.25958563103E+04  0.00000000000E+00 0. -1.
         22    1    3    3    0    0 -0.11521289685E+03  0.81169291563E+02  0.39061738417E+03  0.41526426081E+03  0.00000000000E+00 0.  1.
         22    1    3    3    0    0 -0.35304769108E+02 -0.33253000066E+02  0.30871190924E+03  0.31249837063E+03  0.00000000000E+00 0.  1.
</event>
<event>
 7    1  0.6510186E-006  0.1572575E+03  0.7818608E-02  0.1288018E+00
          2   -1    0    0  502    0  0.00000000000E+00  0.00000000000E+00  0.70339689314E+02  0.70339689314E+02  0.00000000000E+00 0. -1.
          1   -1    0    0  501    0 -0.00000000000E+00 -0.00000000000E+00 -0.24046077642E+04  0.24046077642E+04  0.00000000000E+00 0. -1.
         25    2    1    2    0    0  0.79836292757E+02  0.18667254688E+03 -0.61581540168E+03  0.66035925194E+03  0.12500103711E+03 0.  0.
          2    1    1    2  501    0 -0.80569843673E+02 -0.12756317843E+03 -0.17437670667E+04  0.17502821050E+04  0.00000000000E+00 0. -1.
          1    1    1    2  502    0  0.73355091606E+00 -0.59109368449E+02  0.25314393508E+02  0.64306096554E+02  0.00000000000E+00 0. -1.
         22    1    3    3    0    0 -0.62991547542E+01  0.11146168901E+03 -0.19936328366E+03  0.22849312099E+03  0.00000000000E+00 0. -1.
         22    1    3    3    0    0  0.86135447511E+02  0.75210857867E+02 -0.41645211803E+03  0.43186613096E+03  0.00000000000E+00 0. -1.
</event>
<event>
 7    1  0.6510186E-006  0.9035770E+02  0.7818608E-02  0.1357697E+00
          2   -1    0    0  502    0  0.00000000000E+00  0.00000000000E+00  0.36032037468E+03  0.36032037468E+03  0.00000000000E+00 0. -1.
          1   -1    0    0  501    0 -0.00000000000E+00 -0.00000000000E+00 -0.47576428313E+03  0.47576428313E+03  0.00000000000E+00 0. -1.
         25    2    1    2    0    0 -0.87535402412E+02 -0.72070503917E+01  0.21257412718E+03  0.26177909625E+03  0.12500458965E+03 0.  0.
          2    1    1    2  501    0  0.93323143726E+01 -0.54541163818E+02 -0.42893299305E+03  0.43248739076E+03  0.00000000000E+00 0. -1.
          1    1    1    2  502    0  0.78203088039E+02  0.61748214210E+02  0.10091495742E+03  0.14181817080E+03  0.00000000000E+00 0. -1.
         22    1    3    3    0    0  0.15189366592E+02  0.41504181109E+01  0.12593983897E+03  0.12692039185E+03  0.00000000000E+00 0.  1.
         22    1    3    3    0    0 -0.10272476900E+03 -0.11357468503E+02  0.86634288216E+02  0.13485870440E+03  0.00000000000E+00 0.  1.
</event>
<event>
 7    1  0.6510186E-006  0.8111427E+02  0.7818608E-02  0.1501676E+00
          2   -1    0    0  502    0  0.00000000000E+00  0.00000000000E+00  0.15639579207E+04  0.15639579207E+04  0.00000000000E+00 0. -1.
          1   -1    0    0  501    0 -0.00000000000E+00 -0.00000000000E+00 -0.95879055661E+03  0.95879055661E+03  0.00000000000E+00 0. -1.
         25    2    1    2    0    0 -0.11240858289E+02 -0.59798871448E+02  0.47266386962E+03  0.49268352036E+03  0.12499462254E+03 0.  0.
          2    1    1    2  501    0  0.18849965289E+02  0.78968876749E+02 -0.94694523097E+03  0.95041921021E+03  0.00000000000E+00 0. -1.
          1    1    1    2  502    0 -0.76091070001E+01 -0.19170005301E+02  0.10794487255E+04  0.10796457468E+04  0.00000000000E+00 0. -1.
         22    1    3    3    0    0 -0.38173141206E+02  0.15263994803E+02  0.29615861943E+03  0.29899850520E+03  0.00000000000E+00 0.  1.
         22    1    3    3    0    0  0.26932282917E+02 -0.75062866251E+02  0.17650525019E+03  0.19368501516E+03  0.00000000000E+00 0.  1.
</event>
<event>
 7    1  0.6510186E-006  0.2432045E+02  0.7818608E-02  0.1676260E+00
          2   -1    0    0  502    0  0.00000000000E+00  0.00000000000E+00  0.98994345830E+03  0.98994345830E+03  0.00000000000E+00 0. -1.
          1   -1    0    0  501    0 -0.00000000000E+00 -0.00000000000E+00 -0.30464324292E+03  0.30464324292E+03  0.00000000000E+00 0. -1.
         25    2    1    2    0    0  0.17698676791E+02  0.22565048068E+00  0.14303060434E+03  0.19077709714E+03  0.12499941174E+03 0.  0.
          2    1    1    2  501    0 -0.95835460984E+01 -0.22411753828E+02 -0.28007103074E+03  0.28112970907E+03  0.00000000000E+00 0. -1.
          1    1    1    2  502    0 -0.81151306929E+01  0.22186103348E+02  0.82234064177E+03  0.82267989500E+03  0.00000000000E+00 0. -1.
         22    1    3    3    0    0 -0.30612289264E+02 -0.28122822211E+02  0.50682128937E+01  0.41877107888E+02  0.00000000000E+00 0.  1.
         22    1    3    3    0    0  0.48310966055E+02  0.28348472692E+02  0.13796239145E+03  0.14889998925E+03  0.00000000000E+00 0.  1.
</event>
<event>
 7    1  0.6510186E-006  0.5349207E+02  0.7818608E-02  0.1490611E+00
          2   -1    0    0  502    0  0.00000000000E+00  0.00000000000E+00  0.19985016143E+04  0.19985016143E+04  0.00000000000E+00 0. -1.
          1   -1    0    0  501    0 -0.00000000000E+00 -0.00000000000E+00 -0.15530511259E+03  0.15530511259E+03  0.00000000000E+00 0. -1.
         25    2    1    2    0    0 -0.25170388766E+02 -0.73976453202E+02  0.59654740369E+01  0.14753397182E+03  0.12499848743E+03 0.  0.
          2    1    1    2  501    0  0.11906614693E+00  0.51346062217E+02 -0.76560065523E+02  0.92183924384E+02  0.00000000000E+00 0. -1.
          1    1    1    2  502    0  0.25051322619E+02  0.22630390985E+02  0.19137910932E+04  0.19140888307E+04  0.00000000000E+00 0. -1.
         22    1    3    3    0    0  0.50541410638E+02 -0.24194680826E+02 -0.50208459295E+01  0.56258560801E+02  0.00000000000E+00 0. -1.
         22    1    3    3    0    0 -0.75711799404E+02 -0.49781772376E+02  0.10986319966E+02  0.91275411017E+02  0.00000000000E+00 0. -1.
</event>
<event>
 7    1  0.6510186E-006  0.7945179E+02  0.7818608E-02  0.1372460E+00
          2   -1    0    0  502    0  0.00000000000E+00  0.00000000000E+00  0.30108960675E+03  0.30108960675E+03  0.00000000000E+00 0. -1.
          1   -1    0    0  501    0 -0.00000000000E+00 -0.00000000000E+00 -0.42989251440E+03  0.42989251440E+03  0.00000000000E+00 0. -1.
         25    2    1    2    0    0  0.57766282047E+02  0.88467912666E+02  0.33611690184E+01  0.16370633193E+03  0.12499980297E+03 0.  0.
          2    1    1    2  501    0 -0.54695365674E+02 -0.10206968270E+02 -0.34033792571E+03  0.34485601184E+03  0.00000000000E+00 0. -1.
          1    1    1    2  502    0 -0.30709163725E+01 -0.78260944395E+02  0.20817384904E+03  0.22241977738E+03  0.00000000000E+00 0. -1.
         22    1    3    3    0    0 -0.25395967183E+02  0.56657547809E+02  0.32423141102E+02  0.70044935233E+02  0.00000000000E+00 0.  1.
         22    1    3    3    0    0  0.83162249229E+02  0.31810364857E+02 -0.29061972083E+02  0.93661396694E+02  0.00000000000E+00 0.  1.
</event>
<event>
 7    1  0.6510186E-006  0.1270794E+03  0.7818608E-02  0.1421333E+00
          2   -1    0    0  502    0  0.00000000000E+00  0.00000000000E+00  0.16393147460E+04  0.16393147460E+04  0.00000000000E+00 0. -1.
          1   -1    0    0  501    0 -0.00000000000E+00 -0.00000000000E+00 -0.40567233452E+03  0.40567233452E+03  0.00000000000E+00 0. -1.
         25    2    1    2    0    0 -0.13583298100E+03  0.52652033061E+02  0.61597534083E+03  0.64519249887E+03  0.12499961912E+03 0.  0.
          2    1    1    2  501    0  0.22940667005E+02 -0.54512044873E+01 -0.38699284425E+03  0.38771052517E+03  0.00000000000E+00 0. -1.
          1    1    1    2  502    0  0.11289231399E+03 -0.47200828573E+02  0.10046599149E+04  0.10120840565E+04  0.00000000000E+00 0. -1.
         22    1    3    3    0    0 -0.88823145561E+02  0.74617760023E+00  0.15271613762E+03  0.17667010686E+03  0.00000000000E+00 0. -1.
         22    1    3    3    0    0 -0.47009835435E+02  0.51905855461E+02  0.46325920321E+03  0.46852239201E+03  0.00000000000E+00 0. -1.
</event>
<event>
 7    1  0.6510186E-006  0.7243629E+02  0.7818608E-02  0.1402731E+00
          2   -1    0    0  502    0  0.00000000000E+00  0.00000000000E+00  0.35635005126E+03  0.35635005126E+03  0.00000000000E+00 0. -1.
          1   -1    0    0  501    0 -0.00000000000E+00 -0.00000000000E+00 -0.11101925381E+04  0.11101925381E+04  0.00000000000E+00 0. -1.
         25    2    1    2    0    0  0.15240444278E+01 -0.97266428149E+02 -0.17645930238E+03  0.23712322134E+03  0.12500582365E+03 0.  0.
          2    1    1    2  501    0 -0.34689792794E+02  0.62832264808E+02 -0.90021253423E+03  0.90306914576E+03  0.00000000000E+00 0. -1.
          1    1    1    2  502    0  0.33165748366E+02  0.34434163341E+02  0.32282934980E+03  0.32635022224E+03  0.00000000000E+00 0. -1.
         22    1    3    3    0    0 -0.72711922466E+01 -0.49964861916E+02 -0.18183182970E+03  0.18871187550E+03  0.00000000000E+00 0.  1.
         22    1    3    3    0    0  0.87952366745E+01 -0.47301566233E+02  0.53725273195E+01  0.48411345840E+02  0.00000000000E+00 0.  1.
</event>
<event>
 7    1  0.6510186E-006  0.3436055E+02  0.7818608E-02  0.1616130E+00
          2   -1    0    0  502    0  0.00000000000E+00  0.00000000000E+00  0.55121123371E+03  0.55121123371E+03  0.00000000000E+00 0. -1.
          1   -1    0    0  501    0 -0.00000000000E+00 -0.00000000000E+00 -0.74330247768E+03  0.74330247768E+03  0.00000000000E+00 0. -1.
         25    2    1    2    0    0  0.26272620181E+02  0.36519782653E+02  0.18773744767E+03  0.22998639073E+03  0.12499778224E+03 0.  0.
          2    1    1    2  501    0 -0.23392255510E+02 -0.24644517122E+01 -0.72113279752E+03  0.72151630806E+03  0.00000000000E+00 0. -1.
          1    1    1    2  502    0 -0.28803646702E+01 -0.34055330941E+02  0.34130410588E+03  0.34301101259E+03  0.00000000000E+00 0. -1.
         22    1    3    3    0    0 -0.27279450285E+00  0.76403193369E+02  0.15231543486E+03  0.17040397316E+03  0.00000000000E+00 0.  1.
         22    1    3    3    0    0  0.26545414683E+02 -0.39883410716E+02  0.35422012809E+02  0.59582417562E+02  0.00000000000E+00 0.  1.
</event>
<event>
 7    1  0.6510186E-006  0.6387540E+02  0.7818608E-02  0.1507288E+00
          2   -1    0    0  502    0  0.00000000000E+00  0.00000000000E+00  0.12743551820E+04  0.12743551820E+04  0.00000000000E+00 0. -1.
          1   -1    0    0  501    0 -0.00000000000E+00 -0.00000000000E+00 -0.22060858697E+03  0.22060858697E+03  0.00000000000E+00 0. -1.
         25    2    1    2    0    0 -0.48315529035E+02  0.77364880250E+01 -0.15893448084E+03  0.20803589821E+03  0.12499808858E+03 0.  0.
          2    1    1    2  501    0 -0.14301722299E+02 -0.20756530571E+02 -0.31926738620E+02  0.40677874341E+02  0.00000000000E+00 0. -1.
          1    1    1    2  502    0  0.62617251334E+02  0.13020042546E+02  0.12446078145E+04  0.12462499965E+04  0.00000000000E+00 0. -1.
         22    1    3    3    0    0  0.13827374133E+02  0.23871056838E+02 -0.13766400862E+03  0.14040086502E+03  0.00000000000E+00 0. -1.
         22    1    3    3    0    0 -0.62142903168E+02 -0.16134568813E+02 -0.21270472221E+02  0.67635033182E+02  0.00000000000E+00 0. -1.
</event>
<event>
 7    1  0.6510186E-006  0.5501057E+02  0.7818608E-02  0.1542034E+00
          2   -1    0    0  502    0  0.00000000000E+00  0.00000000000E+00  0.21333549636E+04  0.21333549636E+04  0.00000000000E+00 0. -1.
          1   -1    0    0  501    0 -0.00000000000E+00 -0.00000000000E+00 -0.10116890414E+03  0.10116890414E+03  0.00000000000E+00 0. -1.
         25    2    1    2    0    0 -0.22627014069E+02  0.69861411687E+02  0.51767534291E+03  0.53759274283E+03  0.12500239147E+03 0.  0.
          2    1    1    2  501    0  0.27746301017E+02 -0.47198582943E+02 -0.82902024109E+02  0.99349429054E+02  0.00000000000E+00 0. -1.
          1    1    1    2  502    0 -0.51192869474E+01 -0.22662828744E+02  0.15974127407E+04  0.15975816959E+04  0.00000000000E+00 0. -1.
         22    1    3    3    0    0  0.41803041566E+02 -0.64889886414E+01  0.20595322900E+03  0.21025302327E+03  0.00000000000E+00 0. -1.
         22    1    3    3    0    0 -0.64430055636E+02  0.76350400328E+02  0.31172211391E+03  0.32733971956E+03  0.00000000000E+00 0. -1.
</event>
<event>
 7    1  0.6510186E-006  0.7150285E+02  0.7818608E-02  0.1433016E+00
          2   -1    0    0  502    0  0.00000000000E+00  0.00000000000E+00  0.36129732523E+03  0.36129732523E+03  0.00000000000E+00 0. -1.
          1   -1    0    0  501    0 -0.00000000000E+00 -0.00000000000E+00 -0.22162072672E+04  0.22162072672E+04  0.00000000000E+00 0. -1.
         25    2    1    2    0    0 -0.43448975526E+02  0.97041036631E+02 -0.28784069223E+03  0.33133452133E+03  0.12500209861E+03 0.  0.
          2    1    1    2  501    0  0.18333221346E+02 -0.68071207463E+02 -0.19048832051E+04  0.19061872472E+04  0.00000000000E+00 0. -1.
          1    1    1    2  502    0  0.25115754180E+02 -0.28969829168E+02  0.33781395536E+03  0.33998282390E+03  0.00000000000E+00 0. -1.
         22    1    3    3    0    0 -0.23364726239E+02  0.12526192436E+03 -0.20277864226E+03  0.23949037117E+03  0.00000000000E+00 0.  1.
         22    1    3    3    0    0 -0.20084249287E+02 -0.28220887729E+02 -0.85062049970E+02  0.91844150161E+02  0.00000000000E+00 0.  1.
</event>
<event>
 7    1  0.6510186E-006  0.6435756E+02  0.7818608E-02  0.1535697E+00
          2   -1    0    0  502    0  0.00000000000E+00  0.00000000000E+00  0.31727770332E+03  0.31727770332E+03  0.00000000000E+00 0. -1.
          1   -1    0    0  501    0 -0.00000000000E+00 -0.00000000000E+00 -0.93739489897E+03  0.93739489897E+03  0.00000000000E+00 0. -1.
         25    2    1    2    0    0  0.38009287113E+02  0.64937945925E+02 -0.52028340394E+03  0.54035460545E+03  0.12500654579E+03 0.  0.
          2    1    1    2  501    0 -0.43032502223E+02 -0.44859709372E+02 -0.40434943145E+03  0.40909980749E+03  0.00000000000E+00 0. -1.
          1    1    1    2  502    0  0.50232151105E+01 -0.20078236553E+02  0.30451563973E+03  0.30521818936E+03  0.00000000000E+00 0. -1.
         22    1    3    3    0    0 -0.45827242819E+02  0.31683899643E+02 -0.19795106654E+03  0.20564199577E+03  0.00000000000E+00 0. -1.
         22    1    3    3    0    0  0.83836529932E+02  0.33254046282E+02 -0.32233233740E+03  0.33471260968E+03  0.00000000000E+00 0. -1.
</event>
<event>
 7    1  0.6510186E-006  0.1609309E+03  0.7818608E-02  0.1207873E+00
          2   -1    0    0  502    0  0.00000000000E+00  0.00000000000E+00  0.14587192957E+04  0.14587192957E+04  0.00000000000E+00 0. -1.
          1   -1    0    0  501    0 -0.00000000000E+00 -0.00000000000E+00 -0.29624502210E+03  0.29624502210E+03  0.00000000000E+00 0. -1.
         25    2    1    2    0    0  0.11367656639E+01 -0.18793544994E+02  0.22500929023E+03  0.25809356193E+03  0.12501446496E+03 0.  0.
          2    1    1    2  501    0  0.13258001196E+03 -0.91221156731E+02 -0.24974207234E+03  0.29710244311E+03  0.00000000000E+00 0. -1.
          1    1    1    2  502    0 -0.13371677762E+03  0.11001470172E+03  0.11872070557E+04  0.11997683128E+04  0.00000000000E+00 0. -1.
         22    1    3    3    0    0 -0.32181256448E+02  0.38330539315E+02  0.48877520809E+02  0.69956240259E+02  0.00000000000E+00 0. -1.
         22    1    3    3    0    0  0.33318022112E+02 -0.57124084309E+02  0.17613176942E+03  0.18813732167E+03  0.00000000000E+00 0. -1.
</event>
<event>
 7    1  0.6510186E-006  0.1194496E+03  0.7818608E-02  0.1434437E+00
          2   -1    0    0  502    0  0.00000000000E+00  0.00000000000E+00  0.10686225688E+04  0.10686225688E+04  0.00000000000E+00 0. -1.
          1   -1    0    0  501    0 -0.00000000000E+00 -0.00000000000E+00 -0.16823641361E+04  0.16823641361E+04  0.00000000000E+00 0. -1.
         25    2    1    2    0    0  0.93217997238E+02 -0.62747870709E+02  0.23944130579E+03  0.29254874022E+03  0.12500294476E+03 0.  0.
          2    1    1    2  501    0 -0.10979500146E+03  0.47230417177E+02 -0.16534922847E+04  0.16578064997E+04  0.00000000000E+00 0. -1.
          1    1    1    2  502    0  0.16577004218E+02  0.15517453532E+02  0.80030941168E+03  0.80063146507E+03  0.00000000000E+00 0. -1.
         22    1    3    3    0    0  0.18249975276E+02 -0.85132303824E+02  0.15236212594E+03  0.17548443855E+03  0.00000000000E+00 0.  1.
         22    1    3    3    0    0  0.74968021963E+02  0.22384433115E+02  0.87079179846E+02  0.11706430167E+03  0.00000000000E+00 0.  1.
</event>
<event>
 7    1  0.6510186E-006  0.7985945E+02  0.7818608E-02  0.1418941E+00
          2   -1    0    0  502    0  0.00000000000E+00  0.00000000000E+00  0.28339052372E+04  0.28339052372E+04  0.00000000000E+00 0. -1.
          1   -1    0    0  501    0 -0.00000000000E+00 -0.00000000000E+00 -0.21421204747E+02  0.21421204747E+02  0.00000000000E+00 0. -1.
         25    2    1    2    0    0 -0.89854933187E+02  0.41583842698E+02  0.15565808447E+04  0.15647274878E+04  0.12500023942E+03 0.  0.
          2    1    1    2  501    0  0.14381698188E+02 -0.35408888487E+02  0.63364814203E+01  0.38739819611E+02  0.00000000000E+00 0. -1.
          1    1    1    2  502    0  0.75473234999E+02 -0.61749542113E+01  0.12495667063E+04  0.12518591345E+04  0.00000000000E+00 0. -1.
         22    1    3    3    0    0 -0.45064086766E+02  0.75315675169E+02  0.12488190606E+04  0.12518994644E+04  0.00000000000E+00 0. -1.
         22    1    3    3    0    0 -0.44790846421E+02 -0.33731832471E+02  0.30776178418E+03  0.31282802343E+03  0.00000000000E+00 0. -1.
</event>
<event>
 7    1  0.6510186E-006  0.1218187E+03  0.7818608E-02  0.1430881E+00
          2   -1    0    0  502    0  0.00000000000E+00  0.00000000000E+00  0.34011941364E+02  0.34011941364E+02  0.00000000000E+00 0. -1.
          1   -1    0    0  501    0 -0.00000000000E+00 -0.00000000000E+00 -0.16019486113E+04  0.16019486113E+04  0.00000000000E+00 0. -1.
         25    2    1    2    0    0 -0.10436602682E+03  0.76356625584E+02 -0.32805617367E+03  0.37412306982E+03  0.12499846586E+03 0.  0.
          2    1    1    2  501    0  0.16154754512E+01 -0.22813723513E+02 -0.94110146396E+03  0.94137932907E+03  0.00000000000E+00 0. -1.
          1    1    1    2  502    0  0.10275055137E+03 -0.53542902071E+02 -0.29877903235E+03  0.32045815380E+03  0.00000000000E+00 0. -1.
         22    1    3    3    0    0 -0.11325843970E+03  0.37733573046E+02 -0.30667310959E+03  0.32908918676E+03  0.00000000000E+00 0. -1.
         22    1    3    3    0    0  0.88924128758E+01  0.38623052538E+02 -0.21383064076E+02  0.45033883060E+02  0.00000000000E+00 0. -1.
</event>
<event>
 7    1  0.6510186E-006  0.1524347E+03  0.7818608E-02  0.1295790E+00
          2   -1    0    0  502    0  0.00000000000E+00  0.00000000000E+00  0.22112779998E+04  0.22112779998E+04  0.00000000000E+00 0. -1.
          1   -1    0    0  501    0 -0.00000000000E+00 -0.00000000000E+00 -0.12531064687E+04  0.12531064687E+04  0.00000000000E+00 0. -1.
         25    2    1    2    0    0 -0.12727154809E+03 -0.25726084105E+02  0.17671477185E+04  0.17763140130E+04  0.12498213961E+03 0.  0.
          2    1    1    2  501    0  0.15026420028E+03 -0.26119518162E+02 -0.12420094615E+04  0.12513389075E+04  0.00000000000E+00 0. -1.
          1    1    1    2  502    0 -0.22992652195E+02  0.51845602267E+02  0.43303327407E+03  0.43673154796E+03  0.00000000000E+00 0. -1.
         22    1    3    3    0    0 -0.27818741686E+02  0.45253865134E+02  0.36387486704E+03  0.36773185008E+03  0.00000000000E+00 0.  1.
         22    1    3    3    0    0 -0.99452806402E+02 -0.70979949239E+02  0.14032728515E+04  0.14085821629E+04  0.00000000000E+00 0.  1.
</event>
<event>
 7    1  0.6510186E-006  0.1206856E+03  0.7818608E-02  0.1262628E+00
          2   -1    0    0  502    0  0.00000000000E+00  0.00000000000E+00  0.30515023785E+03  0.30515023785E+03  0.00000000000E+00 0. -1.
          1   -1    0    0  501    0 -0.00000000000E+00 -0.00000000000E+00 -0.63362260292E+03  0.63362260292E+03  0.00000000000E+00 0. -1.
         25    2    1    2    0    0  0.64019892183E+02 -0.15996217104E+03 -0.17833045990E+03  0.27769322940E+03  0.12500133586E+03 0.  0.
          2    1    1    2  501    0  0.22567381866E+02  0.11351490182E+03 -0.38737932196E+03  0.40429897198E+03  0.00000000000E+00 0. -1.
          1    1    1    2  502    0 -0.86587274049E+02  0.46447269212E+02  0.23723741679E+03  0.25678063939E+03  0.00000000000E+00 0. -1.
         22    1    3    3    0    0  0.37513370421E+02  0.97470178688E+01 -0.50092696855E+02  0.63336684440E+02  0.00000000000E+00 0. -1.
         22    1    3    3    0    0  0.26506521762E+02 -0.16970918890E+03 -0.12823776305E+03  0.21435654496E+03  0.00000000000E+00 0. -1.
</event>
<event>
 7    1  0.6510186E-006  0.8113385E+02  0.7818608E-02  0.1417378E+00
          2   -1    0    0  502    0  0.00000000000E+00  0.00000000000E+00  0.24755703703E+04  0.24755703703E+04  0.00000000000E+00 0. -1.
          1   -1    0    0  501    0 -0.00000000000E+00 -0.00000000000E+00 -0.19498119584E+02  0.19498119584E+02  0.00000000000E+00 0. -1.
         25    2    1    2    0    0 -0.10106114274E+03 -0.44791791225E+02  0.13067368361E+04  0.13173465076E+04  0.12498401162E+03 0.  0.
          2    1    1    2  501    0  0.37657628221E+02  0.56151413747E+01  0.14970691392E+02  0.40911469989E+02  0.00000000000E+00 0. -1.
          1    1    1    2  502    0  0.63403514519E+02  0.39176649850E+02  0.11343647232E+04  0.11368105123E+04  0.00000000000E+00 0. -1.
         22    1    3    3    0    0 -0.28849300621E+02  0.24296017837E+02  0.10697299424E+03  0.11342751045E+03  0.00000000000E+00 0. -1.
         22    1    3    3    0    0 -0.72211842119E+02 -0.69087809062E+02  0.11997638418E+04  0.12039189971E+04  0.00000000000E+00 0. -1.
</event>
<event>
 7    1  0.6510186E-006  0.1091305E+03  0.7818608E-02  0.1327561E+00
          2   -1    0    0  502    0  0.00000000000E+00  0.00000000000E+00  0.66909913297E+02  0.66909913297E+02  0.00000000000E+00 0. -1.
          1   -1    0    0  501    0 -0.00000000000E+00 -0.00000000000E+00 -0.21566051231E+04  0.21566051231E+04  0.00000000000E+00 0. -1.
         25    2    1    2    0    0 -0.56795930038E+02  0.69160531541E+02 -0.84358140255E+03  0.85747648559E+03  0.12500953490E+03 0.  0.
          2    1    1    2  501    0  0.23201439728E+02 -0.11817395421E+03 -0.12878218528E+04  0.12934405726E+04  0.00000000000E+00 0. -1.
          1    1    1    2  502    0  0.33594490310E+02  0.49013422674E+02  0.41708045536E+02  0.72597978235E+02  0.00000000000E+00 0. -1.
         22    1    3    3    0    0 -0.61131191572E+02  0.10284542204E+03 -0.67163900952E+03  0.68221196305E+03  0.00000000000E+00 0. -1.
         22    1    3    3    0    0  0.43352615341E+01 -0.33684890496E+02 -0.17194239303E+03  0.17526452254E+03  0.00000000000E+00 0. -1.
</event>
<event>
 7    1  0.6510186E-006  0.7945258E+02  0.7818608E-02  0.1375228E+00
          2   -1    0    0  502    0  0.00000000000E+00  0.00000000000E+00  0.28367871865E+04  0.28367871865E+04  0.00000000000E+00 0. -1.
          1   -1    0    0  501    0 -0.00000000000E+00 -0.00000000000E+00 -0.18498404097E+02  0.18498404097E+02  0.00000000000E+00 0. -1.
         25    2    1    2    0    0 -0.49146703457E+02  0.66606235844E+02  0.15930646566E+04  0.16001039147E+04  0.12500299416E+03 0.  0.
          2    1    1    2  501    0 -0.34709043407E+01 -0.80361242553E+02  0.98608549102E+02  0.12725416472E+03  0.00000000000E+00 0. -1.
          1    1    1    2  502    0  0.52617607797E+02  0.13755006709E+02  0.11266155767E+04  0.11279275112E+04  0.00000000000E+00 0. -1.
         22    1    3    3    0    0  0.18972939859E+02  0.34548172310E+02  0.15048929348E+03  0.15556534353E+03  0.00000000000E+00 0. -1.
         22    1    3    3    0    0 -0.68119643316E+02  0.32058063534E+02  0.14425753631E+04  0.14445385711E+04  0.00000000000E+00 0. -1.
</event>
<event>
 7    1  0.6510186E-006  0.9170535E+02  0.7818608E-02  0.1314875E+00
          2   -1    0    0  502    0  0.00000000000E+00  0.00000000000E+00  0.20074107642E+04  0.20074107642E+04  0.00000000000E+00 0. -1.
          1   -1    0    0  501    0 -0.00000000000E+00 -0.00000000000E+00 -0.10733173425E+04  0.10733173425E+04  0.00000000000E+00 0. -1.
         25    2    1    2    0    0 -0.23191808873E+02  0.14127694790E+03 -0.33193661857E+02  0.19291490885E+03  0.12496922366E+03 0.  0.
          2    1    1    2  501    0  0.56006097863E+02 -0.55973226698E+02 -0.95754457414E+03  0.96081283119E+03  0.00000000000E+00 0. -1.
          1    1    1    2  502    0 -0.32814288989E+02 -0.85303721202E+02  0.19248316577E+04  0.19270003667E+04  0.00000000000E+00 0. -1.
         22    1    3    3    0    0 -0.28701989274E+02  0.13808561029E+03  0.17234664921E+02  0.14208614863E+03  0.00000000000E+00 0.  1.
         22    1    3    3    0    0  0.55101804010E+01  0.31913376122E+01 -0.50428326778E+02  0.50828760219E+02  0.00000000000E+00 0.  1.
</event>
<event>
 7    1  0.6510186E-006  0.1335236E+03  0.7818608E-02  0.1373123E+00
          2   -1    0    0  502    0  0.00000000000E+00  0.00000000000E+00  0.24946235917E+03  0.24946235917E+03  0.00000000000E+00 0. -1.
          1   -1    0    0  501    0 -0.00000000000E+00 -0.00000000000E+00 -0.24152443148E+03  0.24152443148E+03  0.00000000000E+00 0. -1.
         25    2    1    2    0    0 -0.14690878641E+03  0.24731557840E+02  0.11135521710E+03  0.22409355388E+03  0.12499638009E+03 0.  0.
          2    1    1    2  501    0  0.13160408369E+03  0.44226933834E+01 -0.15643810160E+03  0.20448001050E+03  0.00000000000E+00 0. -1.
          1    1    1    2  502    0  0.15304702721E+02 -0.29154251223E+02  0.53020812188E+02  0.62413226282E+02  0.00000000000E+00 0. -1.
         22    1    3    3    0    0  0.21376075281E+02  0.13884949991E+02  0.10254446976E+02  0.27475118079E+02  0.00000000000E+00 0.  1.
         22    1    3    3    0    0 -0.16828486169E+03  0.10846607849E+02  0.10110077013E+03  0.19661843580E+03  0.00000000000E+00 0.  1.
</event>
<event>
 7    1  0.6510186E-006  0.1359904E+03  0.7818608E-02  0.1349120E+00
          2   -1    0    0  502    0  0.00000000000E+00  0.00000000000E+00  0.16927605184E+04  0.16927605184E+04  0.00000000000E+00 0. -1.
          1   -1    0    0  501    0 -0.00000000000E+00 -0.00000000000E+00 -0.23458327015E+04  0.23458327015E+04  0.00000000000E+00 0. -1.
         25    2    1    2    0    0 -0.31983636862E+02 -0.14315647142E+03  0.93313490525E+00  0.19273052156E+03  0.12500981907E+03 0.  0.
          2    1    1    2  501    0 -0.68494233106E+01  0.13570135928E+03 -0.22476371675E+04  0.22517403514E+04  0.00000000000E+00 0. -1.
          1    1    1    2  502    0  0.38833060172E+02  0.74551121445E+01  0.15936318495E+04  0.15941223470E+04  0.00000000000E+00 0. -1.
         22    1    3    3    0    0 -0.63996097665E+02 -0.74398258173E+02 -0.40664394201E+02  0.10622708831E+03  0.00000000000E+00 0.  1.
         22    1    3    3    0    0  0.32012460803E+02 -0.68758213250E+02  0.41597529106E+02  0.86503433248E+02  0.00000000000E+00 0.  1.
</event>
<event>
 7    1  0.6510186E-006  0.8749848E+02  0.7818608E-02  0.1324511E+00
          2   -1    0    0  502    0  0.00000000000E+00  0.00000000000E+00  0.16436329242E+04  0.16436329242E+04  0.00000000000E+00 0. -1.
          1   -1    0    0  501    0 -0.00000000000E+00 -0.00000000000E+00 -0.30923238208E+03  0.30923238208E+03  0.00000000000E+00 0. -1.
         25    2    1    2    0    0  0.27097281523E+02 -0.10556703758E+03 -0.65935004082E+02  0.17846437342E+03  0.12499378276E+03 0.  0.
          2    1    1    2  501    0  0.43394723946E+02  0.76789794232E+02 -0.17566331078E+03  0.19656391662E+03  0.00000000000E+00 0. -1.
          1    1    1    2  502    0 -0.70492005470E+02  0.28777243346E+02  0.15759988570E+04  0.15778370162E+04  0.00000000000E+00 0. -1.
         22    1    3    3    0    0  0.73207160424E+02 -0.40039849729E+02 -0.48333736122E+02  0.96429393605E+02  0.00000000000E+00 0.  1.
         22    1    3    3    0    0 -0.46109878900E+02 -0.65527187849E+02 -0.17601267960E+02  0.82034979816E+02  0.00000000000E+00 0.  1.
</event>
<event>
 7    1  0.6510186E-006  0.2582177E+03  0.7818608E-02  0.1254974E+00
          2   -1    0    0  502    0  0.00000000000E+00  0.00000000000E+00  0.10751958687E+04  0.10751958687E+04  0.00000000000E+00 0. -1.
          1   -1    0    0  501    0 -0.00000000000E+00 -0.00000000000E+00 -0.25330785924E+03  0.25330785924E+03  0.00000000000E+00 0. -1.
         25    2    1    2    0    0 -0.29682991196E+02 -0.21401748361E+03  0.43656346907E+03  0.50288675450E+03  0.12499144799E+03 0.  0.
          2    1    1    2  501    0  0.40612846182E+02  0.26231481761E+03 -0.13853872900E+03  0.29941851353E+03  0.00000000000E+00 0. -1.
          1    1    1    2  502    0 -0.10929854986E+02 -0.48297333995E+02  0.52386326942E+03  0.52619845995E+03  0.00000000000E+00 0. -1.
         22    1    3    3    0    0  0.27841897728E+02 -0.72163170344E+02  0.24928336622E+03  0.26100745411E+03  0.00000000000E+00 0. -1.
         22    1    3    3    0    0 -0.57524888924E+02 -0.14185431327E+03  0.18728010285E+03  0.24187930040E+03  0.00000000000E+00 0. -1.
</event>
<event>
 7    1  0.6510186E-006  0.1476926E+03  0.7818608E-02  0.1276033E+00
          2   -1    0    0  502    0  0.00000000000E+00  0.00000000000E+00  0.89298910277E+03  0.89298910277E+03  0.00000000000E+00 0. -1.
          1   -1    0    0  501    0 -0.00000000000E+00 -0.00000000000E+00 -0.95083120828E+03  0.95083120828E+03  0.00000000000E+00 0. -1.
         25    2    1    2    0    0 -0.59445949830E+02 -0.13694837178E+03  0.44244372291E+02  0.19968132403E+03  0.12500555669E+03 0.  0.
          2    1    1    2  501    0  0.69546256249E+02 -0.11675582108E+02 -0.86446821415E+03  0.86733978016E+03  0.00000000000E+00 0. -1.
          1    1    1    2  502    0 -0.10100306419E+02  0.14862395389E+03  0.76238173635E+03  0.77679920686E+03  0.00000000000E+00 0. -1.
         22    1    3    3    0    0 -0.38614026981E+02 -0.61816782902E+02 -0.41433020932E+02  0.83839447467E+02  0.00000000000E+00 0. -1.
         22    1    3    3    0    0 -0.20831922850E+02 -0.75131588877E+02  0.85677393223E+02  0.11584187657E+03  0.00000000000E+00 0. -1.
</event>
<event>
 7    1  0.6510186E-006  0.1621683E+03  0.7818608E-02  0.1335668E+00
          2   -1    0    0  502    0  0.00000000000E+00  0.00000000000E+00  0.65195153730E+03  0.65195153730E+03  0.00000000000E+00 0. -1.
          1   -1    0    0  501    0 -0.00000000000E+00 -0.00000000000E+00 -0.64988400428E+03  0.64988400428E+03  0.00000000000E+00 0. -1.
         25    2    1    2    0    0 -0.74777244501E+02 -0.10586989572E+03  0.33356202478E+02  0.18313391526E+03  0.12500129423E+03 0.  0.
          2    1    1    2  501    0  0.87304188504E+02  0.14094131631E+03 -0.56237876898E+03  0.58630739018E+03  0.00000000000E+00 0. -1.
          1    1    1    2  502    0 -0.12526944003E+02 -0.35071420593E+02  0.53109009952E+03  0.53239423614E+03  0.00000000000E+00 0. -1.
         22    1    3    3    0    0 -0.95820135076E+02 -0.28804935266E+02  0.21977631624E+02  0.10244139238E+03  0.00000000000E+00 0.  1.
         22    1    3    3    0    0  0.21042890575E+02 -0.77064960454E+02  0.11378570854E+02  0.80692522877E+02  0.00000000000E+00 0.  1.
</event>
<event>
 7    1  0.6510186E-006  0.4762573E+02  0.7818608E-02  0.1576853E+00
          2   -1    0    0  502    0  0.00000000000E+00  0.00000000000E+00  0.18979277671E+04  0.18979277671E+04  0.00000000000E+00 0. -1.
          1   -1    0    0  501    0 -0.00000000000E+00 -0.00000000000E+00 -0.60386073558E+03  0.60386073558E+03  0.00000000000E+00 0. -1.
         25    2    1    2    0    0 -0.27456452002E+02 -0.24155222476E+02  0.57742412868E+03  0.59192887403E+03  0.12499534390E+03 0.  0.
          2    1    1    2  501    0  0.45846617407E+02  0.12983255125E+02 -0.59556860594E+03  0.59747170780E+03  0.00000000000E+00 0. -1.
          1    1    1    2  502    0 -0.18390165405E+02  0.11171967351E+02  0.13122115087E+04  0.13123879208E+04  0.00000000000E+00 0. -1.
         22    1    3    3    0    0 -0.28818484271E+02  0.42620860890E+02  0.13463105715E+03  0.14412690370E+03  0.00000000000E+00 0. -1.
         22    1    3    3    0    0  0.13620322696E+01 -0.66776083366E+02  0.44279307153E+03  0.44780197033E+03  0.00000000000E+00 0. -1.
</event>
<event>
 7    1  0.6510186E-006  0.6964340E+02  0.7818608E-02  0.1381596E+00
          2   -1    0    0  502    0  0.00000000000E+00  0.00000000000E+00  0.50836976951E+03  0.50836976951E+03  0.00000000000E+00 0. -1.
          1   -1    0    0  501    0 -0.00000000000E+00 -0.00000000000E+00 -0.57030322850E+02  0.57030322850E+02  0.00000000000E+00 0. -1.
         25    2    1    2    0    0 -0.23745802596E+02  0.20248677525E+02  0.12588984654E+03  0.18013452825E+03  0.12500529078E+03 0.  0.
          2    1    1    2  501    0 -0.53851678521E+02 -0.23854418582E+02  0.91970040077E+01  0.59612259210E+02  0.00000000000E+00 0. -1.
          1    1    1    2  502    0  0.77597481117E+02  0.36057410576E+01  0.31625259612E+03  0.32565330490E+03  0.00000000000E+00 0. -1.
         22    1    3    3    0    0  0.46191209886E+02  0.29252944816E+02  0.34294323118E+02  0.64540400132E+02  0.00000000000E+00 0. -1.
         22    1    3    3    0    0 -0.69937012482E+02 -0.90042672914E+01  0.91595523422E+02  0.11559412812E+03  0.00000000000E+00 0. -1.
</event>
<event>
 7    1  0.6510186E-006  0.1470619E+03  0.7818608E-02  0.1282529E+00
          2   -1    0    0  502    0  0.00000000000E+00  0.00000000000E+00  0.87212342086E+03  0.87212342086E+03  0.00000000000E+00 0. -1.
          1   -1    0    0  501    0 -0.00000000000E+00 -0.00000000000E+00 -0.32025355677E+03  0.32025355677E+03  0.00000000000E+00 0. -1.
         25    2    1    2    0    0 -0.92126365989E+00 -0.10069461706E+03 -0.19583173331E+01  0.16052780366E+03  0.12500034444E+03 0.  0.
          2    1    1    2  501    0 -0.52053907877E+02 -0.41499617820E+02 -0.22692422094E+03  0.23648769451E+03  0.00000000000E+00 0. -1.
          1    1    1    2  502    0  0.52975171537E+02  0.14219423488E+03  0.78075240236E+03  0.79536147946E+03  0.00000000000E+00 0. -1.
         22    1    3    3    0    0  0.24917768430E+02 -0.11818775779E+03 -0.22914389705E+02  0.12294027220E+03  0.00000000000E+00 0. -1.
         22    1    3    3    0    0 -0.25839032090E+02  0.17493140729E+02  0.20956072372E+02  0.37587531458E+02  0.00000000000E+00 0. -1.
</event>
<event>
 7    1  0.6510186E-006  0.4500932E+02  0.7818608E-02  0.1558573E+00
          2   -1    0    0  502    0  0.00000000000E+00  0.00000000000E+00  0.74636673673E+02  0.74636673673E+02  0.00000000000E+00 0. -1.
          1   -1    0    0  501    0 -0.00000000000E+00 -0.00000000000E+00 -0.15965185916E+03  0.15965185916E+03  0.00000000000E+00 0. -1.
         25    2    1    2    0    0 -0.15640735090E+02  0.29096879380E+02 -0.81077221886E+02  0.15260892406E+03  0.12499882724E+03 0.  0.
          2    1    1    2  501    0  0.58229107939E+01 -0.52669803912E+02 -0.13037634895E+02  0.54571003819E+02  0.00000000000E+00 0. -1.
          1    1    1    2  502    0  0.98178242964E+01  0.23572924532E+02  0.90996712935E+01  0.27108604954E+02  0.00000000000E+00 0. -1.
         22    1    3    3    0    0  0.44447218697E+02 -0.12269751158E+02 -0.36887612179E+01  0.46256988690E+02  0.00000000000E+00 0. -1.
         22    1    3    3    0    0 -0.60087953787E+02  0.41366630538E+02 -0.77388460668E+02  0.10635193537E+03  0.00000000000E+00 0. -1.
</event>
<event>
 7    1  0.6510186E-006  0.1020791E+03  0.7818608E-02  0.1364449E+00
          2   -1    0    0  502    0  0.00000000000E+00  0.00000000000E+00  0.21087245058E+04  0.21087245058E+04  0.00000000000E+00 0. -1.
          1   -1    0    0  501    0 -0.00000000000E+00 -0.00000000000E+00 -0.44286178368E+03  0.44286178368E+03  0.00000000000E+00 0. -1.
         25    2    1    2    0    0  0.85186593399E+01 -0.70506068376E+02 -0.23885016830E+02  0.14573494566E+03  0.12499802848E+03 0.  0.
          2    1    1    2  501    0 -0.36715383436E+02 -0.28178709646E+02 -0.35526384629E+03  0.35826590619E+03  0.00000000000E+00 0. -1.
          1    1    1    2  502    0  0.28196724096E+02  0.98684778022E+02  0.20450115853E+04  0.20475854377E+04  0.00000000000E+00 0. -1.
         22    1    3    3    0    0 -0.36376612850E+02 -0.63642804857E+02 -0.54168464301E+02  0.91147611582E+02  0.00000000000E+00 0. -1.
         22    1    3    3    0    0  0.44895272190E+02 -0.68632635193E+01  0.30283447471E+02  0.54587334079E+02  0.00000000000E+00 0. -1.
</event>
<event>
 7    1  0.6510186E-006  0.4933087E+02  0.7818608E-02  0.1457490E+00
          2   -1    0    0  502    0  0.00000000000E+00  0.00000000000E+00  0.10731841061E+04  0.10731841061E+04  0.00000000000E+00 0. -1.
          1   -1    0    0  501    0 -0.00000000000E+00 -0.00000000000E+00 -0.24348570451E+04  0.24348570451E+04  0.00000000000E+00 0. -1.
         25    2    1    2    0    0  0.55474219502E+00 -0.93747535486E+02  0.20332443599E+03  0.25642560545E+03  0.12499742682E+03 0.  0.
          2    1    1    2  501    0  0.91500530015E+01  0.48427194772E+02 -0.24074172520E+04  0.24079216644E+04  0.00000000000E+00 0. -1.
          1    1    1    2  502    0 -0.97047951965E+01  0.45320340714E+02  0.84241987696E+03  0.84369388135E+03  0.00000000000E+00 0. -1.
         22    1    3    3    0    0 -0.14901684262E+02 -0.83243257001E+02  0.42732593896E+02  0.94750063911E+02  0.00000000000E+00 0.  1.
         22    1    3    3    0    0  0.15456426457E+02 -0.10504278484E+02  0.16059184209E+03  0.16167554154E+03  0.00000000000E+00 0.  1.
</event>
<event>
 7    1  0.6510186E-006  0.4455843E+02  0.7818608E-02  0.1582812E+00
          2   -1    0    0  502    0  0.00000000000E+00  0.00000000000E+00  0.90176984225E+03  0.90176984225E+03  0.00000000000E+00 0. -1.
          1   -1    0    0  501    0 -0.00000000000E+00 -0.00000000000E+00 -0.34212094536E+03  0.34212094536E+03  0.00000000000E+00 0. -1.
         25    2    1    2    0    0 -0.54592785769E+02  0.22781710786E+02  0.30870879745E+03  0.33826837667E+03  0.12499997770E+03 0.  0.
          2    1    1    2  501    0  0.33429372847E+02 -0.29379162399E+02 -0.32561447979E+03  0.32864182266E+03  0.00000000000E+00 0. -1.
          1    1    1    2  502    0  0.21163412922E+02  0.65974516131E+01  0.57655457924E+03  0.57698058828E+03  0.00000000000E+00 0. -1.
         22    1    3    3    0    0  0.31696366801E+02  0.59216390083E+01  0.17698141250E+03  0.17989481884E+03  0.00000000000E+00 0. -1.
         22    1    3    3    0    0 -0.86289152570E+02  0.16860071777E+02  0.13172738495E+03  0.15837355783E+03  0.00000000000E+00 0. -1.
</event>
<event>
 7    1  0.6510186E-006  0.9252380E+02  0.7818608E-02  0.1390525E+00
          2   -1    0    0  502    0  0.00000000000E+00  0.00000000000E+00  0.56033670834E+03  0.56033670834E+03  0.00000000000E+00 0. -1.
          1   -1    0    0  501    0 -0.00000000000E+00 -0.00000000000E+00 -0.30988851199E+04  0.30988851199E+04  0.00000000000E+00 0. -1.
         25    2    1    2    0    0 -0.92082596150E+02 -0.48695758066E+02 -0.66695170873E+02  0.17585604325E+03  0.12500648288E+03 0.  0.
          2    1    1    2  501    0  0.92179874785E+02  0.74490634022E+01 -0.29760490682E+04  0.29774856295E+04  0.00000000000E+00 0. -1.
          1    1    1    2  502    0 -0.97278635028E-01  0.41246694664E+02  0.50419582747E+03  0.50588015549E+03  0.00000000000E+00 0. -1.
         22    1    3    3    0    0 -0.76059369376E+01  0.17801695210E+02  0.27017307187E+02  0.33236809665E+02  0.00000000000E+00 0. -1.
         22    1    3    3    0    0 -0.84476659212E+02 -0.66497453277E+02 -0.93712478060E+02  0.14261923358E+03  0.00000000000E+00 0. -1.
</event>
<event>
 7    1  0.6510186E-006  0.2205070E+03  0.7818608E-02  0.1200926E+00
          2   -1    0    0  502    0  0.00000000000E+00  0.00000000000E+00  0.10290494932E+04  0.10290494932E+04  0.00000000000E+00 0. -1.
          1   -1    0    0  501    0 -0.00000000000E+00 -0.00000000000E+00 -0.35133452804E+03  0.35133452804E+03  0.00000000000E+00 0. -1.
         25    2    1    2    0    0 -0.17777033737E+03  0.78228019399E+02  0.13481661344E+02  0.23136583023E+03  0.12500590522E+03 0.  0.
          2    1    1    2  501    0 -0.48349474337E+02 -0.89287390472E+02 -0.21678061059E+03  0.23938200202E+03  0.00000000000E+00 0. -1.
          1    1    1    2  502    0  0.22611981170E+03  0.11059371072E+02  0.88101391443E+03  0.90963618901E+03  0.00000000000E+00 0. -1.
         22    1    3    3    0    0 -0.11329228275E+03  0.94963486190E+02  0.49173139003E+02  0.15579217772E+03  0.00000000000E+00 0. -1.
         22    1    3    3    0    0 -0.64478054616E+02 -0.16735466791E+02 -0.35691477659E+02  0.75573652507E+02  0.00000000000E+00 0. -1.
</event>
<event>
 7    1  0.6510186E-006  0.8333564E+02  0.7818608E-02  0.1389185E+00
          2   -1    0    0  502    0  0.00000000000E+00  0.00000000000E+00  0.24811258312E+03  0.24811258312E+03  0.00000000000E+00 0. -1.
          1   -1    0    0  501    0 -0.00000000000E+00 -0.00000000000E+00 -0.33255535306E+04  0.33255535306E+04  0.00000000000E+00 0. -1.
         25    2    1    2    0    0  0.40425384383E+02  0.34096797216E+01 -0.75555459726E+02  0.15158957939E+03  0.12499974187E+03 0.  0.
          2    1    1    2  501    0  0.46266576373E+02 -0.14797685566E+01 -0.32028592527E+04  0.32031937466E+04  0.00000000000E+00 0. -1.
          1    1    1    2  502    0 -0.86691960756E+02 -0.19299111650E+01  0.20097376487E+03  0.21888278777E+03  0.00000000000E+00 0. -1.
         22    1    3    3    0    0  0.81250229899E+02 -0.19904610883E+02 -0.56028165070E+02  0.10068241492E+03  0.00000000000E+00 0. -1.
         22    1    3    3    0    0 -0.40824845516E+02  0.23314290604E+02 -0.19527294655E+02  0.50907164470E+02  0.00000000000E+00 0. -1.
</event>
<event>
 7    1  0.6510186E-006  0.1076233E+03  0.7818608E-02  0.1394457E+00
          2   -1    0    0  502    0  0.00000000000E+00  0.00000000000E+00  0.92265665478E+03  0.92265665478E+03  0.00000000000E+00 0. -1.
          1   -1    0    0  501    0 -0.00000000000E+00 -0.00000000000E+00 -0.24867270992E+03  0.24867270992E+03  0.00000000000E+00 0. -1.
         25    2    1    2    0    0 -0.57072483961E+02 -0.94635394144E+02  0.11255849060E+03  0.20126353563E+03  0.12499788286E+03 0.  0.
          2    1    1    2  501    0  0.32752387857E+02 -0.10390796743E+02 -0.19904650604E+03  0.20199059170E+03  0.00000000000E+00 0. -1.
          1    1    1    2  502    0  0.24320096105E+02  0.10502619089E+03  0.76047196031E+03  0.76807523737E+03  0.00000000000E+00 0. -1.
         22    1    3    3    0    0 -0.28040098723E+02 -0.12227317700E+03  0.74012493787E+02  0.14565310222E+03  0.00000000000E+00 0.  1.
         22    1    3    3    0    0 -0.29032385238E+02  0.27637782858E+02  0.38545996809E+02  0.55610433409E+02  0.00000000000E+00 0.  1.
</event>
<event>
 7    1  0.6510186E-006  0.5067727E+02  0.7818608E-02  0.1505230E+00
          2   -1    0    0  502    0  0.00000000000E+00  0.00000000000E+00  0.14992640977E+04  0.14992640977E+04  0.00000000000E+00 0. -1.
          1   -1    0    0  501    0 -0.00000000000E+00 -0.00000000000E+00 -0.42542443283E+03  0.42542443283E+03  0.00000000000E+00 0. -1.
         25    2    1    2    0    0  0.14906748491E+02  0.12483492702E+02  0.99094861833E+03  0.99899125297E+03  0.12500524226E+03 0.  0.
          2    1    1    2  501    0 -0.45655965169E+02 -0.22105993164E+02 -0.41935851279E+03  0.42241532210E+03  0.00000000000E+00 0. -1.
          1    1    1    2  502    0  0.30749216678E+02  0.96225004620E+01  0.50224955931E+03  0.50328195543E+03  0.00000000000E+00 0. -1.
         22    1    3    3    0    0  0.23865563041E+02  0.76525051669E+01  0.98810547856E+03  0.98842327102E+03  0.00000000000E+00 0. -1.
         22    1    3    3    0    0 -0.89588145505E+01  0.48309875350E+01  0.28431397740E+01  0.10567981950E+02  0.00000000000E+00 0. -1.
</event>
<event>
 7    1  0.6510186E-006  0.1134840E+03  0.7818608E-02  0.1259532E+00
          2   -1    0    0  502    0  0.00000000000E+00  0.00000000000E+00  0.16361486398E+04  0.16361486398E+04  0.00000000000E+00 0. -1.
          1   -1    0    0  501    0 -0.00000000000E+00 -0.00000000000E+00 -0.45240490937E+03  0.45240490937E+03  0.00000000000E+00 0. -1.
         25    2    1    2    0    0 -0.15627409492E+02  0.35001268358E+02  0.11833098607E+03  0.17634292602E+03  0.12500120231E+03 0.  0.
          2    1    1    2  501    0  0.11889234389E+03 -0.43578479306E+01 -0.41304313240E+03  0.42983602629E+03  0.00000000000E+00 0. -1.
          1    1    1    2  502    0 -0.10326493440E+03 -0.30643420428E+02  0.14784558768E+04  0.14823745969E+04  0.00000000000E+00 0. -1.
         22    1    3    3    0    0 -0.57696855453E+02 -0.27897037694E+01  0.16854568436E+02  0.60172967797E+02  0.00000000000E+00 0.  1.
         22    1    3    3    0    0  0.42069445961E+02  0.37790972128E+02  0.10147641763E+03  0.11616995822E+03  0.00000000000E+00 0.  1.
</event>
<event>
 7    1  0.6510186E-006  0.1518058E+03  0.7818608E-02  0.1276384E+00
          2   -1    0    0  502    0  0.00000000000E+00  0.00000000000E+00  0.22919721775E+03  0.22919721775E+03  0.00000000000E+00 0. -1.
          1   -1    0    0  501    0 -0.00000000000E+00 -0.00000000000E+00 -0.81597151302E+03  0.81597151302E+03  0.00000000000E+00 0. -1.
         25    2    1    2    0    0  0.31903634611E+02  0.16355326184E+03 -0.45319337128E+03  0.49877581670E+03  0.12500228877E+03 0.  0.
          2    1    1    2  501    0  0.55706430808E+02 -0.39654272257E+02 -0.30782925554E+03  0.31533239337E+03  0.00000000000E+00 0. -1.
          1    1    1    2  502    0 -0.87610065419E+02 -0.12389898958E+03  0.17424833154E+03  0.23106052070E+03  0.00000000000E+00 0. -1.
         22    1    3    3    0    0  0.40642573138E+02  0.13329773995E+03 -0.44489303687E+03  0.46620802276E+03  0.00000000000E+00 0. -1.
         22    1    3    3    0    0 -0.87389385272E+01  0.30255521884E+02 -0.83003344065E+01  0.32567793943E+02  0.00000000000E+00 0. -1.
</event>
<event>
 7    1  0.6510186E-006  0.6092570E+02  0.7818608E-02  0.1480450E+00
          2   -1    0    0  502    0  0.00000000000E+00  0.00000000000E+00  0.51859608047E+03  0.51859608047E+03  0.00000000000E+00 0. -1.
          1   -1    0    0  501    0 -0.00000000000E+00 -0.00000000000E+00 -0.18400488799E+04  0.18400488799E+04  0.00000000000E+00 0. -1.
         25    2    1    2    0    0  0.59415870352E+02 -0.39152673023E+01 -0.23723708951E+03  0.27468493629E+03  0.12499921048E+03 0.  0.
          2    1    1    2  501    0 -0.54670064269E+02 -0.27557545610E+02 -0.15829888726E+04  0.15841723407E+04  0.00000000000E+00 0. -1.
          1    1    1    2  502    0 -0.47458060826E+01  0.31472812912E+02  0.49877316269E+03  0.49978768337E+03  0.00000000000E+00 0. -1.
         22    1    3    3    0    0  0.77074452692E+02  0.45890441572E+01 -0.24241387579E+03  0.25441308488E+03  0.00000000000E+00 0.  1.
         22    1    3    3    0    0 -0.17658582340E+02 -0.85043114594E+01  0.51767862763E+01  0.20271851416E+02  0.00000000000E+00 0.  1.
</event>
<event>
 7    1  0.6510186E-006  0.9812020E+02  0.7818608E-02  0.1297948E+00
          2   -1    0    0  502    0  0.00000000000E+00  0.00000000000E+00  0.10041946633E+04  0.10041946633E+04  0.00000000000E+00 0. -1.
          1   -1    0    0  501    0 -0.00000000000E+00 -0.00000000000E+00 -0.65378863275E+03  0.65378863275E+03  0.00000000000E+00 0. -1.
         25    2    1    2    0    0 -0.14366808672E+03  0.98755228167E+02 -0.19936793956E+03  0.29285703463E+03  0.12499821270E+03 0.  0.
          2    1    1    2  501    0  0.65595116070E+02 -0.61825374763E+02 -0.40071162082E+03  0.41072484619E+03  0.00000000000E+00 0. -1.
          1    1    1    2  502    0  0.78072970648E+02 -0.36929853405E+02  0.95048559096E+03  0.95440141526E+03  0.00000000000E+00 0. -1.
         22    1    3    3    0    0 -0.13710934160E+03  0.24313365137E+02 -0.13947994549E+03  0.19709075694E+03  0.00000000000E+00 0.  1.
         22    1    3    3    0    0 -0.65587451196E+01  0.74441863030E+02 -0.59887994075E+02  0.95766277694E+02  0.00000000000E+00 0.  1.
</event>
<event>
 7    1  0.6510186E-006  0.2172348E+03  0.7818608E-02  0.1149419E+00
          2   -1    0    0  502    0  0.00000000000E+00  0.00000000000E+00  0.42579077016E+04  0.42579077016E+04  0.00000000000E+00 0. -1.
          1   -1    0    0  501    0 -0.00000000000E+00 -0.00000000000E+00 -0.15946183601E+04  0.15946183601E+04  0.00000000000E+00 0. -1.
         25    2    1    2    0    0 -0.27822685854E+02 -0.32428160021E+02  0.27056080339E+02  0.13484422936E+03  0.12500098918E+03 0.  0.
          2    1    1    2  501    0 -0.10126827231E+03 -0.15462253112E+03 -0.15320741003E+04  0.15431832162E+04  0.00000000000E+00 0. -1.
          1    1    1    2  502    0  0.12909095817E+03  0.18705069114E+03  0.41683073615E+04  0.41744986162E+04  0.00000000000E+00 0. -1.
         22    1    3    3    0    0  0.14709744149E+02 -0.47999727208E+02  0.60444894270E+02  0.78574395500E+02  0.00000000000E+00 0.  1.
         22    1    3    3    0    0 -0.42532430003E+02  0.15571567186E+02 -0.33388813931E+02  0.56269833857E+02  0.00000000000E+00 0.  1.
</event>
<event>
 7    1  0.6510186E-006  0.1299922E+03  0.7818608E-02  0.1369265E+00
          2   -1    0    0  502    0  0.00000000000E+00  0.00000000000E+00  0.15322889408E+04  0.15322889408E+04  0.00000000000E+00 0. -1.
          1   -1    0    0  501    0 -0.00000000000E+00 -0.00000000000E+00 -0.16407909604E+03  0.16407909604E+03  0.00000000000E+00 0. -1.
         25    2    1    2    0    0  0.19533846587E+02 -0.10631151103E+03  0.65394534524E+03  0.67450275839E+03  0.12500299186E+03 0.  0.
          2    1    1    2  501    0  0.52407745886E+01  0.13091732395E+03 -0.12546721182E+03  0.18140791788E+03  0.00000000000E+00 0. -1.
          1    1    1    2  502    0 -0.24774621176E+02 -0.24605812925E+02  0.83973171136E+03  0.84045736058E+03  0.00000000000E+00 0. -1.
         22    1    3    3    0    0  0.19754172659E+02 -0.12688306961E+03  0.62990827140E+03  0.64286388222E+03  0.00000000000E+00 0. -1.
         22    1    3    3    0    0 -0.22032607154E+00  0.20571558584E+02  0.24037073839E+02  0.31638876164E+02  0.00000000000E+00 0. -1.
</event>
<event>
 7    1  0.6510186E-006  0.7420409E+02  0.7818608E-02  0.1479969E+00
          2   -1    0    0  502    0  0.00000000000E+00  0.00000000000E+00  0.19068468662E+04  0.19068468662E+04  0.00000000000E+00 0. -1.
          1   -1    0    0  501    0 -0.00000000000E+00 -0.00000000000E+00 -0.13078430629E+04  0.13078430629E+04  0.00000000000E+00 0. -1.
         25    2    1    2    0    0  0.92940393183E+02 -0.29177575329E+02  0.68725397837E+03  0.70528952430E+03  0.12500413881E+03 0.  0.
          2    1    1    2  501    0 -0.25830128943E+02  0.45160009271E+01 -0.12976370258E+04  0.12979019379E+04  0.00000000000E+00 0. -1.
          1    1    1    2  502    0 -0.67110264240E+02  0.24661574402E+02  0.12093868507E+04  0.12114984670E+04  0.00000000000E+00 0. -1.
         22    1    3    3    0    0  0.82140381326E+02 -0.13362631021E+02  0.67958302021E+03  0.68465953839E+03  0.00000000000E+00 0. -1.
         22    1    3    3    0    0  0.10800011857E+02 -0.15814944308E+02  0.76709581576E+01  0.20629985910E+02  0.00000000000E+00 0. -1.
</event>
<event>
 7    1  0.6510186E-006  0.8525199E+02  0.7818608E-02  0.1422655E+00
          2   -1    0    0  502    0  0.00000000000E+00  0.00000000000E+00  0.27329150223E+03  0.27329150223E+03  0.00000000000E+00 0. -1.
          1   -1    0    0  501    0 -0.00000000000E+00 -0.00000000000E+00 -0.20699778596E+03  0.20699778596E+03  0.00000000000E+00 0. -1.
         25    2    1    2    0    0  0.10780638444E+03 -0.64832832471E+01  0.12988816516E+03  0.21014475859E+03  0.12500253847E+03 0.  0.
          2    1    1    2  501    0 -0.32705621653E+02 -0.11871868623E+02 -0.15012694921E+03  0.15410613171E+03  0.00000000000E+00 0. -1.
          1    1    1    2  502    0 -0.75100762791E+02  0.18355151870E+02  0.86532500320E+02  0.11603839788E+03  0.00000000000E+00 0. -1.
         22    1    3    3    0    0  0.69389481340E+02  0.41237251761E+02  0.18179247264E+02  0.82739930412E+02  0.00000000000E+00 0. -1.
         22    1    3    3    0    0  0.38416903104E+02 -0.47720535008E+02  0.11170891789E+03  0.12740482818E+03  0.00000000000E+00 0. -1.
</event>
<event>
 7    1  0.6510186E-006  0.7914784E+02  0.7818608E-02  0.1357460E+00
          2   -1    0    0  502    0  0.00000000000E+00  0.00000000000E+00  0.19512202038E+04  0.19512202038E+04  0.00000000000E+00 0. -1.
          1   -1    0    0  501    0 -0.00000000000E+00 -0.00000000000E+00 -0.21262124606E+03  0.21262124606E+03  0.00000000000E+00 0. -1.
         25    2    1    2    0    0 -0.53839491412E+02  0.32348724439E+02  0.15368337760E+03  0.20781740820E+03  0.12499745514E+03 0.  0.
          2    1    1    2  501    0 -0.21950665118E+02 -0.59369005540E+02 -0.17921238118E+03  0.19006206377E+03  0.00000000000E+00 0. -1.
          1    1    1    2  502    0  0.75790156530E+02  0.27020281100E+02  0.17641279613E+04  0.17659619779E+04  0.00000000000E+00 0. -1.
         22    1    3    3    0    0 -0.39459312963E+02 -0.43549565143E+02  0.91045949193E+02  0.10836497067E+03  0.00000000000E+00 0.  1.
         22    1    3    3    0    0 -0.14380178449E+02  0.75898289583E+02  0.62637428411E+02  0.99452437536E+02  0.00000000000E+00 0.  1.
</event>
<event>
 7    1  0.6510186E-006  0.6008448E+02  0.7818608E-02  0.1537411E+00
          2   -1    0    0  502    0  0.00000000000E+00  0.00000000000E+00  0.94176154382E+03  0.94176154382E+03  0.00000000000E+00 0. -1.
          1   -1    0    0  501    0 -0.00000000000E+00 -0.00000000000E+00 -0.11397437878E+04  0.11397437878E+04  0.00000000000E+00 0. -1.
         25    2    1    2    0    0 -0.15142188414E+02  0.49257448023E+02  0.14038502636E+03  0.19489694677E+03  0.12498512783E+03 0.  0.
          2    1    1    2  501    0  0.36987309897E+02 -0.47423957051E+02 -0.11115195131E+04  0.11131454177E+04  0.00000000000E+00 0. -1.
          1    1    1    2  502    0 -0.21845121483E+02 -0.18334909720E+01  0.77315224280E+03  0.77346296716E+03  0.00000000000E+00 0. -1.
         22    1    3    3    0    0 -0.30379144431E+02 -0.30108796499E+02  0.90039610632E+02  0.99682313004E+02  0.00000000000E+00 0. -1.
         22    1    3    3    0    0  0.15236956017E+02  0.79366244522E+02  0.50345415732E+02  0.95214633767E+02  0.00000000000E+00 0. -1.
</event>
<event>
 7    1  0.6510186E-006  0.1721123E+03  0.7818608E-02  0.1211715E+00
          2   -1    0    0  502    0  0.00000000000E+00  0.00000000000E+00  0.13101966582E+04  0.13101966582E+04  0.00000000000E+00 0. -1.
          1   -1    0    0  501    0 -0.00000000000E+00 -0.00000000000E+00 -0.58691875829E+03  0.58691875829E+03  0.00000000000E+00 0. -1.
         25    2    1    2    0    0  0.67234215886E+02 -0.99769798164E+02  0.16666271261E+03  0.24057328590E+03  0.12499837480E+03 0.  0.
          2    1    1    2  501    0 -0.17102987938E+03  0.48314291045E+02 -0.53245259201E+03  0.56132989686E+03  0.00000000000E+00 0. -1.
          1    1    1    2  502    0  0.10379566350E+03  0.51455507119E+02  0.10890677793E+04  0.10952122337E+04  0.00000000000E+00 0. -1.
         22    1    3    3    0    0  0.27895639581E+02 -0.39612674017E+02  0.16138669449E+03  0.16850221307E+03  0.00000000000E+00 0.  1.
         22    1    3    3    0    0  0.39338576305E+02 -0.60157124148E+02  0.52760181145E+01  0.72071072828E+02  0.00000000000E+00 0.  1.
</event>
<event>
 7    1  0.6510186E-006  0.1658072E+03  0.7818608E-02  0.1273112E+00
          2   -1    0    0  502    0  0.00000000000E+00  0.00000000000E+00  0.19673665681E+04  0.19673665681E+04  0.00000000000E+00 0. -1.
          1   -1    0    0  501    0 -0.00000000000E+00 -0.00000000000E+00 -0.18258654590E+04  0.18258654590E+04  0.00000000000E+00 0. -1.
         25    2    1    2    0    0 -0.13490750032E+03 -0.16655603846E+03 -0.66869221578E+03  0.71324252131E+03  0.12499866865E+03 0.  0.
          2    1    1    2  501    0  0.80141695170E+02  0.13229209932E+03 -0.11290876910E+04  0.11396327939E+04  0.00000000000E+00 0. -1.
          1    1    1    2  502    0  0.54765805155E+02  0.34263939144E+02  0.19392810159E+04  0.19403567119E+04  0.00000000000E+00 0. -1.
         22    1    3    3    0    0 -0.10678870103E+03 -0.57168454241E+02 -0.46299534155E+03  0.47857783602E+03  0.00000000000E+00 0. -1.
         22    1    3    3    0    0 -0.28118799291E+02 -0.10938758422E+03 -0.20569687422E+03  0.23466468529E+03  0.00000000000E+00 0. -1.
</event>
<event>
 7    1  0.6510186E-006  0.5963749E+02  0.7818608E-02  0.1408900E+00
          2   -1    0    0  502    0  0.00000000000E+00  0.00000000000E+00  0.60046964297E+03  0.60046964297E+03  0.00000000000E+00 0. -1.
          1   -1    0    0  501    0 -0.00000000000E+00 -0.00000000000E+00 -0.73944690426E+02  0.73944690426E+02  0.00000000000E+00 0. -1.
         25    2    1    2    0    0 -0.41031419716E+01  0.15003968506E+02  0.12090776224E+03  0.17460148931E+03  0.12500015302E+03 0.  0.
          2    1    1    2  501    0  0.40706630780E+02  0.37465746376E+02 -0.27649554816E+02  0.61848280675E+02  0.00000000000E+00 0. -1.
          1    1    1    2  502    0 -0.36603488808E+02 -0.52469714882E+02  0.43326674512E+03  0.43796456341E+03  0.00000000000E+00 0. -1.
         22    1    3    3    0    0 -0.32929652419E+02  0.48437821536E+02  0.15898771479E+02  0.60690654125E+02  0.00000000000E+00 0. -1.
         22    1    3    3    0    0  0.28826510448E+02 -0.33433853030E+02  0.10500899076E+03  0.11391083519E+03  0.00000000000E+00 0. -1.
</event>
<event>
 7    1  0.6510186E-006  0.5191367E+02  0.7818608E-02  0.1491130E+00
          2   -1    0    0  502    0  0.00000000000E+00  0.00000000000E+00  0.53068250127E+03  0.53068250127E+03  0.00000000000E+00 0. -1.
          1   -1    0    0  501    0 -0.00000000000E+00 -0.00000000000E+00 -0.67443549491E+02  0.67443549491E+02  0.00000000000E+00 0. -1.
         25    2    1    2    0    0 -0.69166048941E+01 -0.36087301082E+02  0.20991598322E+03  0.24706021731E+03  0.12499559289E+03 0.  0.
          2    1    1    2  501    0  0.32231133461E+02 -0.12747889507E+02 -0.39828515991E+02  0.52798345969E+02  0.00000000000E+00 0. -1.
          1    1    1    2  502    0 -0.25314528567E+02  0.48835190590E+02  0.29315148455E+03  0.29826748749E+03  0.00000000000E+00 0. -1.
         22    1    3    3    0    0  0.13533085535E+02  0.40128142025E+02  0.12090292273E+03  0.12810514787E+03  0.00000000000E+00 0. -1.
         22    1    3    3    0    0 -0.20449690429E+02 -0.76215443107E+02  0.89013060493E+02  0.11895506944E+03  0.00000000000E+00 0. -1.
</event>
<event>
 7    1  0.6510186E-006  0.6866786E+02  0.7818608E-02  0.1454862E+00
          2   -1    0    0  502    0  0.00000000000E+00  0.00000000000E+00  0.23413009160E+02  0.23413009160E+02  0.00000000000E+00 0. -1.
          1   -1    0    0  501    0 -0.00000000000E+00 -0.00000000000E+00 -0.97616254742E+03  0.97616254742E+03  0.00000000000E+00 0. -1.
         25    2    1    2    0    0  0.11613303493E+02 -0.75959446163E+02 -0.44160928407E+03  0.46534794443E+03  0.12500097331E+03 0.  0.
          2    1    1    2  501    0 -0.32143823320E+02  0.10899296632E+02 -0.41475247624E+03  0.41613896308E+03  0.00000000000E+00 0. -1.
          1    1    1    2  502    0  0.20530519827E+02  0.65060149531E+02 -0.96387777948E+02  0.11808864907E+03  0.00000000000E+00 0. -1.
         22    1    3    3    0    0  0.47496535658E+02 -0.31211950728E+02 -0.74080782709E+02  0.93370601018E+02  0.00000000000E+00 0. -1.
         22    1    3    3    0    0 -0.35883232165E+02 -0.44747495435E+02 -0.36752850136E+03  0.37197734341E+03  0.00000000000E+00 0. -1.
</event>
<event>
 7    1  0.6510186E-006  0.7510705E+02  0.7818608E-02  0.1476134E+00
          2   -1    0    0  502    0  0.00000000000E+00  0.00000000000E+00  0.88747654751E+03  0.88747654751E+03  0.00000000000E+00 0. -1.
          1   -1    0    0  501    0 -0.00000000000E+00 -0.00000000000E+00 -0.36560510838E+03  0.36560510838E+03  0.00000000000E+00 0. -1.
         25    2    1    2    0    0 -0.40499194459E+02 -0.28046359974E+02 -0.40195488989E+02  0.14023896993E+03  0.12499803315E+03 0.  0.
          2    1    1    2  501    0 -0.24261370447E+02 -0.10955328541E+02 -0.27303316020E+03  0.27432779642E+03  0.00000000000E+00 0. -1.
          1    1    1    2  502    0  0.64760564907E+02  0.39001688515E+02  0.83510008832E+03  0.83851488954E+03  0.00000000000E+00 0. -1.
         22    1    3    3    0    0  0.40327394564E+02 -0.31082227176E+02 -0.28969223790E+02  0.58580026677E+02  0.00000000000E+00 0. -1.
         22    1    3    3    0    0 -0.80826589023E+02  0.30358672019E+01 -0.11226265199E+02  0.81658943252E+02  0.00000000000E+00 0. -1.
</event>
<event>
 7    1  0.6510186E-006  0.5959345E+02  0.7818608E-02  0.1433020E+00
          2   -1    0    0  502    0  0.00000000000E+00  0.00000000000E+00  0.10391443598E+04  0.10391443598E+04  0.00000000000E+00 0. -1.
          1   -1    0    0  501    0 -0.00000000000E+00 -0.00000000000E+00 -0.88437479171E+03  0.88437479171E+03  0.00000000000E+00 0. -1.
         25    2    1    2    0    0  0.70994029579E+00  0.72798008359E+02 -0.13058617958E+02  0.14524310389E+03  0.12499991075E+03 0.  0.
          2    1    1    2  501    0 -0.37847424319E+02 -0.26148772223E+02 -0.80365209684E+03  0.80496762579E+03  0.00000000000E+00 0. -1.
          1    1    1    2  502    0  0.37137484024E+02 -0.46649236136E+02  0.97148028292E+03  0.97330842185E+03  0.00000000000E+00 0. -1.
         22    1    3    3    0    0  0.22496653571E+02 -0.48410676481E+01  0.41798807654E+02  0.47714522728E+02  0.00000000000E+00 0. -1.
         22    1    3    3    0    0 -0.21786713275E+02  0.77639076007E+02 -0.54857425612E+02  0.97528581162E+02  0.00000000000E+00 0. -1.
</event>
<event>
 7    1  0.6510186E-006  0.6569035E+02  0.7818608E-02  0.1398168E+00
          2   -1    0    0  502    0  0.00000000000E+00  0.00000000000E+00  0.57814278589E+03  0.57814278589E+03  0.00000000000E+00 0. -1.
          1   -1    0    0  501    0 -0.00000000000E+00 -0.00000000000E+00 -0.21196381509E+04  0.21196381509E+04  0.00000000000E+00 0. -1.
         25    2    1    2    0    0 -0.23580558933E+02  0.31431942907E+02 -0.10053304921E+03  0.16515562892E+03  0.12500191193E+03 0.  0.
          2    1    1    2  501    0 -0.21024577617E+02 -0.63018744766E+02 -0.19848684391E+04  0.19859798880E+04  0.00000000000E+00 0. -1.
          1    1    1    2  502    0  0.44605136551E+02  0.31586801859E+02  0.54390612322E+03  0.54664541993E+03  0.00000000000E+00 0. -1.
         22    1    3    3    0    0 -0.60676764905E+02  0.58977181250E+02 -0.60498672740E+02  0.10401955158E+03  0.00000000000E+00 0. -1.
         22    1    3    3    0    0  0.37096205972E+02 -0.27545238343E+02 -0.40034376472E+02  0.61136077339E+02  0.00000000000E+00 0. -1.
</event>
<event>
 7    1  0.6510186E-006  0.8490518E+02  0.7818608E-02  0.1422346E+00
          2   -1    0    0  502    0  0.00000000000E+00  0.00000000000E+00  0.61142429736E+03  0.61142429736E+03  0.00000000000E+00 0. -1.
          1   -1    0    0  501    0 -0.00000000000E+00 -0.00000000000E+00 -0.46771923453E+03  0.46771923453E+03  0.00000000000E+00 0. -1.
         25    2    1    2    0    0  0.59639288310E+02 -0.25197991531E+02  0.14049606806E+03  0.19888379295E+03  0.12499533780E+03 0.  0.
          2    1    1    2  501    0 -0.60733739452E+02  0.60199621511E+02 -0.43364919774E+03  0.44200023557E+03  0.00000000000E+00 0. -1.
          1    1    1    2  502    0  0.10944511420E+01 -0.35001629980E+02  0.43685819252E+03  0.43825950337E+03  0.00000000000E+00 0. -1.
         22    1    3    3    0    0 -0.28332687382E+02 -0.33914987647E+02  0.17765662515E+02  0.47629679046E+02  0.00000000000E+00 0. -1.
         22    1    3    3    0    0  0.87971975692E+02  0.87169961162E+01  0.12273040554E+03  0.15125411390E+03  0.00000000000E+00 0. -1.
</event>
<event>
 7    1  0.6510186E-006  0.1472194E+03  0.7818608E-02  0.1282152E+00
          2   -1    0    0  502    0  0.00000000000E+00  0.00000000000E+00  0.10586010736E+04  0.10586010736E+04  0.00000000000E+00 0. -1.
          1   -1    0    0  501    0 -0.00000000000E+00 -0.00000000000E+00 -0.16745990684E+03  0.16745990684E+03  0.00000000000E+00 0. -1.
         25    2    1    2    0    0 -0.13009195229E+03  0.28151019014E+02  0.85048050527E+02  0.20143134865E+03  0.12500008559E+03 0.  0.
          2    1    1    2  501    0  0.12466937285E+03 -0.94669461200E+02 -0.51232366495E+02  0.16471039672E+03  0.00000000000E+00 0. -1.
          1    1    1    2  502    0  0.54225794440E+01  0.66518442185E+02  0.85732548274E+03  0.85991923509E+03  0.00000000000E+00 0. -1.
         22    1    3    3    0    0 -0.78689268934E+02 -0.10930566490E+02 -0.16453765912E+02  0.81130787879E+02  0.00000000000E+00 0.  1.
         22    1    3    3    0    0 -0.51402683361E+02  0.39081585505E+02  0.10150181644E+03  0.12030056078E+03  0.00000000000E+00 0.  1.
</event>
<event>
 7    1  0.6510186E-006  0.9296352E+02  0.7818608E-02  0.1309869E+00
          2   -1    0    0  502    0  0.00000000000E+00  0.00000000000E+00  0.15644862228E+04  0.15644862228E+04  0.00000000000E+00 0. -1.
          1   -1    0    0  501    0 -0.00000000000E+00 -0.00000000000E+00 -0.32852609195E+03  0.32852609195E+03  0.00000000000E+00 0. -1.
         25    2    1    2    0    0  0.13782382352E+03  0.68806068296E+02  0.34647551436E+03  0.39924890302E+03  0.12499889260E+03 0.  0.
          2    1    1    2  501    0 -0.56203237344E+02 -0.72952584835E+02 -0.29367954274E+03  0.30778004702E+03  0.00000000000E+00 0. -1.
          1    1    1    2  502    0 -0.81620586174E+02  0.41465165392E+01  0.11831641592E+04  0.11859833647E+04  0.00000000000E+00 0. -1.
         22    1    3    3    0    0  0.93719678722E+02 -0.21908820123E+02  0.14672633503E+03  0.17547647127E+03  0.00000000000E+00 0. -1.
         22    1    3    3    0    0  0.44104144795E+02  0.90714888418E+02  0.19974917933E+03  0.22377243175E+03  0.00000000000E+00 0. -1.
</event>
<event>
 7    1  0.6510186E-006  0.4853489E+02  0.7818608E-02  0.1462815E+00
          2   -1    0    0  502    0  0.00000000000E+00  0.00000000000E+00  0.17971250666E+03  0.17971250666E+03  0.00000000000E+00 0. -1.
          1   -1    0    0  501    0 -0.00000000000E+00 -0.00000000000E+00 -0.14381581442E+03  0.14381581442E+03  0.00000000000E+00 0. -1.
         25    2    1    2    0    0  0.16847921687E+02 -0.16476137909E+02  0.28723162088E+01  0.12723273426E+03  0.12499841152E+03 0.  0.
          2    1    1    2  501    0  0.24988104311E+02  0.41608057624E+02 -0.68324169090E+02  0.83808280606E+02  0.00000000000E+00 0. -1.
          1    1    1    2  502    0 -0.41836025998E+02 -0.25131919714E+02  0.10134854512E+03  0.11248730621E+03  0.00000000000E+00 0. -1.
         22    1    3    3    0    0  0.58575613743E+02 -0.31704168241E+02  0.32224816446E+02  0.73991185990E+02  0.00000000000E+00 0.  1.
         22    1    3    3    0    0 -0.41727692057E+02  0.15228030331E+02 -0.29352500237E+02  0.53241548271E+02  0.00000000000E+00 0.  1.
</event>
<event>
 7    1  0.6510186E-006  0.6743441E+02  0.7818608E-02  0.1476934E+00
          2   -1    0    0  502    0  0.00000000000E+00  0.00000000000E+00  0.49515973282E+03  0.49515973282E+03  0.00000000000E+00 0. -1.
          1   -1    0    0  501    0 -0.00000000000E+00 -0.00000000000E+00 -0.31124399651E+04  0.31124399651E+04  0.00000000000E+00 0. -1.
         25    2    1    2    0    0  0.49117289830E+01  0.37733654612E+02  0.31888943810E+03  0.34462052768E+03  0.12499952238E+03 0.  0.
          2    1    1    2  501    0 -0.11305494055E+02 -0.66512991394E+02 -0.30978744161E+04  0.30986089927E+04  0.00000000000E+00 0. -1.
          1    1    1    2  502    0  0.63937650725E+01  0.28779336782E+02  0.16170474570E+03  0.16437017747E+03  0.00000000000E+00 0. -1.
         22    1    3    3    0    0 -0.65321698079E+00  0.16493697382E+02  0.32201896115E+03  0.32244174681E+03  0.00000000000E+00 0.  1.
         22    1    3    3    0    0  0.55649459638E+01  0.21239957230E+02 -0.31295230442E+01  0.22178780877E+02  0.00000000000E+00 0.  1.
</event>
<event>
 7    1  0.6510186E-006  0.7885917E+02  0.7818608E-02  0.1340913E+00
          2   -1    0    0  502    0  0.00000000000E+00  0.00000000000E+00  0.38558772417E+03  0.38558772417E+03  0.00000000000E+00 0. -1.
          1   -1    0    0  501    0 -0.00000000000E+00 -0.00000000000E+00 -0.91628567747E+03  0.91628567747E+03  0.00000000000E+00 0. -1.
         25    2    1    2    0    0  0.56925706923E+02  0.43647039123E+02 -0.39808745701E+03  0.42337329352E+03  0.12500288838E+03 0.  0.
          2    1    1    2  501    0  0.12549793181E+02 -0.80955525161E+02 -0.49800224473E+03  0.50469548256E+03  0.00000000000E+00 0. -1.
          1    1    1    2  502    0 -0.69475500104E+02  0.37308486037E+02  0.36539174845E+03  0.37380462555E+03  0.00000000000E+00 0. -1.
         22    1    3    3    0    0 -0.37992002584E+02  0.24071821256E+02 -0.93810509901E+02  0.10403488168E+03  0.00000000000E+00 0. -1.
         22    1    3    3    0    0  0.94917709507E+02  0.19575217867E+02 -0.30427694711E+03  0.31933841184E+03  0.00000000000E+00 0. -1.
</event>
<event>
 7    1  0.6510186E-006  0.1490464E+03  0.7818608E-02  0.1279213E+00
          2   -1    0    0  502    0  0.00000000000E+00  0.00000000000E+00  0.53757063884E+03  0.53757063884E+03  0.00000000000E+00 0. -1.
          1   -1    0    0  501    0 -0.00000000000E+00 -0.00000000000E+00 -0.43900771660E+03  0.43900771660E+03  0.00000000000E+00 0. -1.
         25    2    1    2    0    0 -0.14085901566E+03  0.91816236418E+02 -0.11651661991E+03  0.23973095078E+03  0.12499328975E+03 0.  0.
          2    1    1    2  501    0  0.14407446585E+03 -0.24103909688E+02 -0.23771287357E+03  0.27900871032E+03  0.00000000000E+00 0. -1.
          1    1    1    2  502    0 -0.32154501874E+01 -0.67712326730E+02  0.45279241572E+03  0.45783869435E+03  0.00000000000E+00 0. -1.
         22    1    3    3    0    0  0.10494053286E+02  0.48344364082E+02 -0.12561438839E+02  0.51040106177E+02  0.00000000000E+00 0. -1.
         22    1    3    3    0    0 -0.15135306895E+03  0.43471872336E+02 -0.10395518107E+03  0.18869084460E+03  0.00000000000E+00 0. -1.
</event>
<event>
 7    1  0.6510186E-006  0.7549255E+02  0.7818608E-02  0.1374564E+00
          2   -1    0    0  502    0  0.00000000000E+00  0.00000000000E+00  0.56648237180E+03  0.56648237180E+03  0.00000000000E+00 0. -1.
          1   -1    0    0  501    0 -0.00000000000E+00 -0.00000000000E+00 -0.30780895451E+03  0.30780895451E+03  0.00000000000E+00 0. -1.
         25    2    1    2    0    0  0.30472021748E+02  0.75637905430E+02 -0.18148790239E+03  0.23497206108E+03  0.12499749568E+03 0.  0.
          2    1    1    2  501    0 -0.71578129774E+02 -0.35357713649E+02 -0.81737506913E+02  0.11425680117E+03  0.00000000000E+00 0. -1.
          1    1    1    2  502    0  0.41106108026E+02 -0.40280191781E+02  0.52189882659E+03  0.52506246406E+03  0.00000000000E+00 0. -1.
         22    1    3    3    0    0  0.76854860579E+02  0.41552599404E+02 -0.80859656583E+02  0.11904441261E+03  0.00000000000E+00 0.  1.
         22    1    3    3    0    0 -0.46382838831E+02  0.34085306025E+02 -0.10062824581E+03  0.11592764847E+03  0.00000000000E+00 0.  1.
</event>
<event>
 7    1  0.6510186E-006  0.4972514E+02  0.7818608E-02  0.1527838E+00
          2   -1    0    0  502    0  0.00000000000E+00  0.00000000000E+00  0.15372866273E+04  0.15372866273E+04  0.00000000000E+00 0. -1.
          1   -1    0    0  501    0 -0.00000000000E+00 -0.00000000000E+00 -0.51443373105E+03  0.51443373105E+03  0.00000000000E+00 0. -1.
         25    2    1    2    0    0 -0.16685510959E+02  0.19124358255E+02  0.31833216423E+03  0.34293505595E+03  0.12499975386E+03 0.  0.
          2    1    1    2  501    0  0.44759580163E+02 -0.21885402812E+02 -0.50073091225E+03  0.50320357446E+03  0.00000000000E+00 0. -1.
          1    1    1    2  502    0 -0.28074069204E+02  0.27610445572E+01  0.12052516443E+04  0.12055817279E+04  0.00000000000E+00 0. -1.
         22    1    3    3    0    0  0.44578272408E+02  0.16723791808E+02  0.23327348020E+03  0.23808280943E+03  0.00000000000E+00 0.  1.
         22    1    3    3    0    0 -0.61263783367E+02  0.24005664471E+01  0.85058684028E+02  0.10485224652E+03  0.00000000000E+00 0.  1.
</event>
<event>
 7    1  0.6510186E-006  0.1051314E+03  0.7818608E-02  0.1453881E+00
          2   -1    0    0  502    0  0.00000000000E+00  0.00000000000E+00  0.23062698008E+03  0.23062698008E+03  0.00000000000E+00 0. -1.
          1   -1    0    0  501    0 -0.00000000000E+00 -0.00000000000E+00 -0.14395443272E+04  0.14395443272E+04  0.00000000000E+00 0. -1.
         25    2    1    2    0    0  0.41410269711E+02 -0.11633443794E+03 -0.12158817319E+03  0.21367466475E+03  0.12499866641E+03 0.  0.
          2    1    1    2  501    0  0.19044311093E+01  0.22247629809E+02 -0.12572753126E+04  0.12574735764E+04  0.00000000000E+00 0. -1.
          1    1    1    2  502    0 -0.43314700821E+02  0.94086808135E+02  0.16994613867E+03  0.19902306605E+03  0.00000000000E+00 0. -1.
         22    1    3    3    0    0  0.12388781060E+02 -0.32855898602E+02 -0.12026401353E+03  0.12528537392E+03  0.00000000000E+00 0. -1.
         22    1    3    3    0    0  0.29021488651E+02 -0.83478539342E+02 -0.13241596684E+01  0.88389290828E+02  0.00000000000E+00 0. -1.
</event>
<event>
 7    1  0.6510186E-006  0.1060720E+03  0.7818608E-02  0.1457735E+00
          2   -1    0    0  502    0  0.00000000000E+00  0.00000000000E+00  0.30991095347E+04  0.30991095347E+04  0.00000000000E+00 0. -1.
          1   -1    0    0  501    0 -0.00000000000E+00 -0.00000000000E+00 -0.32897820786E+03  0.32897820786E+03  0.00000000000E+00 0. -1.
         25    2    1    2    0    0 -0.65349496328E+02 -0.55821659421E+02  0.29893717317E+02  0.15461106791E+03  0.12499733459E+03 0.  0.
          2    1    1    2  501    0 -0.20203485298E+02 -0.74014815842E+01 -0.26524286508E+03  0.26611414886E+03  0.00000000000E+00 0. -1.
          1    1    1    2  502    0  0.85552981625E+02  0.63223141005E+02  0.30054804746E+04  0.30073625258E+04  0.00000000000E+00 0. -1.
         22    1    3    3    0    0 -0.87069591276E+02  0.29052890444E+01  0.51035735908E+01  0.87267410256E+02  0.00000000000E+00 0.  1.
         22    1    3    3    0    0  0.21720094948E+02 -0.58726948466E+02  0.24790143726E+02  0.67343657657E+02  0.00000000000E+00 0.  1.
</event>
<event>
 7    1  0.6510186E-006  0.8610253E+02  0.7818608E-02  0.1364764E+00
          2   -1    0    0  502    0  0.00000000000E+00  0.00000000000E+00  0.15443560929E+04  0.15443560929E+04  0.00000000000E+00 0. -1.
          1   -1    0    0  501    0 -0.00000000000E+00 -0.00000000000E+00 -0.97008964770E+02  0.97008964770E+02  0.00000000000E+00 0. -1.
         25    2    1    2    0    0  0.39607091112E+02 -0.17536319903E+02  0.24491703693E+03  0.27836232401E+03  0.12499993708E+03 0.  0.
          2    1    1    2  501    0  0.50975648144E+02  0.19910515000E+02 -0.69157131010E+02  0.88191009070E+02  0.00000000000E+00 0. -1.
          1    1    1    2  502    0 -0.90582739256E+02 -0.23741950966E+01  0.12715872222E+04  0.12748117245E+04  0.00000000000E+00 0. -1.
         22    1    3    3    0    0  0.61321900271E+02  0.77284700661E+01  0.23588129689E+03  0.24384439900E+03  0.00000000000E+00 0. -1.
         22    1    3    3    0    0 -0.21714809159E+02 -0.25264789969E+02  0.90357400405E+01  0.34517925012E+02  0.00000000000E+00 0. -1.
</event>
<event>
 7    1  0.6510186E-006  0.1176675E+03  0.7818608E-02  0.1329354E+00
          2   -1    0    0  502    0  0.00000000000E+00  0.00000000000E+00  0.36491852116E+04  0.36491852116E+04  0.00000000000E+00 0. -1.
          1   -1    0    0  501    0 -0.00000000000E+00 -0.00000000000E+00 -0.11412981001E+03  0.11412981001E+03  0.00000000000E+00 0. -1.
         25    2    1    2    0    0  0.48127150152E+01  0.75771163468E+02  0.17084463725E+03  0.22489453987E+03  0.12500093019E+03 0.  0.
          2    1    1    2  501    0 -0.28521263248E+02 -0.12456185048E+03 -0.39905943558E+02  0.13387158542E+03  0.00000000000E+00 0. -1.
          1    1    1    2  502    0  0.23708548233E+02  0.48790687014E+02  0.34041167079E+04  0.34045488963E+04  0.00000000000E+00 0. -1.
         22    1    3    3    0    0  0.17321801918E+02  0.70600751984E+02  0.22733812136E+02  0.76166509809E+02  0.00000000000E+00 0.  1.
         22    1    3    3    0    0 -0.12509086903E+02  0.51704114845E+01  0.14811082511E+03  0.14872803006E+03  0.00000000000E+00 0.  1.
</event>
<event>
 7    1  0.6510186E-006  0.3970816E+02  0.7818608E-02  0.1574554E+00
          2   -1    0    0  502    0  0.00000000000E+00  0.00000000000E+00  0.14975570266E+03  0.14975570266E+03  0.00000000000E+00 0. -1.
          1   -1    0    0  501    0 -0.00000000000E+00 -0.00000000000E+00 -0.21372398946E+04  0.21372398946E+04  0.00000000000E+00 0. -1.
         25    2    1    2    0    0 -0.31826080657E+02 -0.59838575555E+00 -0.11660761596E+03  0.17388145257E+03  0.12499666384E+03 0.  0.
          2    1    1    2  501    0  0.29557018270E+02  0.26679040101E+02 -0.19903792974E+04  0.19907775205E+04  0.00000000000E+00 0. -1.
          1    1    1    2  502    0  0.22690623870E+01 -0.26080654346E+02  0.11950272147E+03  0.12233662417E+03  0.00000000000E+00 0. -1.
         22    1    3    3    0    0  0.19017458253E+02 -0.40482627543E+02 -0.96242393586E+02  0.10612777758E+03  0.00000000000E+00 0. -1.
         22    1    3    3    0    0 -0.50843538910E+02  0.39884241788E+02 -0.20365222376E+02  0.67753674987E+02  0.00000000000E+00 0. -1.
</event>
<event>
 7    1  0.6510186E-006  0.1403936E+03  0.7818608E-02  0.1248643E+00
          2   -1    0    0  502    0  0.00000000000E+00  0.00000000000E+00  0.32805938959E+03  0.32805938959E+03  0.00000000000E+00 0. -1.
          1   -1    0    0  501    0 -0.00000000000E+00 -0.00000000000E+00 -0.35246721711E+03  0.35246721711E+03  0.00000000000E+00 0. -1.
         25    2    1    2    0    0  0.10392199387E+03  0.22948323693E+02 -0.17094854509E+03  0.23700634440E+03  0.12498878289E+03 0.  0.
          2    1    1    2  501    0  0.23553407486E+02 -0.94102013750E+02 -0.11104031187E+03  0.14744457554E+03  0.00000000000E+00 0. -1.
          1    1    1    2  502    0 -0.12747540136E+03  0.71153690056E+02  0.25758102944E+03  0.29607568676E+03  0.00000000000E+00 0. -1.
         22    1    3    3    0    0  0.56152747137E+02  0.10994909117E+02  0.19299923724E+01  0.57251584328E+02  0.00000000000E+00 0.  1.
         22    1    3    3    0    0  0.47769246734E+02  0.11953414577E+02 -0.17287853747E+03  0.17975476008E+03  0.00000000000E+00 0.  1.
</event>
<event>
 7    1  0.6510186E-006  0.1722713E+03  0.7818608E-02  0.1348845E+00
          2   -1    0    0  502    0  0.00000000000E+00  0.00000000000E+00  0.69906418810E+03  0.69906418810E+03  0.00000000000E+00 0. -1.
          1   -1    0    0  501    0 -0.00000000000E+00 -0.00000000000E+00 -0.35216424535E+03  0.35216424535E+03  0.00000000000E+00 0. -1.
         25    2    1    2    0    0  0.78421271500E+02  0.12135599474E+03  0.45023137927E+03  0.48909048177E+03  0.12499612471E+03 0.  0.
          2    1    1    2  501    0 -0.83522348953E+02 -0.15222534626E+03 -0.30881752527E+03  0.35428350615E+03  0.00000000000E+00 0. -1.
          1    1    1    2  502    0  0.51010774529E+01  0.30869351521E+02  0.20548608875E+03  0.20785444553E+03  0.00000000000E+00 0. -1.
         22    1    3    3    0    0  0.10912004418E+03  0.79677217466E+02  0.27542739308E+03  0.30678313494E+03  0.00000000000E+00 0.  1.
         22    1    3    3    0    0 -0.30698772681E+02  0.41678777276E+02  0.17480398619E+03  0.18230734682E+03  0.00000000000E+00 0.  1.
</event>
<event>
 7    1  0.6510186E-006  0.4935853E+02  0.7818608E-02  0.1478293E+00
          2   -1    0    0  502    0  0.00000000000E+00  0.00000000000E+00  0.22777692702E+03  0.22777692702E+03  0.00000000000E+00 0. -1.
          1   -1    0    0  501    0 -0.00000000000E+00 -0.00000000000E+00 -0.22735883980E+03  0.22735883980E+03  0.00000000000E+00 0. -1.
         25    2    1    2    0    0  0.23120346813E+02 -0.57488803499E+02  0.46916939659E+02  0.14719037950E+03  0.12499718247E+03 0.  0.
          2    1    1    2  501    0 -0.43593669831E+02  0.23251801511E+02 -0.17058959869E+03  0.17760029703E+03  0.00000000000E+00 0. -1.
          1    1    1    2  502    0  0.20473323018E+02  0.34237001988E+02  0.12409074625E+03  0.13034509030E+03  0.00000000000E+00 0. -1.
         22    1    3    3    0    0  0.28081617275E+02  0.28757602104E+02 -0.12785537788E+02  0.42178749200E+02  0.00000000000E+00 0. -1.
         22    1    3    3    0    0 -0.49612704613E+01 -0.86246405603E+02  0.59702477447E+02  0.10501163030E+03  0.00000000000E+00 0. -1.
</event>
<event>
 7    1  0.6510186E-006  0.6454441E+02  0.7818608E-02  0.1509269E+00
          2   -1    0    0  502    0  0.00000000000E+00  0.00000000000E+00  0.55348707372E+03  0.55348707372E+03  0.00000000000E+00 0. -1.
          1   -1    0    0  501    0 -0.00000000000E+00 -0.00000000000E+00 -0.79944423291E+03  0.79944423291E+03  0.00000000000E+00 0. -1.
         25    2    1    2    0    0  0.12973813337E+02 -0.69095551279E+02  0.19677943471E+02  0.14477308114E+03  0.12501803280E+03 0.  0.
          2    1    1    2  501    0 -0.33321704498E+02  0.55249742673E+02 -0.73516144075E+03  0.73798727226E+03  0.00000000000E+00 0. -1.
          1    1    1    2  502    0  0.20347891161E+02  0.13845808605E+02  0.46952633809E+03  0.47017095322E+03  0.00000000000E+00 0. -1.
         22    1    3    3    0    0  0.14521928063E+02 -0.79478429816E+02  0.61573414272E+02  0.10158244211E+03  0.00000000000E+00 0. -1.
         22    1    3    3    0    0 -0.15481147260E+01  0.10382878537E+02 -0.41895470800E+02  0.43190639026E+02  0.00000000000E+00 0. -1.
</event>
<event>
 7    1  0.6510186E-006  0.5258956E+02  0.7818608E-02  0.1478195E+00
          2   -1    0    0  502    0  0.00000000000E+00  0.00000000000E+00  0.10974369068E+04  0.10974369068E+04  0.00000000000E+00 0. -1.
          1   -1    0    0  501    0 -0.00000000000E+00 -0.00000000000E+00 -0.20013938099E+03  0.20013938099E+03  0.00000000000E+00 0. -1.
         25    2    1    2    0    0  0.67639312618E+02  0.15517872736E+02  0.16645071814E+03  0.21942468555E+03  0.12500188028E+03 0.  0.
          2    1    1    2  501    0 -0.30628326631E+02  0.21578709084E+02 -0.17086192576E+03  0.17492150454E+03  0.00000000000E+00 0. -1.
          1    1    1    2  502    0 -0.37010985987E+02 -0.37096581820E+02  0.90170873347E+03  0.90323009775E+03  0.00000000000E+00 0. -1.
         22    1    3    3    0    0  0.37022390615E+01  0.43938849802E+02  0.13626503972E+03  0.14322182147E+03  0.00000000000E+00 0. -1.
         22    1    3    3    0    0  0.63937073556E+02 -0.28420977066E+02  0.30185678420E+02  0.76202864080E+02  0.00000000000E+00 0. -1.
</event>
<event>
 7    1  0.6510186E-006  0.1153186E+03  0.7818608E-02  0.1356010E+00
          2   -1    0    0  502    0  0.00000000000E+00  0.00000000000E+00  0.10095381570E+04  0.10095381570E+04  0.00000000000E+00 0. -1.
          1   -1    0    0  501    0 -0.00000000000E+00 -0.00000000000E+00 -0.66662727024E+03  0.66662727024E+03  0.00000000000E+00 0. -1.
         25    2    1    2    0    0 -0.10815318874E+02 -0.73696565749E+02  0.16374390503E+02  0.14642801825E+03  0.12499955575E+03 0.  0.
          2    1    1    2  501    0  0.11632635166E+02  0.11766756068E+03 -0.59526122914E+03  0.60689117967E+03  0.00000000000E+00 0. -1.
          1    1    1    2  502    0 -0.81731629193E+00 -0.43970994936E+02  0.92179772537E+03  0.92284622928E+03  0.00000000000E+00 0. -1.
         22    1    3    3    0    0  0.18655018938E+02  0.42222198234E+01  0.52313647268E+02  0.55700579551E+02  0.00000000000E+00 0. -1.
         22    1    3    3    0    0 -0.29470337813E+02 -0.77918785572E+02 -0.35939256765E+02  0.90727438698E+02  0.00000000000E+00 0. -1.
</event>
<event>
 7    1  0.6510186E-006  0.1373269E+03  0.7818608E-02  0.1312353E+00
          2   -1    0    0  502    0  0.00000000000E+00  0.00000000000E+00  0.17907843895E+04  0.17907843895E+04  0.00000000000E+00 0. -1.
          1   -1    0    0  501    0 -0.00000000000E+00 -0.00000000000E+00 -0.83692502440E+02  0.83692502440E+02  0.00000000000E+00 0. -1.
         25    2    1    2    0    0 -0.15528662660E+03  0.63709069316E+02  0.47535041628E+03  0.51938092743E+03  0.12500299039E+03 0.  0.
          2    1    1    2  501    0  0.50649568578E+02  0.18991999950E+02 -0.45637347654E+02  0.70773175428E+02  0.00000000000E+00 0. -1.
          1    1    1    2  502    0  0.10463705802E+03 -0.82701069266E+02  0.12773788185E+04  0.12843227891E+04  0.00000000000E+00 0. -1.
         22    1    3    3    0    0 -0.24576348443E+02 -0.36469126856E+02  0.84683828569E+02  0.95421931114E+02  0.00000000000E+00 0.  1.
         22    1    3    3    0    0 -0.13071027816E+03  0.10017819617E+03  0.39066658771E+03  0.42395899631E+03  0.00000000000E+00 0.  1.
</event>
<event>
 7    1  0.6510186E-006  0.7020930E+02  0.7818608E-02  0.1505216E+00
          2   -1    0    0  502    0  0.00000000000E+00  0.00000000000E+00  0.92578170178E+03  0.92578170178E+03  0.00000000000E+00 0. -1.
          1   -1    0    0  501    0 -0.00000000000E+00 -0.00000000000E+00 -0.13291094596E+04  0.13291094596E+04  0.00000000000E+00 0. -1.
         25    2    1    2    0    0 -0.68493979871E+02  0.63215426472E+02  0.31425012784E+03  0.35080769971E+03  0.12500113561E+03 0.  0.
          2    1    1    2  501    0  0.53281737399E+02 -0.45621456985E+02 -0.13096637994E+04  0.13115408984E+04  0.00000000000E+00 0. -1.
          1    1    1    2  502    0  0.15212242472E+02 -0.17593969487E+02  0.59208591369E+03  0.59254256326E+03  0.00000000000E+00 0. -1.
         22    1    3    3    0    0 -0.48539348829E+02 -0.30049412241E+01  0.27571209882E+02  0.55904111395E+02  0.00000000000E+00 0.  1.
         22    1    3    3    0    0 -0.19954631042E+02  0.66220367696E+02  0.28667891796E+03  0.29490358832E+03  0.00000000000E+00 0.  1.
</event>
<event>
 7    1  0.6510186E-006  0.9330263E+02  0.7818608E-02  0.1401364E+00
          2   -1    0    0  502    0  0.00000000000E+00  0.00000000000E+00  0.78290236445E+03  0.78290236445E+03  0.00000000000E+00 0. -1.
          1   -1    0    0  501    0 -0.00000000000E+00 -0.00000000000E+00 -0.34003600232E+03  0.34003600232E+03  0.00000000000E+00 0. -1.
         25    2    1    2    0    0 -0.17042351596E+02 -0.81601780316E+02  0.24911505862E+03  0.29091721434E+03  0.12500088346E+03 0.  0.
          2    1    1    2  501    0  0.35062913741E+02 -0.13352339845E+02 -0.31345306727E+03  0.31569054195E+03  0.00000000000E+00 0. -1.
          1    1    1    2  502    0 -0.18020562145E+02  0.94954120161E+02  0.50720437077E+03  0.51633061048E+03  0.00000000000E+00 0. -1.
         22    1    3    3    0    0  0.27328517883E+02 -0.55346277001E+01  0.12923530029E+01  0.27913261539E+02  0.00000000000E+00 0. -1.
         22    1    3    3    0    0 -0.44370869480E+02 -0.76067152616E+02  0.24782270562E+03  0.26300395280E+03  0.00000000000E+00 0. -1.
</event>
<event>
 7    1  0.6510186E-006  0.1234367E+03  0.7818608E-02  0.1295223E+00
          2   -1    0    0  502    0  0.00000000000E+00  0.00000000000E+00  0.20894986251E+04  0.20894986251E+04  0.00000000000E+00 0. -1.
          1   -1    0    0  501    0 -0.00000000000E+00 -0.00000000000E+00 -0.22645275262E+04  0.22645275262E+04  0.00000000000E+00 0. -1.
         25    2    1    2    0    0 -0.10925545307E+03  0.20522170035E+02  0.26108882527E+03  0.31008079633E+03  0.12499924834E+03 0.  0.
          2    1    1    2  501    0  0.19178713288E+02  0.67746155777E+02 -0.22372727979E+04  0.22383804273E+04  0.00000000000E+00 0. -1.
          1    1    1    2  502    0  0.90076739782E+02 -0.88268325812E+02  0.18011550716E+04  0.18055649277E+04  0.00000000000E+00 0. -1.
         22    1    3    3    0    0 -0.13429501588E+02  0.38223404285E+02  0.17634656268E+03  0.18094057123E+03  0.00000000000E+00 0. -1.
         22    1    3    3    0    0 -0.95825951482E+02 -0.17701234250E+02  0.84742262587E+02  0.12914022510E+03  0.00000000000E+00 0. -1.
</event>
<event>
 7    1  0.6510186E-006  0.4580062E+02  0.7818608E-02  0.1586489E+00
          2   -1    0    0  502    0  0.00000000000E+00  0.00000000000E+00  0.34889220599E+04  0.34889220599E+04  0.00000000000E+00 0. -1.
          1   -1    0    0  501    0 -0.00000000000E+00 -0.00000000000E+00 -0.14243832279E+03  0.14243832279E+03  0.00000000000E+00 0. -1.
         25    2    1    2    0    0  0.49211601788E+02 -0.42435482926E+02  0.34887586464E+03  0.37624779648E+03  0.12500193384E+03 0.  0.
          2    1    1    2  501    0 -0.19591201381E+02  0.77964198743E+01 -0.12772180524E+03  0.12945060397E+03  0.00000000000E+00 0. -1.
          1    1    1    2  502    0 -0.29620400407E+02  0.34639063051E+02  0.31253296777E+04  0.31256619822E+04  0.00000000000E+00 0. -1.
         22    1    3    3    0    0  0.10674736460E+02  0.11667414226E+02 -0.46913892905E+01  0.16495080682E+02  0.00000000000E+00 0. -1.
         22    1    3    3    0    0  0.38536865328E+02 -0.54102897152E+02  0.35356725393E+03  0.35975271580E+03  0.00000000000E+00 0. -1.
</event>
<event>
 7    1  0.6510186E-006  0.6096773E+02  0.7818608E-02  0.1517424E+00
          2   -1    0    0  502    0  0.00000000000E+00  0.00000000000E+00  0.47452297118E+03  0.47452297118E+03  0.00000000000E+00 0. -1.
          1   -1    0    0  501    0 -0.00000000000E+00 -0.00000000000E+00 -0.48697040046E+03  0.48697040046E+03  0.00000000000E+00 0. -1.
         25    2    1    2    0    0 -0.56444378833E+01 -0.69437771330E+02  0.10812704064E+02  0.14350813692E+03  0.12499682807E+03 0.  0.
          2    1    1    2  501    0  0.25730927643E+02  0.55130999059E+02 -0.41803590390E+03  0.42243996573E+03  0.00000000000E+00 0. -1.
          1    1    1    2  502    0 -0.20086489759E+02  0.14306772271E+02  0.39477577056E+03  0.39554526899E+03  0.00000000000E+00 0. -1.
         22    1    3    3    0    0 -0.96748637725E+01 -0.67494767725E+02  0.61980460810E+02  0.92145125653E+02  0.00000000000E+00 0. -1.
         22    1    3    3    0    0  0.40304258892E+01 -0.19430036051E+01 -0.51167756746E+02  0.51363011266E+02  0.00000000000E+00 0. -1.
</event>
<event>
 7    1  0.6510186E-006  0.4248847E+02  0.7818608E-02  0.1570043E+00
          2   -1    0    0  502    0  0.00000000000E+00  0.00000000000E+00  0.26350532088E+04  0.26350532088E+04  0.00000000000E+00 0. -1.
          1   -1    0    0  501    0 -0.00000000000E+00 -0.00000000000E+00 -0.25313704248E+03  0.25313704248E+03  0.00000000000E+00 0. -1.
         25    2    1    2    0    0 -0.39308257700E+02  0.53137242271E+02  0.11485729679E+04  0.11572466558E+04  0.12502501393E+03 0.  0.
          2    1    1    2  501    0  0.14375169737E+02 -0.20654238096E+02 -0.24788022129E+03  0.24915426379E+03  0.00000000000E+00 0. -1.
          1    1    1    2  502    0  0.24933087963E+02 -0.32483004175E+02  0.14812234197E+04  0.14817893317E+04  0.00000000000E+00 0. -1.
         22    1    3    3    0    0 -0.91002624470E+01  0.53026652429E+02  0.10901425716E+04  0.10914694073E+04  0.00000000000E+00 0.  1.
         22    1    3    3    0    0 -0.30207995253E+02  0.11058984181E+00  0.58430396261E+02  0.65777248457E+02  0.00000000000E+00 0.  1.
</event>
<event>
 7    1  0.6510186E-006  0.7614303E+02  0.7818608E-02  0.1357870E+00
          2   -1    0    0  502    0  0.00000000000E+00  0.00000000000E+00  0.20100907401E+03  0.20100907401E+03  0.00000000000E+00 0. -1.
          1   -1    0    0  501    0 -0.00000000000E+00 -0.00000000000E+00 -0.97323671900E+03  0.97323671900E+03  0.00000000000E+00 0. -1.
         25    2    1    2    0    0  0.44805689955E+01 -0.51236780618E+02 -0.21811992551E+03  0.25660546539E+03  0.12499911912E+03 0.  0.
          2    1    1    2  501    0 -0.69452533195E+02  0.42415718075E+02 -0.72761783722E+03  0.73215467256E+03  0.00000000000E+00 0. -1.
          1    1    1    2  502    0  0.64971964199E+02  0.88210625429E+01  0.17351011774E+03  0.18548565506E+03  0.00000000000E+00 0. -1.
         22    1    3    3    0    0  0.10169884004E+02 -0.70468131555E+00  0.14926556950E+02  0.18075542006E+02  0.00000000000E+00 0.  1.
         22    1    3    3    0    0 -0.56893150088E+01 -0.50532099302E+02 -0.23304648246E+03  0.23852992339E+03  0.00000000000E+00 0.  1.
</event>
<event>
 7    1  0.6510186E-006  0.8352087E+02  0.7818608E-02  0.1492992E+00
          2   -1    0    0  502    0  0.00000000000E+00  0.00000000000E+00  0.66372275345E+03  0.66372275345E+03  0.00000000000E+00 0. -1.
          1   -1    0    0  501    0 -0.00000000000E+00 -0.00000000000E+00 -0.73974973983E+03  0.73974973983E+03  0.00000000000E+00 0. -1.
         25    2    1    2    0    0 -0.10055852235E+03 -0.28706008580E+02 -0.24595956450E+03  0.29505467814E+03  0.12500041752E+03 0.  0.
          2    1    1    2  501    0  0.20498800041E+02  0.56644341476E+01 -0.46628459894E+03  0.46676933686E+03  0.00000000000E+00 0. -1.
          1    1    1    2  502    0  0.80059722308E+02  0.23041574433E+02  0.63621717706E+03  0.64164847828E+03  0.00000000000E+00 0. -1.
         22    1    3    3    0    0 -0.31920753905E+02 -0.69371456040E+02 -0.16277008561E+03  0.17979275350E+03  0.00000000000E+00 0. -1.
         22    1    3    3    0    0 -0.68637768445E+02  0.40665447460E+02 -0.83189478888E+02  0.11526192464E+03  0.00000000000E+00 0. -1.
</event>
<event>
 7    1  0.6510186E-006  0.7317459E+02  0.7818608E-02  0.1414764E+00
          2   -1    0    0  502    0  0.00000000000E+00  0.00000000000E+00  0.53400321298E+03  0.53400321298E+03  0.00000000000E+00 0. -1.
          1   -1    0    0  501    0 -0.00000000000E+00 -0.00000000000E+00 -0.18595555026E+03  0.18595555026E+03  0.00000000000E+00 0. -1.
         25    2    1    2    0    0  0.51302374926E+02  0.57678997857E+02  0.21468546872E+03  0.26014142203E+03  0.12499963403E+03 0.  0.
          2    1    1    2  501    0 -0.40016853445E+02  0.15947534003E+02 -0.15557742710E+03  0.16143112532E+03  0.00000000000E+00 0. -1.
          1    1    1    2  502    0 -0.11285521480E+02 -0.73626531861E+02  0.28893962110E+03  0.29838621588E+03  0.00000000000E+00 0. -1.
         22    1    3    3    0    0 -0.22181642122E+02  0.69075234465E+02  0.10532110586E+03  0.12789037729E+03  0.00000000000E+00 0.  1.
         22    1    3    3    0    0  0.73484017048E+02 -0.11396236608E+02  0.10936436286E+03  0.13225104474E+03  0.00000000000E+00 0.  1.
</event>
<event>
 7    1  0.6510186E-006  0.3470254E+02  0.7818608E-02  0.1622410E+00
          2   -1    0    0  502    0  0.00000000000E+00  0.00000000000E+00  0.86888846461E+03  0.86888846461E+03  0.00000000000E+00 0. -1.
          1   -1    0    0  501    0 -0.00000000000E+00 -0.00000000000E+00 -0.33429721859E+02  0.33429721859E+02  0.00000000000E+00 0. -1.
         25    2    1    2    0    0 -0.99253040296E+01  0.55029830596E+02  0.29534760466E+03  0.32554963578E+03  0.12500225542E+03 0.  0.
          2    1    1    2  501    0  0.38625038816E+01 -0.33416967327E+02 -0.24637251518E+01  0.33729550593E+02  0.00000000000E+00 0. -1.
          1    1    1    2  502    0  0.60628001480E+01 -0.21612863270E+02  0.54257486324E+03  0.54303900010E+03  0.00000000000E+00 0. -1.
         22    1    3    3    0    0 -0.23827314819E+02  0.79777834485E+02  0.10956362828E+03  0.13760971059E+03  0.00000000000E+00 0.  1.
         22    1    3    3    0    0  0.13902010790E+02 -0.24748003888E+02  0.18578397638E+03  0.18793992519E+03  0.00000000000E+00 0.  1.
</event>
<event>
 7    1  0.6510186E-006  0.6144752E+02  0.7818608E-02  0.1425514E+00
          2   -1    0    0  502    0  0.00000000000E+00  0.00000000000E+00  0.27830262294E+04  0.27830262294E+04  0.00000000000E+00 0. -1.
          1   -1    0    0  501    0 -0.00000000000E+00 -0.00000000000E+00 -0.27809937113E+03  0.27809937113E+03  0.00000000000E+00 0. -1.
         25    2    1    2    0    0  0.87243887922E+02 -0.52362826887E+02  0.65794981199E+03  0.67740471564E+03  0.12500332820E+03 0.  0.
          2    1    1    2  501    0 -0.29407996972E+02  0.36956136768E+02 -0.26586695217E+03  0.27002929949E+03  0.00000000000E+00 0. -1.
          1    1    1    2  502    0 -0.57835890950E+02  0.15406690119E+02  0.21128439984E+04  0.21136915854E+04  0.00000000000E+00 0. -1.
         22    1    3    3    0    0  0.91367297154E+02 -0.48208699154E+01  0.57042431656E+03  0.57771543574E+03  0.00000000000E+00 0.  1.
         22    1    3    3    0    0 -0.41234092324E+01 -0.47541956972E+02  0.87525495430E+02  0.99689279899E+02  0.00000000000E+00 0.  1.
</event>
<event>
 7    1  0.6510186E-006  0.1141400E+03  0.7818608E-02  0.1347681E+00
          2   -1    0    0  502    0  0.00000000000E+00  0.00000000000E+00  0.34530421539E+03  0.34530421539E+03  0.00000000000E+00 0. -1.
          1   -1    0    0  501    0 -0.00000000000E+00 -0.00000000000E+00 -0.35370472077E+03  0.35370472077E+03  0.00000000000E+00 0. -1.
         25    2    1    2    0    0  0.91570113181E+02 -0.61766013458E+01 -0.12657901554E+02  0.15559138488E+03  0.12500088217E+03 0.  0.
          2    1    1    2  501    0  0.15187355998E+02 -0.45212829789E+02 -0.25444367248E+03  0.25887533336E+03  0.00000000000E+00 0. -1.
          1    1    1    2  502    0 -0.10675746918E+03  0.51389431134E+02  0.25870106865E+03  0.28454221792E+03  0.00000000000E+00 0. -1.
         22    1    3    3    0    0  0.12054534158E+03  0.60554094653E+01  0.24001164233E+01  0.12072119912E+03  0.00000000000E+00 0. -1.
         22    1    3    3    0    0 -0.28975228394E+02 -0.12232010811E+02 -0.15058017977E+02  0.34870185752E+02  0.00000000000E+00 0. -1.
</event>
<event>
 7    1  0.6510186E-006  0.2494421E+02  0.7818608E-02  0.1698894E+00
          2   -1    0    0  502    0  0.00000000000E+00  0.00000000000E+00  0.25439317930E+04  0.25439317930E+04  0.00000000000E+00 0. -1.
          1   -1    0    0  501    0 -0.00000000000E+00 -0.00000000000E+00 -0.50506546972E+01  0.50506546972E+01  0.00000000000E+00 0. -1.
         25    2    1    2    0    0 -0.15273820047E+02 -0.16322286787E+02  0.20268777483E+04  0.20308516693E+04  0.12500155704E+03 0.  0.
          2    1    1    2  501    0  0.17631300914E+02 -0.10236185606E+02  0.35928200979E+02  0.41309537558E+02  0.00000000000E+00 0. -1.
          1    1    1    2  502    0 -0.23574808669E+01  0.26558472393E+02  0.47607518902E+03  0.47682124090E+03  0.00000000000E+00 0. -1.
         22    1    3    3    0    0 -0.60351919770E+02  0.15509721317E+02  0.68157118254E+03  0.68441375099E+03  0.00000000000E+00 0. -1.
         22    1    3    3    0    0  0.45078099723E+02 -0.31832008104E+02  0.13453065658E+04  0.13464379183E+04  0.00000000000E+00 0. -1.
</event>
<event>
 7    1  0.6510186E-006  0.7591883E+02  0.7818608E-02  0.1343749E+00
          2   -1    0    0  502    0  0.00000000000E+00  0.00000000000E+00  0.14728025643E+04  0.14728025643E+04  0.00000000000E+00 0. -1.
          1   -1    0    0  501    0 -0.00000000000E+00 -0.00000000000E+00 -0.73645455356E+02  0.73645455356E+02  0.00000000000E+00 0. -1.
         25    2    1    2    0    0 -0.46234191103E+01  0.52707368919E+01  0.26957535208E+03  0.29722885089E+03  0.12499985073E+03 0.  0.
          2    1    1    2  501    0  0.19734713336E+01  0.75893171385E+02 -0.33731351619E+02  0.83075099362E+02  0.00000000000E+00 0. -1.
          1    1    1    2  502    0  0.26499477768E+01 -0.81163908277E+02  0.11633131085E+04  0.11661440694E+04  0.00000000000E+00 0. -1.
         22    1    3    3    0    0 -0.22104451354E+00  0.61094342694E+02  0.19247915697E+03  0.20194254985E+03  0.00000000000E+00 0.  1.
         22    1    3    3    0    0 -0.44023745968E+01 -0.55823605802E+02  0.77096195102E+02  0.95286301041E+02  0.00000000000E+00 0.  1.
</event>
<event>
 7    1  0.6510186E-006  0.2842391E+03  0.7818608E-02  0.1195059E+00
          2   -1    0    0  502    0  0.00000000000E+00  0.00000000000E+00  0.59172753604E+03  0.59172753604E+03  0.00000000000E+00 0. -1.
          1   -1    0    0  501    0 -0.00000000000E+00 -0.00000000000E+00 -0.20941036606E+04  0.20941036606E+04  0.00000000000E+00 0. -1.
         25    2    1    2    0    0 -0.24245119142E+03 -0.26195280201E+03 -0.34367363508E+03  0.51101645883E+03  0.12499761216E+03 0.  0.
          2    1    1    2  501    0  0.36151638835E+02  0.75790981954E+02 -0.16275994773E+04  0.16297641770E+04  0.00000000000E+00 0. -1.
          1    1    1    2  502    0  0.20629955258E+03  0.18616182006E+03  0.46889698785E+03  0.54505056083E+03  0.00000000000E+00 0. -1.
         22    1    3    3    0    0 -0.23520708796E+03 -0.24244981669E+03 -0.26413678765E+03  0.42880360357E+03  0.00000000000E+00 0.  1.
         22    1    3    3    0    0 -0.72441034551E+01 -0.19502985315E+02 -0.79536847433E+02  0.82212855264E+02  0.00000000000E+00 0.  1.
</event>
<event>
 7    1  0.6510186E-006  0.9989993E+02  0.7818608E-02  0.1335015E+00
          2   -1    0    0  502    0  0.00000000000E+00  0.00000000000E+00  0.21472127219E+04  0.21472127219E+04  0.00000000000E+00 0. -1.
          1   -1    0    0  501    0 -0.00000000000E+00 -0.00000000000E+00 -0.38638932197E+02  0.38638932197E+02  0.00000000000E+00 0. -1.
         25    2    1    2    0    0 -0.26400238380E+02  0.95281330917E+02  0.51074990383E+03  0.53503845396E+03  0.12500071338E+03 0.  0.
          2    1    1    2  501    0 -0.52627334764E+02 -0.30446525360E+02  0.12342472051E+02  0.62040018433E+02  0.00000000000E+00 0. -1.
          1    1    1    2  502    0  0.79027573144E+02 -0.64834805557E+02  0.15854814138E+04  0.15887731817E+04  0.00000000000E+00 0. -1.
         22    1    3    3    0    0  0.48551118525E+01  0.11075722225E+03  0.27154475295E+03  0.29330408665E+03  0.00000000000E+00 0.  1.
         22    1    3    3    0    0 -0.31255350233E+02 -0.15475891332E+02  0.23920515089E+03  0.24173436731E+03  0.00000000000E+00 0.  1.
</event>
<event>
 7    1  0.6510186E-006  0.3268408E+02  0.7818608E-02  0.1596219E+00
          2   -1    0    0  502    0  0.00000000000E+00  0.00000000000E+00  0.82349709273E+03  0.82349709273E+03  0.00000000000E+00 0. -1.
          1   -1    0    0  501    0 -0.00000000000E+00 -0.00000000000E+00 -0.94398042764E+03  0.94398042764E+03  0.00000000000E+00 0. -1.
         25    2    1    2    0    0 -0.34832475968E+02  0.35401907305E+02 -0.20833391156E+01  0.13451995132E+03  0.12499872230E+03 0.  0.
          2    1    1    2  501    0  0.72131633288E+01 -0.31833026506E+02 -0.87511839840E+03  0.87572688809E+03  0.00000000000E+00 0. -1.
          1    1    1    2  502    0  0.27619312639E+02 -0.35688807985E+01  0.75671840261E+03  0.75723068096E+03  0.00000000000E+00 0. -1.
         22    1    3    3    0    0 -0.20258530473E+02 -0.46385281824E+02 -0.79534348992E+01  0.51237286750E+02  0.00000000000E+00 0. -1.
         22    1    3    3    0    0 -0.14573945494E+02  0.81787189129E+02  0.58700957836E+01  0.83282664567E+02  0.00000000000E+00 0. -1.
</event>
<event>
 7    1  0.6510186E-006  0.1511269E+03  0.7818608E-02  0.1311863E+00
          2   -1    0    0  502    0  0.00000000000E+00  0.00000000000E+00  0.18497104352E+04  0.18497104352E+04  0.00000000000E+00 0. -1.
          1   -1    0    0  501    0 -0.00000000000E+00 -0.00000000000E+00 -0.12420145210E+03  0.12420145210E+03  0.00000000000E+00 0. -1.
         25    2    1    2    0    0 -0.16741704598E+03 -0.79451751765E+02  0.43845371225E+03  0.49214621154E+03  0.12500075041E+03 0.  0.
          2    1    1    2  501    0  0.11868165279E+03  0.87355487080E+02 -0.40866745992E+02  0.15292614806E+03  0.00000000000E+00 0. -1.
          1    1    1    2  502    0  0.48735393184E+02 -0.79037353155E+01  0.13279220169E+04  0.13288395277E+04  0.00000000000E+00 0. -1.
         22    1    3    3    0    0 -0.26328940187E+02 -0.50960674619E+02  0.44123240820E+02  0.72367560616E+02  0.00000000000E+00 0.  1.
         22    1    3    3    0    0 -0.14108810579E+03 -0.28491077145E+02  0.39433047143E+03  0.41977865092E+03  0.00000000000E+00 0.  1.
</event>
<event>
 7    1  0.6510186E-006  0.5911340E+02  0.7818608E-02  0.1503782E+00
          2   -1    0    0  502    0  0.00000000000E+00  0.00000000000E+00  0.87188806151E+03  0.87188806151E+03  0.00000000000E+00 0. -1.
          1   -1    0    0  501    0 -0.00000000000E+00 -0.00000000000E+00 -0.22858247018E+03  0.22858247018E+03  0.00000000000E+00 0. -1.
         25    2    1    2    0    0  0.14064137483E+02 -0.70067206033E+02  0.62547710431E+03  0.64183631985E+03  0.12500016054E+03 0.  0.
          2    1    1    2  501    0  0.11095253518E+02  0.58017468843E+02 -0.21559973609E+03  0.22354502352E+03  0.00000000000E+00 0. -1.
          1    1    1    2  502    0 -0.25159391000E+02  0.12049737190E+02  0.23342822310E+03  0.23508918832E+03  0.00000000000E+00 0. -1.
         22    1    3    3    0    0  0.10287759741E+02 -0.26621467563E+02  0.20140943018E+02  0.34931334377E+02  0.00000000000E+00 0. -1.
         22    1    3    3    0    0  0.37763777418E+01 -0.43445738470E+02  0.60533616130E+03  0.60690498547E+03  0.00000000000E+00 0. -1.
</event>
<event>
 7    1  0.6510186E-006  0.2147596E+03  0.7818608E-02  0.1169522E+00
          2   -1    0    0  502    0  0.00000000000E+00  0.00000000000E+00  0.13768392607E+04  0.13768392607E+04  0.00000000000E+00 0. -1.
          1   -1    0    0  501    0 -0.00000000000E+00 -0.00000000000E+00 -0.90744118357E+03  0.90744118357E+03  0.00000000000E+00 0. -1.
         25    2    1    2    0    0  0.13494716868E+03  0.92632874249E+02 -0.30820189117E+03  0.37067923940E+03  0.12499242006E+03 0.  0.
          2    1    1    2  501    0 -0.27720221828E+03 -0.52076206564E+02 -0.52855208317E+03  0.59909957915E+03  0.00000000000E+00 0. -1.
          1    1    1    2  502    0  0.14225504960E+03 -0.40556667684E+02  0.13061520515E+04  0.13145016258E+04  0.00000000000E+00 0. -1.
         22    1    3    3    0    0  0.51141368081E+02  0.29039160461E+02 -0.17244896482E+02  0.61287020030E+02  0.00000000000E+00 0. -1.
         22    1    3    3    0    0  0.83805800601E+02  0.63593713788E+02 -0.29095699469E+03  0.30939221937E+03  0.00000000000E+00 0. -1.
</event>
<event>
 7    1  0.6510186E-006  0.8476931E+02  0.7818608E-02  0.1364239E+00
          2   -1    0    0  502    0  0.00000000000E+00  0.00000000000E+00  0.55922058880E+03  0.55922058880E+03  0.00000000000E+00 0. -1.
          1   -1    0    0  501    0 -0.00000000000E+00 -0.00000000000E+00 -0.83702860824E+03  0.83702860824E+03  0.00000000000E+00 0. -1.
         25    2    1    2    0    0  0.28835775969E+02  0.64983773474E+01  0.18437754185E+03  0.22470857733E+03  0.12500054361E+03 0.  0.
          2    1    1    2  501    0 -0.83765620316E+02 -0.16489354763E+02 -0.81241528960E+03  0.81688871993E+03  0.00000000000E+00 0. -1.
          1    1    1    2  502    0  0.54929844347E+02  0.99909774158E+01  0.35022972831E+03  0.35465189979E+03  0.00000000000E+00 0. -1.
         22    1    3    3    0    0  0.35541323161E+02 -0.49733542452E+02  0.13999467839E+03  0.15275837416E+03  0.00000000000E+00 0.  1.
         22    1    3    3    0    0 -0.67055471918E+01  0.56231919799E+02  0.44382863457E+02  0.71950203169E+02  0.00000000000E+00 0.  1.
</event>
<event>
 7    1  0.6510186E-006  0.1847860E+03  0.7818608E-02  0.1266943E+00
          2   -1    0    0  502    0  0.00000000000E+00  0.00000000000E+00  0.15580741119E+04  0.15580741119E+04  0.00000000000E+00 0. -1.
          1   -1    0    0  501    0 -0.00000000000E+00 -0.00000000000E+00 -0.29512764606E+03  0.29512764606E+03  0.00000000000E+00 0. -1.
         25    2    1    2    0    0  0.22464112470E+03 -0.84648845555E+02  0.25079260806E+03  0.36898740426E+03  0.12500284109E+03 0.  0.
          2    1    1    2  501    0 -0.16567812426E+03  0.67065153814E+02 -0.20130086641E+03  0.26920069564E+03  0.00000000000E+00 0. -1.
          1    1    1    2  502    0 -0.58963000438E+02  0.17583691741E+02  0.12134547242E+04  0.12150136581E+04  0.00000000000E+00 0. -1.
         22    1    3    3    0    0  0.10151523255E+03 -0.11780312137E+02  0.18535187851E+03  0.21165877506E+03  0.00000000000E+00 0.  1.
         22    1    3    3    0    0  0.12312589215E+03 -0.72868533419E+02  0.65440729556E+02  0.15732862919E+03  0.00000000000E+00 0.  1.
</event>
<event>
 7    1  0.6510186E-006  0.8763562E+02  0.7818608E-02  0.1390210E+00
          2   -1    0    0  502    0  0.00000000000E+00  0.00000000000E+00  0.37829171864E+03  0.37829171864E+03  0.00000000000E+00 0. -1.
          1   -1    0    0  501    0 -0.00000000000E+00 -0.00000000000E+00 -0.62648229984E+03  0.62648229984E+03  0.00000000000E+00 0. -1.
         25    2    1    2    0    0 -0.12723407832E+03 -0.94670746249E+01 -0.54699287278E+02  0.18680304150E+03  0.12500091238E+03 0.  0.
          2    1    1    2  501    0  0.85427064879E+02 -0.31103487199E+01 -0.50056374761E+03  0.50781051889E+03  0.00000000000E+00 0. -1.
          1    1    1    2  502    0  0.41807013437E+02  0.12577423345E+02  0.30707245368E+03  0.31016045809E+03  0.00000000000E+00 0. -1.
         22    1    3    3    0    0 -0.89268235905E+02  0.49551706784E+02 -0.77961630999E+01  0.10239614126E+03  0.00000000000E+00 0. -1.
         22    1    3    3    0    0 -0.37965842411E+02 -0.59018781409E+02 -0.46903124179E+02  0.84406900231E+02  0.00000000000E+00 0. -1.
</event>
<event>
 7    1  0.6510186E-006  0.9151897E+02  0.7818608E-02  0.1356299E+00
          2   -1    0    0  502    0  0.00000000000E+00  0.00000000000E+00  0.23116274023E+04  0.23116274023E+04  0.00000000000E+00 0. -1.
          1   -1    0    0  501    0 -0.00000000000E+00 -0.00000000000E+00 -0.10149584135E+03  0.10149584135E+03  0.00000000000E+00 0. -1.
         25    2    1    2    0    0  0.39944776109E+02  0.10536064126E+02  0.46663997583E+03  0.48485497288E+03  0.12499953559E+03 0.  0.
          2    1    1    2  501    0 -0.94130029522E+02  0.41210714434E+00 -0.67880144308E+02  0.11605320453E+03  0.00000000000E+00 0. -1.
          1    1    1    2  502    0  0.54185253413E+02 -0.10948171270E+02  0.18113717294E+04  0.18122150662E+04  0.00000000000E+00 0. -1.
         22    1    3    3    0    0  0.47138448852E+02  0.17261074953E+02  0.60581759677E+02  0.78677364434E+02  0.00000000000E+00 0.  1.
         22    1    3    3    0    0 -0.71936727422E+01 -0.67250108272E+01  0.40605821615E+03  0.40617760845E+03  0.00000000000E+00 0.  1.
</event>
<event>
 7    1  0.6510186E-006  0.7996665E+02  0.7818608E-02  0.1357652E+00
          2   -1    0    0  502    0  0.00000000000E+00  0.00000000000E+00  0.62271545071E+03  0.62271545071E+03  0.00000000000E+00 0. -1.
          1   -1    0    0  501    0 -0.00000000000E+00 -0.00000000000E+00 -0.51815475857E+02  0.51815475857E+02  0.00000000000E+00 0. -1.
         25    2    1    2    0    0 -0.19449148079E+02 -0.18384679614E+02  0.11905373120E+03  0.17468504594E+03  0.12499923422E+03 0.  0.
          2    1    1    2  501    0 -0.53415383814E+02 -0.32542685417E+02  0.31179336455E+02  0.69888343978E+02  0.00000000000E+00 0. -1.
          1    1    1    2  502    0  0.72864531893E+02  0.50927365031E+02  0.42066690719E+03  0.42995753665E+03  0.00000000000E+00 0. -1.
         22    1    3    3    0    0  0.27293009049E+01 -0.49187353536E+02 -0.48454435792E+00  0.49265399770E+02  0.00000000000E+00 0. -1.
         22    1    3    3    0    0 -0.22178448984E+02  0.30802673922E+02  0.11953827556E+03  0.12541964617E+03  0.00000000000E+00 0. -1.
</event>
<event>
 7    1  0.6510186E-006  0.1447979E+03  0.7818608E-02  0.1303205E+00
          2   -1    0    0  502    0  0.00000000000E+00  0.00000000000E+00  0.56559300152E+03  0.56559300152E+03  0.00000000000E+00 0. -1.
          1   -1    0    0  501    0 -0.00000000000E+00 -0.00000000000E+00 -0.19775049679E+04  0.19775049679E+04  0.00000000000E+00 0. -1.
         25    2    1    2    0    0  0.14178106704E+03 -0.31884938962E+02 -0.16925531333E+03  0.25571686024E+03  0.12500092487E+03 0.  0.
          2    1    1    2  501    0 -0.11946311932E+03  0.82982836084E+02 -0.17605229581E+04  0.17665216313E+04  0.00000000000E+00 0. -1.
          1    1    1    2  502    0 -0.22317947719E+02 -0.51097897122E+02  0.51786630499E+03  0.52085947790E+03  0.00000000000E+00 0. -1.
         22    1    3    3    0    0  0.22490969072E+02 -0.21060716305E+02  0.16300907682E+02  0.34858529119E+02  0.00000000000E+00 0. -1.
         22    1    3    3    0    0  0.11929009797E+03 -0.10824222657E+02 -0.18555622102E+03  0.22085833112E+03  0.00000000000E+00 0. -1.
</event>
<event>
 7    1  0.6510186E-006  0.6619845E+02  0.7818608E-02  0.1506507E+00
          2   -1    0    0  502    0  0.00000000000E+00  0.00000000000E+00  0.75419283914E+03  0.75419283914E+03  0.00000000000E+00 0. -1.
          1   -1    0    0  501    0 -0.00000000000E+00 -0.00000000000E+00 -0.17776037438E+03  0.17776037438E+03  0.00000000000E+00 0. -1.
         25    2    1    2    0    0  0.51874399436E+01  0.42240905603E+02  0.38628554863E+03  0.40823158401E+03  0.12500118984E+03 0.  0.
          2    1    1    2  501    0 -0.13635364991E+02 -0.65186760507E+02 -0.15969553391E+03  0.17302572200E+03  0.00000000000E+00 0. -1.
          1    1    1    2  502    0  0.84479250476E+01  0.22945854903E+02  0.34984245004E+03  0.35069590751E+03  0.00000000000E+00 0. -1.
         22    1    3    3    0    0 -0.42183164875E+02 -0.24638792944E+02  0.11816900112E+03  0.12786869179E+03  0.00000000000E+00 0.  1.
         22    1    3    3    0    0  0.47370604819E+02  0.66879698548E+02  0.26811654752E+03  0.28036289221E+03  0.00000000000E+00 0.  1.
</event>
<event>
 7    1  0.6510186E-006  0.7608398E+02  0.7818608E-02  0.1449293E+00
          2   -1    0    0  502    0  0.00000000000E+00  0.00000000000E+00  0.74807677595E+02  0.74807677595E+02  0.00000000000E+00 0. -1.
          1   -1    0    0  501    0 -0.00000000000E+00 -0.00000000000E+00 -0.41853799812E+03  0.41853799812E+03  0.00000000000E+00 0. -1.
         25    2    1    2    0    0 -0.91066020958E+01  0.80402400235E+02 -0.16214658176E+03  0.22014655056E+03  0.12500205432E+03 0.  0.
          2    1    1    2  501    0  0.37691355195E+02 -0.66214441501E+02 -0.21433330684E+03  0.22747254107E+03  0.00000000000E+00 0. -1.
          1    1    1    2  502    0 -0.28584753099E+02 -0.14187958734E+02  0.32749568074E+02  0.45726584082E+02  0.00000000000E+00 0. -1.
         22    1    3    3    0    0  0.77726207825E+01  0.11231330593E+03 -0.11747372987E+03  0.16271069274E+03  0.00000000000E+00 0.  1.
         22    1    3    3    0    0 -0.16879222878E+02 -0.31910905700E+02 -0.44672851890E+02  0.57435857820E+02  0.00000000000E+00 0.  1.
</event>
<event>
 7    1  0.6510186E-006  0.1571895E+03  0.7818608E-02  0.1238144E+00
          2   -1    0    0  502    0  0.00000000000E+00  0.00000000000E+00  0.15540446681E+04  0.15540446681E+04  0.00000000000E+00 0. -1.
          1   -1    0    0  501    0 -0.00000000000E+00 -0.00000000000E+00 -0.12197372547E+04  0.12197372547E+04  0.00000000000E+00 0. -1.
         25    2    1    2    0    0  0.64898298855E+02 -0.29026402449E+02  0.74046880307E+02  0.16175889684E+03  0.12501471510E+03 0.  0.
          2    1    1    2  501    0  0.93605585279E+02 -0.22748369875E+02 -0.11690534443E+04  0.11730155368E+04  0.00000000000E+00 0. -1.
          1    1    1    2  502    0 -0.15850388413E+03  0.51774772323E+02  0.14293139773E+04  0.14390074892E+04  0.00000000000E+00 0. -1.
         22    1    3    3    0    0  0.78430642852E+01  0.18851475685E+02  0.84152709406E+02  0.86594285569E+02  0.00000000000E+00 0.  1.
         22    1    3    3    0    0  0.57055234570E+02 -0.47877878134E+02 -0.10105829098E+02  0.75164611275E+02  0.00000000000E+00 0.  1.
</event>
<event>
 7    1  0.6510186E-006  0.1058820E+03  0.7818608E-02  0.1344913E+00
          2   -1    0    0  502    0  0.00000000000E+00  0.00000000000E+00  0.17064596798E+03  0.17064596798E+03  0.00000000000E+00 0. -1.
          1   -1    0    0  501    0 -0.00000000000E+00 -0.00000000000E+00 -0.11953027941E+04  0.11953027941E+04  0.00000000000E+00 0. -1.
         25    2    1    2    0    0 -0.36957662624E+02 -0.42900794812E+02 -0.52839632426E+03  0.54592466469E+03  0.12499886803E+03 0.  0.
          2    1    1    2  501    0 -0.18344663490E+02 -0.49351571879E+02 -0.63907323076E+03  0.64123841011E+03  0.00000000000E+00 0. -1.
          1    1    1    2  502    0  0.55302326113E+02  0.92252366691E+02  0.14281272891E+03  0.17878568727E+03  0.00000000000E+00 0. -1.
         22    1    3    3    0    0 -0.20512937563E+02  0.43613145549E+02 -0.21893739348E+03  0.22417954710E+03  0.00000000000E+00 0.  1.
         22    1    3    3    0    0 -0.16444725061E+02 -0.86513940361E+02 -0.30945893077E+03  0.32174511759E+03  0.00000000000E+00 0.  1.
</event>
<event>
 7    1  0.6510186E-006  0.2352576E+03  0.7818608E-02  0.1262403E+00
          2   -1    0    0  502    0  0.00000000000E+00  0.00000000000E+00  0.18627769425E+04  0.18627769425E+04  0.00000000000E+00 0. -1.
          1   -1    0    0  501    0 -0.00000000000E+00 -0.00000000000E+00 -0.13753847557E+04  0.13753847557E+04  0.00000000000E+00 0. -1.
         25    2    1    2    0    0 -0.18722757005E+03 -0.18982142122E+02  0.12754038842E+03  0.25943586494E+03  0.12500373048E+03 0.  0.
          2    1    1    2  501    0  0.23748904475E+03  0.13909501467E+02 -0.12982440360E+04  0.13198606357E+04  0.00000000000E+00 0. -1.
          1    1    1    2  502    0 -0.50261474704E+02  0.50726406550E+01  0.16580958344E+04  0.16588651975E+04  0.00000000000E+00 0. -1.
         22    1    3    3    0    0 -0.75681978096E+02 -0.55320020701E+02  0.11536744198E+02  0.94451908216E+02  0.00000000000E+00 0. -1.
         22    1    3    3    0    0 -0.11154559195E+03  0.36337878580E+02  0.11600364423E+03  0.16498395673E+03  0.00000000000E+00 0. -1.
</event>
<event>
 7    1  0.6510186E-006  0.4369119E+02  0.7818608E-02  0.1548586E+00
          2   -1    0    0  502    0  0.00000000000E+00  0.00000000000E+00  0.13444946598E+03  0.13444946598E+03  0.00000000000E+00 0. -1.
          1   -1    0    0  501    0 -0.00000000000E+00 -0.00000000000E+00 -0.64936809506E+03  0.64936809506E+03  0.00000000000E+00 0. -1.
         25    2    1    2    0    0 -0.39229045984E+02 -0.19783462756E+02  0.18470864050E+02  0.13377996535E+03  0.12500241143E+03 0.  0.
          2    1    1    2  501    0  0.19161640177E+02  0.39368104767E+02 -0.58748093769E+03  0.58911023440E+03  0.00000000000E+00 0. -1.
          1    1    1    2  502    0  0.20067405806E+02 -0.19584642011E+02  0.54091444556E+02  0.60927361281E+02  0.00000000000E+00 0. -1.
         22    1    3    3    0    0 -0.30220109020E+02 -0.61136471829E+02  0.46924219313E+02  0.82781673908E+02  0.00000000000E+00 0. -1.
         22    1    3    3    0    0 -0.90089369634E+01  0.41353009073E+02 -0.28453355263E+02  0.50998291445E+02  0.00000000000E+00 0. -1.
</event>
<event>
 7    1  0.6510186E-006  0.5659938E+02  0.7818608E-02  0.1423239E+00
          2   -1    0    0  502    0  0.00000000000E+00  0.00000000000E+00  0.29699879049E+04  0.29699879049E+04  0.00000000000E+00 0. -1.
          1   -1    0    0  501    0 -0.00000000000E+00 -0.00000000000E+00 -0.35782361567E+04  0.35782361567E+04  0.00000000000E+00 0. -1.
         25    2    1    2    0    0  0.89438121374E+02  0.61806859851E+02 -0.11864067569E+04  0.11979140171E+04  0.12497093335E+03 0.  0.
          2    1    1    2  501    0 -0.43788069164E+02 -0.28366963380E+02 -0.23855204409E+04  0.23860909147E+04  0.00000000000E+00 0. -1.
          1    1    1    2  502    0 -0.45650052209E+02 -0.33439896471E+02  0.29636789459E+04  0.29642191296E+04  0.00000000000E+00 0. -1.
         22    1    3    3    0    0  0.95707225621E+02  0.15417718093E+02 -0.10326289990E+04  0.10371693346E+04  0.00000000000E+00 0.  1.
         22    1    3    3    0    0 -0.62691042474E+01  0.46389141758E+02 -0.15377775786E+03  0.16074468251E+03  0.00000000000E+00 0.  1.
</event>
<event>
 7    1  0.6510186E-006  0.5795192E+02  0.7818608E-02  0.1450371E+00
          2   -1    0    0  502    0  0.00000000000E+00  0.00000000000E+00  0.11960834502E+04  0.11960834502E+04  0.00000000000E+00 0. -1.
          1   -1    0    0  501    0 -0.00000000000E+00 -0.00000000000E+00 -0.25975224066E+02  0.25975224066E+02  0.00000000000E+00 0. -1.
         25    2    1    2    0    0  0.41252538490E+02 -0.30357586405E+02  0.62888032694E+03  0.64322507637E+03  0.12499871312E+03 0.  0.
          2    1    1    2  501    0 -0.59057129942E+02 -0.72012193612E+01  0.31321109374E+02  0.67235511820E+02  0.00000000000E+00 0. -1.
          1    1    1    2  502    0  0.17804591452E+02  0.37558805766E+02  0.50990678984E+03  0.51159808609E+03  0.00000000000E+00 0. -1.
         22    1    3    3    0    0  0.34968391151E+02  0.23849497732E+02  0.51716279025E+03  0.51889202975E+03  0.00000000000E+00 0.  1.
         22    1    3    3    0    0  0.62841473393E+01 -0.54207084137E+02  0.11171753669E+03  0.12433304662E+03  0.00000000000E+00 0.  1.
</event>
<event>
 7    1  0.6510186E-006  0.1416871E+03  0.7818608E-02  0.1333231E+00
          2   -1    0    0  502    0  0.00000000000E+00  0.00000000000E+00  0.91724734650E+03  0.91724734650E+03  0.00000000000E+00 0. -1.
          1   -1    0    0  501    0 -0.00000000000E+00 -0.00000000000E+00 -0.19385067287E+03  0.19385067287E+03  0.00000000000E+00 0. -1.
         25    2    1    2    0    0 -0.12288683643E+03 -0.27176338133E+02  0.38306614601E+03  0.42214278027E+03  0.12500050719E+03 0.  0.
          2    1    1    2  501    0 -0.29456068513E+02  0.32066523463E+02 -0.16005405974E+03  0.16587110640E+03  0.00000000000E+00 0. -1.
          1    1    1    2  502    0  0.15234290494E+03 -0.48901853299E+01  0.50038458737E+03  0.52308413270E+03  0.00000000000E+00 0. -1.
         22    1    3    3    0    0 -0.79293521292E+02  0.38064920924E+02  0.27409094636E+03  0.28785803376E+03  0.00000000000E+00 0. -1.
         22    1    3    3    0    0 -0.43593315138E+02 -0.65241259057E+02  0.10897519965E+03  0.13428474652E+03  0.00000000000E+00 0. -1.
</event>
<event>
 7    1  0.6510186E-006  0.5677969E+02  0.7818608E-02  0.1444607E+00
          2   -1    0    0  502    0  0.00000000000E+00  0.00000000000E+00  0.35575001251E+03  0.35575001251E+03  0.00000000000E+00 0. -1.
          1   -1    0    0  501    0 -0.00000000000E+00 -0.00000000000E+00 -0.39480866518E+03  0.39480866518E+03  0.00000000000E+00 0. -1.
         25    2    1    2    0    0 -0.64778458620E+02 -0.61031162569E+02 -0.27547045870E+02  0.15589779600E+03  0.12499692619E+03 0.  0.
          2    1    1    2  501    0  0.43289841408E+02  0.92655581912E+01 -0.29874641519E+03  0.30200874412E+03  0.00000000000E+00 0. -1.
          1    1    1    2  502    0  0.21488617212E+02  0.51765604378E+02  0.28723480839E+03  0.29265213756E+03  0.00000000000E+00 0. -1.
         22    1    3    3    0    0 -0.83050271966E+02 -0.27091835576E+01  0.10728967835E+02  0.83784235390E+02  0.00000000000E+00 0.  1.
         22    1    3    3    0    0  0.18271813346E+02 -0.58321979011E+02 -0.38276013705E+02  0.72113560610E+02  0.00000000000E+00 0.  1.
</event>
<event>
 7    1  0.6510186E-006  0.1206706E+03  0.7818608E-02  0.1324329E+00
          2   -1    0    0  502    0  0.00000000000E+00  0.00000000000E+00  0.11954491378E+04  0.11954491378E+04  0.00000000000E+00 0. -1.
          1   -1    0    0  501    0 -0.00000000000E+00 -0.00000000000E+00 -0.10542391796E+04  0.10542391796E+04  0.00000000000E+00 0. -1.
         25    2    1    2    0    0 -0.17287388389E+03  0.13310114047E+02  0.49058110218E+02  0.21930388075E+03  0.12499982026E+03 0.  0.
          2    1    1    2  501    0  0.11924235645E+03  0.16482773891E+00 -0.96472273947E+03  0.97206415981E+03  0.00000000000E+00 0. -1.
          1    1    1    2  502    0  0.53631527447E+02 -0.13474941786E+02  0.10568745875E+04  0.10583202769E+04  0.00000000000E+00 0. -1.
         22    1    3    3    0    0 -0.77972922053E+01 -0.11411461968E+02  0.50523698340E+02  0.52379989728E+02  0.00000000000E+00 0. -1.
         22    1    3    3    0    0 -0.16507659169E+03  0.24721576015E+02 -0.14655881223E+01  0.16692389102E+03  0.00000000000E+00 0. -1.
</event>
<event>
 7    1  0.6510186E-006  0.3003287E+02  0.7818608E-02  0.1622975E+00
          2   -1    0    0  502    0  0.00000000000E+00  0.00000000000E+00  0.32756284452E+03  0.32756284452E+03  0.00000000000E+00 0. -1.
          1   -1    0    0  501    0 -0.00000000000E+00 -0.00000000000E+00 -0.22857574840E+03  0.22857574840E+03  0.00000000000E+00 0. -1.
         25    2    1    2    0    0  0.48359487808E+02  0.22654684349E+02  0.13509950750E+03  0.19164594215E+03  0.12499766170E+03 0.  0.
          2    1    1    2  501    0 -0.29462106046E+02 -0.50136690590E+01 -0.19815745755E+03  0.20039842952E+03  0.00000000000E+00 0. -1.
          1    1    1    2  502    0 -0.18897381762E+02 -0.17641015290E+02  0.16204504617E+03  0.16409422125E+03  0.00000000000E+00 0. -1.
         22    1    3    3    0    0 -0.90623750485E+01 -0.42652559638E+02  0.21598526336E+02  0.48660701034E+02  0.00000000000E+00 0.  1.
         22    1    3    3    0    0  0.57421862856E+02  0.65307243987E+02  0.11350098116E+03  0.14298524111E+03  0.00000000000E+00 0.  1.
</event>
<event>
 7    1  0.6510186E-006  0.9096692E+02  0.7818608E-02  0.1341726E+00
          2   -1    0    0  502    0  0.00000000000E+00  0.00000000000E+00  0.54915447159E+03  0.54915447159E+03  0.00000000000E+00 0. -1.
          1   -1    0    0  501    0 -0.00000000000E+00 -0.00000000000E+00 -0.27144292847E+03  0.27144292847E+03  0.00000000000E+00 0. -1.
         25    2    1    2    0    0  0.55088791504E+02 -0.39068129436E+02  0.47902167570E+02  0.14993215232E+03  0.12499575574E+03 0.  0.
          2    1    1    2  501    0  0.39227079507E+02  0.49284958674E+02 -0.21077343019E+03  0.21998456717E+03  0.00000000000E+00 0. -1.
          1    1    1    2  502    0 -0.94315871011E+02 -0.10216829238E+02  0.44058280575E+03  0.45068068057E+03  0.00000000000E+00 0. -1.
         22    1    3    3    0    0  0.23510717811E+02 -0.28168946010E+02 -0.40964538472E+02  0.54993970428E+02  0.00000000000E+00 0. -1.
         22    1    3    3    0    0  0.31578073693E+02 -0.10899183426E+02  0.88866706042E+02  0.94938181889E+02  0.00000000000E+00 0. -1.
</event>
<event>
 7    1  0.6510186E-006  0.5685091E+02  0.7818608E-02  0.1426407E+00
          2   -1    0    0  502    0  0.00000000000E+00  0.00000000000E+00  0.11367501336E+04  0.11367501336E+04  0.00000000000E+00 0. -1.
          1   -1    0    0  501    0 -0.00000000000E+00 -0.00000000000E+00 -0.25939509972E+03  0.25939509972E+03  0.00000000000E+00 0. -1.
         25    2    1    2    0    0 -0.10525846832E+02 -0.36315026679E+01  0.39538499627E+03  0.41482363939E+03  0.12500150105E+03 0.  0.
          2    1    1    2  501    0  0.49449072017E+02 -0.28858633972E+02 -0.24549950574E+03  0.25208736342E+03  0.00000000000E+00 0. -1.
          1    1    1    2  502    0 -0.38923225185E+02  0.32490136639E+02  0.72746954334E+03  0.72923423049E+03  0.00000000000E+00 0. -1.
         22    1    3    3    0    0  0.11915834988E+02 -0.14969222826E+01  0.39181586825E+03  0.39199987566E+03  0.00000000000E+00 0. -1.
         22    1    3    3    0    0 -0.22441681820E+02 -0.21345803853E+01  0.35691280107E+01  0.22823763736E+02  0.00000000000E+00 0. -1.
</event>
<event>
 7    1  0.6510186E-006  0.4869532E+02  0.7818608E-02  0.1562232E+00
          2   -1    0    0  502    0  0.00000000000E+00  0.00000000000E+00  0.11055283559E+03  0.11055283559E+03  0.00000000000E+00 0. -1.
          1   -1    0    0  501    0 -0.00000000000E+00 -0.00000000000E+00 -0.11320689304E+04  0.11320689304E+04  0.00000000000E+00 0. -1.
         25    2    1    2    0    0  0.13654939578E+02 -0.38503575258E+02 -0.68250156756E+02  0.14816235458E+03  0.12500006695E+03 0.  0.
          2    1    1    2  501    0  0.72013148943E+01  0.48345784851E+02 -0.10213790782E+04  0.10225479916E+04  0.00000000000E+00 0. -1.
          1    1    1    2  502    0 -0.20856254473E+02 -0.98422095929E+01  0.68113140114E+02  0.71911419792E+02  0.00000000000E+00 0. -1.
         22    1    3    3    0    0  0.94318636036E+00 -0.78125614501E+02 -0.13332547856E+02  0.79260696906E+02  0.00000000000E+00 0.  1.
         22    1    3    3    0    0  0.12711753218E+02  0.39622039243E+02 -0.54917608899E+02  0.68901657679E+02  0.00000000000E+00 0.  1.
</event>
<event>
 7    1  0.6510186E-006  0.9653220E+02  0.7818608E-02  0.1470419E+00
          2   -1    0    0  502    0  0.00000000000E+00  0.00000000000E+00  0.17612590012E+04  0.17612590012E+04  0.00000000000E+00 0. -1.
          1   -1    0    0  501    0 -0.00000000000E+00 -0.00000000000E+00 -0.36850850486E+03  0.36850850486E+03  0.00000000000E+00 0. -1.
         25    2    1    2    0    0  0.76487032760E+02 -0.65352507230E+02 -0.60113384530E+02  0.17134525124E+03  0.12499743893E+03 0.  0.
          2    1    1    2  501    0  0.85914605242E+01  0.19788595065E+02 -0.25095079567E+03  0.25187636557E+03  0.00000000000E+00 0. -1.
          1    1    1    2  502    0 -0.85078493284E+02  0.45563912165E+02  0.17038146765E+04  0.17065458892E+04  0.00000000000E+00 0. -1.
         22    1    3    3    0    0  0.40905701953E+02 -0.81595738713E+01  0.35236898834E+02  0.54603059781E+02  0.00000000000E+00 0.  1.
         22    1    3    3    0    0  0.35581330807E+02 -0.57192933359E+02 -0.95350283364E+02  0.11674219146E+03  0.00000000000E+00 0.  1.
</event>
<event>
 7    1  0.6510186E-006  0.5662876E+02  0.7818608E-02  0.1488568E+00
          2   -1    0    0  502    0  0.00000000000E+00  0.00000000000E+00  0.88585402348E+03  0.88585402348E+03  0.00000000000E+00 0. -1.
          1   -1    0    0  501    0 -0.00000000000E+00 -0.00000000000E+00 -0.14431617611E+03  0.14431617611E+03  0.00000000000E+00 0. -1.
         25    2    1    2    0    0 -0.36575682441E+02  0.51863674426E+01  0.12702749660E+03  0.18199630007E+03  0.12498795699E+03 0.  0.
          2    1    1    2  501    0  0.53191884099E+02  0.22566695958E+02 -0.10930430215E+03  0.12363681802E+03  0.00000000000E+00 0. -1.
          1    1    1    2  502    0 -0.16616201658E+02 -0.27753063400E+02  0.72381465292E+03  0.72453708150E+03  0.00000000000E+00 0. -1.
         22    1    3    3    0    0  0.11772136154E+02 -0.52807844467E+02  0.62597460018E+02  0.82738706949E+02  0.00000000000E+00 0.  1.
         22    1    3    3    0    0 -0.48347818595E+02  0.57994211909E+02  0.64430036586E+02  0.99257593122E+02  0.00000000000E+00 0.  1.
</event>
<event>
 7    1  0.6510186E-006  0.1075349E+03  0.7818608E-02  0.1306997E+00
          2   -1    0    0  502    0  0.00000000000E+00  0.00000000000E+00  0.21041498989E+03  0.21041498989E+03  0.00000000000E+00 0. -1.
          1   -1    0    0  501    0 -0.00000000000E+00 -0.00000000000E+00 -0.57133621880E+03  0.57133621880E+03  0.00000000000E+00 0. -1.
         25    2    1    2    0    0 -0.49747555984E+02 -0.13570272346E+03 -0.19807857570E+03  0.27522512035E+03  0.12499478485E+03 0.  0.
          2    1    1    2  501    0 -0.30162881184E+02  0.65951837391E+02 -0.31377672346E+03  0.32204856224E+03  0.00000000000E+00 0. -1.
          1    1    1    2  502    0  0.79910437169E+02  0.69750886069E+02  0.15093407024E+03  0.18447752610E+03  0.00000000000E+00 0. -1.
         22    1    3    3    0    0  0.36488606284E+02 -0.22393173829E+02 -0.20101723019E+02  0.47296425774E+02  0.00000000000E+00 0. -1.
         22    1    3    3    0    0 -0.86236162269E+02 -0.11330954963E+03 -0.17797685268E+03  0.22792869457E+03  0.00000000000E+00 0. -1.
</event>
<event>
 7    1  0.6510186E-006  0.4017895E+02  0.7818608E-02  0.1560862E+00
          2   -1    0    0  502    0  0.00000000000E+00  0.00000000000E+00  0.30991024917E+03  0.30991024917E+03  0.00000000000E+00 0. -1.
          1   -1    0    0  501    0 -0.00000000000E+00 -0.00000000000E+00 -0.57425241326E+02  0.57425241326E+02  0.00000000000E+00 0. -1.
         25    2    1    2    0    0  0.22467156219E+02 -0.31165131193E+02  0.92472245064E+02  0.16016136907E+03  0.12499803809E+03 0.  0.
          2    1    1    2  501    0  0.17473329588E+02  0.22125901413E+02 -0.11789209877E+02  0.30559094060E+02  0.00000000000E+00 0. -1.
          1    1    1    2  502    0 -0.39940485807E+02  0.90392297804E+01  0.17180197266E+03  0.17661502737E+03  0.00000000000E+00 0. -1.
         22    1    3    3    0    0  0.28310688756E+02 -0.77296084069E+02  0.45453817531E+02  0.94033128409E+02  0.00000000000E+00 0.  1.
         22    1    3    3    0    0 -0.58435325369E+01  0.46130952875E+02  0.47018427533E+02  0.66128240664E+02  0.00000000000E+00 0.  1.
</event>
<event>
 7    1  0.6510186E-006  0.1171182E+03  0.7818608E-02  0.1428177E+00
          2   -1    0    0  502    0  0.00000000000E+00  0.00000000000E+00  0.12373782810E+04  0.12373782810E+04  0.00000000000E+00 0. -1.
          1   -1    0    0  501    0 -0.00000000000E+00 -0.00000000000E+00 -0.20985336681E+03  0.20985336681E+03  0.00000000000E+00 0. -1.
         25    2    1    2    0    0  0.12060248098E+03  0.46496120810E+02  0.10515451128E+03  0.20830084328E+03  0.12499968960E+03 0.  0.
          2    1    1    2  501    0 -0.99648348119E+02 -0.58765187448E+02 -0.13698411194E+03  0.17929804088E+03  0.00000000000E+00 0. -1.
          1    1    1    2  502    0 -0.20954132863E+02  0.12269066638E+02  0.10593545148E+04  0.10596327636E+04  0.00000000000E+00 0. -1.
         22    1    3    3    0    0  0.82086791431E+02  0.84245899492E+02  0.41174568266E+02  0.12462326420E+03  0.00000000000E+00 0. -1.
         22    1    3    3    0    0  0.38515689551E+02 -0.37749778682E+02  0.63979943018E+02  0.83677579080E+02  0.00000000000E+00 0. -1.
</event>
<event>
 7    1  0.6510186E-006  0.1639804E+03  0.7818608E-02  0.1325755E+00
          2   -1    0    0  502    0  0.00000000000E+00  0.00000000000E+00  0.59868463644E+02  0.59868463644E+02  0.00000000000E+00 0. -1.
          1   -1    0    0  501    0 -0.00000000000E+00 -0.00000000000E+00 -0.14583614342E+04  0.14583614342E+04  0.00000000000E+00 0. -1.
         25    2    1    2    0    0  0.13768197910E+03  0.76509642423E+02 -0.28528167122E+03  0.34902742626E+03  0.12499783837E+03 0.  0.
          2    1    1    2  501    0  0.27169229208E+02 -0.29604393093E+02 -0.87402033497E+03  0.87494350278E+03  0.00000000000E+00 0. -1.
          1    1    1    2  502    0 -0.16485120830E+03 -0.46905249331E+02 -0.23919096440E+03  0.29425896884E+03  0.00000000000E+00 0. -1.
         22    1    3    3    0    0  0.10925179959E+03  0.97790431513E+02 -0.15239959269E+03  0.21148181970E+03  0.00000000000E+00 0. -1.
         22    1    3    3    0    0  0.28430179502E+02 -0.21280789090E+02 -0.13288207853E+03  0.13754560656E+03  0.00000000000E+00 0. -1.
</event>
<event>
 7    1  0.6510186E-006  0.6485160E+02  0.7818608E-02  0.1465602E+00
          2   -1    0    0  502    0  0.00000000000E+00  0.00000000000E+00  0.10984617627E+04  0.10984617627E+04  0.00000000000E+00 0. -1.
          1   -1    0    0  501    0 -0.00000000000E+00 -0.00000000000E+00 -0.33733523270E+03  0.33733523270E+03  0.00000000000E+00 0. -1.
         25    2    1    2    0    0  0.46259609441E+02 -0.80905881068E+02  0.53173065553E+03  0.55411974981E+03  0.12500197615E+03 0.  0.
          2    1    1    2  501    0 -0.21146919462E+02  0.25648869876E+02 -0.32362888605E+03  0.32533169629E+03  0.00000000000E+00 0. -1.
          1    1    1    2  502    0 -0.25112689979E+02  0.55257011192E+02  0.55302476052E+03  0.55634554931E+03  0.00000000000E+00 0. -1.
         22    1    3    3    0    0  0.98854345178E+01 -0.11346196098E+02  0.40343530191E+03  0.40371586643E+03  0.00000000000E+00 0. -1.
         22    1    3    3    0    0  0.36374174923E+02 -0.69559684970E+02  0.12829535362E+03  0.15040388338E+03  0.00000000000E+00 0. -1.
</event>
<event>
 7    1  0.6510186E-006  0.5874016E+02  0.7818608E-02  0.1418225E+00
          2   -1    0    0  502    0  0.00000000000E+00  0.00000000000E+00  0.46663788461E+03  0.46663788461E+03  0.00000000000E+00 0. -1.
          1   -1    0    0  501    0 -0.00000000000E+00 -0.00000000000E+00 -0.11381377975E+03  0.11381377975E+03  0.00000000000E+00 0. -1.
         25    2    1    2    0    0  0.72012178819E+01 -0.88622651224E+02  0.28546053099E+03  0.32406373951E+03  0.12499504258E+03 0.  0.
          2    1    1    2  501    0 -0.32367853442E+02  0.41012379516E+02 -0.82214397087E+02  0.97410986539E+02  0.00000000000E+00 0. -1.
          1    1    1    2  502    0  0.25166635561E+02  0.47610271708E+02  0.14957797096E+03  0.15897693831E+03  0.00000000000E+00 0. -1.
         22    1    3    3    0    0  0.38690706372E+02 -0.44541065128E+02  0.25536491143E+03  0.26209180688E+03  0.00000000000E+00 0. -1.
         22    1    3    3    0    0 -0.31489488490E+02 -0.44081586096E+02  0.30095619550E+02  0.61971932633E+02  0.00000000000E+00 0. -1.
</event>
<event>
 7    1  0.6510186E-006  0.5812818E+02  0.7818608E-02  0.1472504E+00
          2   -1    0    0  502    0  0.00000000000E+00  0.00000000000E+00  0.75413547674E+03  0.75413547674E+03  0.00000000000E+00 0. -1.
          1   -1    0    0  501    0 -0.00000000000E+00 -0.00000000000E+00 -0.69883587218E+03  0.69883587218E+03  0.00000000000E+00 0. -1.
         25    2    1    2    0    0 -0.32295757943E+02  0.56356695399E+02  0.30365399552E+03  0.33473688036E+03  0.12499574787E+03 0.  0.
          2    1    1    2  501    0  0.51594608144E+02 -0.26803664856E+02 -0.68133817609E+03  0.68381441213E+03  0.00000000000E+00 0. -1.
          1    1    1    2  502    0 -0.19298850201E+02 -0.29553030543E+02  0.43298378514E+03  0.43442005643E+03  0.00000000000E+00 0. -1.
         22    1    3    3    0    0 -0.11504119063E+01 -0.19826884470E+02 -0.27386517786E+00  0.19862119662E+02  0.00000000000E+00 0. -1.
         22    1    3    3    0    0 -0.31145346037E+02  0.76183579868E+02  0.30392786069E+03  0.31487476070E+03  0.00000000000E+00 0. -1.
</event>
<event>
 7    1  0.6510186E-006  0.1298176E+03  0.7818608E-02  0.1423764E+00
          2   -1    0    0  502    0  0.00000000000E+00  0.00000000000E+00  0.51710444310E+02  0.51710444310E+02  0.00000000000E+00 0. -1.
          1   -1    0    0  501    0 -0.00000000000E+00 -0.00000000000E+00 -0.22743642202E+04  0.22743642202E+04  0.00000000000E+00 0. -1.
         25    2    1    2    0    0  0.56325732908E+02  0.13739855485E+03 -0.80542202161E+03  0.82848054481E+03  0.12499771662E+03 0.  0.
          2    1    1    2  501    0 -0.68682769690E+00 -0.22645717804E+02 -0.13558883773E+04  0.13560776497E+04  0.00000000000E+00 0. -1.
          1    1    1    2  502    0 -0.55638905211E+02 -0.11475283705E+03 -0.61343376950E+02  0.14151647000E+03  0.00000000000E+00 0. -1.
         22    1    3    3    0    0  0.67024963351E+02  0.11933332470E+02 -0.26995768963E+03  0.27840959812E+03  0.00000000000E+00 0.  1.
         22    1    3    3    0    0 -0.10699230443E+02  0.12546522238E+03 -0.53546433198E+03  0.55007094668E+03  0.00000000000E+00 0.  1.
</event>
<event>
 7    1  0.6510186E-006  0.4710737E+02  0.7818608E-02  0.1489866E+00
          2   -1    0    0  502    0  0.00000000000E+00  0.00000000000E+00  0.58428081715E+02  0.58428081715E+02  0.00000000000E+00 0. -1.
          1   -1    0    0  501    0 -0.00000000000E+00 -0.00000000000E+00 -0.13477483582E+04  0.13477483582E+04  0.00000000000E+00 0. -1.
         25    2    1    2    0    0 -0.80237900745E+01 -0.87234480428E+01 -0.48028560400E+03  0.49642802077E+03  0.12500415449E+03 0.  0.
          2    1    1    2  501    0  0.31850737906E+02  0.39008601755E+02 -0.85116475222E+03  0.85265325657E+03  0.00000000000E+00 0. -1.
          1    1    1    2  502    0 -0.23826947831E+02 -0.30285153713E+02  0.42130079699E+02  0.57095162613E+02  0.00000000000E+00 0. -1.
         22    1    3    3    0    0  0.22612559544E+02  0.21559514505E+00 -0.94444999752E+01  0.24506589118E+02  0.00000000000E+00 0.  1.
         22    1    3    3    0    0 -0.30636349619E+02 -0.89390431879E+01 -0.47084110403E+03  0.47192143165E+03  0.00000000000E+00 0.  1.
</event>
<event>
 7    1  0.7023995E-006  0.7604603E+02  0.7818608E-02  0.1343424E+00
          2   -1    0    0  502    0  0.00000000000E+00  0.00000000000E+00  0.81701448069E+03  0.81701448069E+03  0.00000000000E+00 0. -1.
          1   -1    0    0  501    0 -0.00000000000E+00 -0.00000000000E+00 -0.22929870886E+04  0.22929870886E+04  0.00000000000E+00 0. -1.
         25    2    1    2    0    0  0.64924342772E+00  0.31083895789E+01 -0.30651665881E+03  0.33104026189E+03  0.12500043706E+03 0.  0.
          2    1    1    2  501    0 -0.50092471540E+02 -0.60886977110E+02 -0.19716224242E+04  0.19731982828E+04  0.00000000000E+00 0. -1.
          1    1    1    2  502    0  0.49443228112E+02  0.57778587531E+02  0.80216647511E+03  0.80576302457E+03  0.00000000000E+00 0. -1.
         22    1    3    3    0    0  0.37497479240E+02  0.51756324895E+02 -0.16342441591E+03  0.17547739977E+03  0.00000000000E+00 0.  1.
         22    1    3    3    0    0 -0.36848235812E+02 -0.48647935316E+02 -0.14309224290E+03  0.15556286212E+03  0.00000000000E+00 0.  1.
</event>
<event>
 7    1  0.6510186E-006  0.6832071E+02  0.7818608E-02  0.1462235E+00
          2   -1    0    0  502    0  0.00000000000E+00  0.00000000000E+00  0.96510580879E+02  0.96510580879E+02  0.00000000000E+00 0. -1.
          1   -1    0    0  501    0 -0.00000000000E+00 -0.00000000000E+00 -0.19919762578E+04  0.19919762578E+04  0.00000000000E+00 0. -1.
         25    2    1    2    0    0 -0.36603148957E+02  0.16496491593E+02 -0.59528095029E+02  0.14415695574E+03  0.12500283614E+03 0.  0.
          2    1    1    2  501    0  0.52106746051E+02 -0.44868128336E+02 -0.18846283996E+04  0.18858824106E+04  0.00000000000E+00 0. -1.
          1    1    1    2  502    0 -0.15503597094E+02  0.28371636743E+02  0.48690817719E+02  0.58447472353E+02  0.00000000000E+00 0. -1.
         22    1    3    3    0    0 -0.41220901096E+02 -0.43038230923E+02  0.34682297025E+00  0.59595069379E+02  0.00000000000E+00 0.  1.
         22    1    3    3    0    0  0.46177521386E+01  0.59534722516E+02 -0.59874918000E+02  0.84561886363E+02  0.00000000000E+00 0.  1.
</event>
<event>
 7    1  0.6510186E-006  0.6615178E+02  0.7818608E-02  0.1463904E+00
          2   -1    0    0  502    0  0.00000000000E+00  0.00000000000E+00  0.10735194935E+03  0.10735194935E+03  0.00000000000E+00 0. -1.
          1   -1    0    0  501    0 -0.00000000000E+00 -0.00000000000E+00 -0.86247374372E+03  0.86247374372E+03  0.00000000000E+00 0. -1.
         25    2    1    2    0    0  0.41907555472E+02  0.21604848389E+02 -0.44151055635E+02  0.14070536322E+03  0.12500268336E+03 0.  0.
          2    1    1    2  501    0  0.43276827174E+01  0.32705599375E+02 -0.74801947645E+03  0.74874663420E+03  0.00000000000E+00 0. -1.
          1    1    1    2  502    0 -0.46235238189E+02 -0.54310447764E+02  0.37048737708E+02  0.80373695651E+02  0.00000000000E+00 0. -1.
         22    1    3    3    0    0  0.12628433819E+02  0.65886672150E+02  0.64130428994E+01  0.67391824630E+02  0.00000000000E+00 0. -1.
         22    1    3    3    0    0  0.29279121653E+02 -0.44281823761E+02 -0.50564098534E+02  0.73313538593E+02  0.00000000000E+00 0. -1.
</event>
<event>
 7    1  0.6510186E-006  0.1156197E+03  0.7818608E-02  0.1350927E+00
          2   -1    0    0  502    0  0.00000000000E+00  0.00000000000E+00  0.69417560697E+03  0.69417560697E+03  0.00000000000E+00 0. -1.
          1   -1    0    0  501    0 -0.00000000000E+00 -0.00000000000E+00 -0.12300884723E+03  0.12300884723E+03  0.00000000000E+00 0. -1.
         25    2    1    2    0    0  0.29892103913E+02  0.85989638359E+02  0.21743064429E+03  0.26681294544E+03  0.12500122798E+03 0.  0.
          2    1    1    2  501    0  0.42833697601E+02  0.16208335298E+02 -0.83643740878E+02  0.95360952026E+02  0.00000000000E+00 0. -1.
          1    1    1    2  502    0 -0.72725801513E+02 -0.10219797366E+03  0.43737985632E+03  0.45501055674E+03  0.00000000000E+00 0. -1.
         22    1    3    3    0    0 -0.64425388329E+00  0.10781120268E+03  0.11458116981E+03  0.15732932010E+03  0.00000000000E+00 0. -1.
         22    1    3    3    0    0  0.30536357796E+02 -0.21821564326E+02  0.10284947448E+03  0.10948362534E+03  0.00000000000E+00 0. -1.
</event>
<event>
 7    1  0.6510186E-006  0.7811509E+02  0.7818608E-02  0.1489567E+00
          2   -1    0    0  502    0  0.00000000000E+00  0.00000000000E+00  0.24887317165E+04  0.24887317165E+04  0.00000000000E+00 0. -1.
          1   -1    0    0  501    0 -0.00000000000E+00 -0.00000000000E+00 -0.22653850295E+03  0.22653850295E+03  0.00000000000E+00 0. -1.
         25    2    1    2    0    0  0.11424139415E+02  0.84512014716E+02  0.61222234965E+03  0.63064554319E+03  0.12499921656E+03 0.  0.
          2    1    1    2  501    0  0.19260529666E+02 -0.13088300281E+02 -0.21589146311E+03  0.21714372073E+03  0.00000000000E+00 0. -1.
          1    1    1    2  502    0 -0.30684669081E+02 -0.71423714435E+02  0.18658623270E+04  0.18674809556E+04  0.00000000000E+00 0. -1.
         22    1    3    3    0    0  0.31259378484E+02 -0.12538502479E+02  0.32663620795E+03  0.32836804828E+03  0.00000000000E+00 0.  1.
         22    1    3    3    0    0 -0.19835239068E+02  0.97050517195E+02  0.28558614170E+03  0.30227749491E+03  0.00000000000E+00 0.  1.
</event>
<event>
 7    1  0.6510186E-006  0.1206925E+03  0.7818608E-02  0.1335771E+00
          2   -1    0    0  502    0  0.00000000000E+00  0.00000000000E+00  0.27185492311E+03  0.27185492311E+03  0.00000000000E+00 0. -1.
          1   -1    0    0  501    0 -0.00000000000E+00 -0.00000000000E+00 -0.50716995552E+03  0.50716995552E+03  0.00000000000E+00 0. -1.
         25    2    1    2    0    0 -0.12208029153E+03 -0.45761646018E+02 -0.37868840503E+02  0.18452879578E+03  0.12497640403E+03 0.  0.
          2    1    1    2  501    0  0.16585450419E+01  0.49967304853E+02 -0.37587857977E+03  0.37918885671E+03  0.00000000000E+00 0. -1.
          1    1    1    2  502    0  0.12042174649E+03 -0.42056588347E+01  0.17843238786E+03  0.21530722615E+03  0.00000000000E+00 0. -1.
         22    1    3    3    0    0 -0.92755867035E+02  0.13035957768E+02  0.21356591579E+02  0.96071281184E+02  0.00000000000E+00 0. -1.
         22    1    3    3    0    0 -0.29324424497E+02 -0.58797603786E+02 -0.59225432082E+02  0.88457514596E+02  0.00000000000E+00 0. -1.
</event>
<event>
 7    1  0.6510186E-006  0.8574666E+02  0.7818608E-02  0.1421634E+00
          2   -1    0    0  502    0  0.00000000000E+00  0.00000000000E+00  0.18914273104E+03  0.18914273104E+03  0.00000000000E+00 0. -1.
          1   -1    0    0  501    0 -0.00000000000E+00 -0.00000000000E+00 -0.36009500605E+03  0.36009500605E+03  0.00000000000E+00 0. -1.
         25    2    1    2    0    0 -0.87468914376E+02 -0.56755188483E+02 -0.14500465795E+03  0.21801015066E+03  0.12502044857E+03 0.  0.
          2    1    1    2  501    0  0.53041082928E+02  0.62257101638E+02 -0.16698812623E+03  0.18594175831E+03  0.00000000000E+00 0. -1.
          1    1    1    2  502    0  0.34427831447E+02 -0.55019131548E+01  0.14104050917E+03  0.14528582812E+03  0.00000000000E+00 0. -1.
         22    1    3    3    0    0 -0.52811676810E+02 -0.24764285662E+02 -0.15854951490E+03  0.16893872181E+03  0.00000000000E+00 0.  1.
         22    1    3    3    0    0 -0.34657237565E+02 -0.31990902822E+02  0.13544856952E+02  0.49071428845E+02  0.00000000000E+00 0.  1.
</event>
<event>
 7    1  0.6510186E-006  0.1438871E+03  0.7818608E-02  0.1420280E+00
          2   -1    0    0  502    0  0.00000000000E+00  0.00000000000E+00  0.12338300329E+04  0.12338300329E+04  0.00000000000E+00 0. -1.
          1   -1    0    0  501    0 -0.00000000000E+00 -0.00000000000E+00 -0.54235926158E+03  0.54235926158E+03  0.00000000000E+00 0. -1.
         25    2    1    2    0    0 -0.17007326884E+02 -0.12607849903E+03  0.10521734727E+04  0.10671826166E+04  0.12499873359E+03 0.  0.
          2    1    1    2  501    0  0.32401633709E+02  0.14035324244E+03 -0.52447406706E+03  0.54389516044E+03  0.00000000000E+00 0. -1.
          1    1    1    2  502    0 -0.15394306825E+02 -0.14274743415E+02  0.16377136564E+03  0.16511151742E+03  0.00000000000E+00 0. -1.
         22    1    3    3    0    0 -0.26783062163E+02  0.14086602555E+02  0.93705016647E+02  0.98470274373E+02  0.00000000000E+00 0.  1.
         22    1    3    3    0    0  0.97757352788E+01 -0.14016510158E+03  0.95846845609E+03  0.96871234224E+03  0.00000000000E+00 0.  1.
</event>
<event>
 7    1  0.6510186E-006  0.1200368E+03  0.7818608E-02  0.1274530E+00
          2   -1    0    0  502    0  0.00000000000E+00  0.00000000000E+00  0.22344389600E+04  0.22344389600E+04  0.00000000000E+00 0. -1.
          1   -1    0    0  501    0 -0.00000000000E+00 -0.00000000000E+00 -0.55828294149E+03  0.55828294149E+03  0.00000000000E+00 0. -1.
         25    2    1    2    0    0 -0.54135504770E+02  0.72725327595E+02  0.50044728991E+03  0.52372903841E+03  0.12499995822E+03 0.  0.
          2    1    1    2  501    0  0.66725930818E+02  0.57413383689E+02 -0.54059569827E+03  0.54771557899E+03  0.00000000000E+00 0. -1.
          1    1    1    2  502    0 -0.12590426048E+02 -0.13013871128E+03  0.17163044268E+04  0.17212772841E+04  0.00000000000E+00 0. -1.
         22    1    3    3    0    0 -0.65469664365E+02  0.10223362240E+03  0.36570628071E+03  0.38532982529E+03  0.00000000000E+00 0. -1.
         22    1    3    3    0    0  0.11334159596E+02 -0.29508294809E+02  0.13474100919E+03  0.13839921313E+03  0.00000000000E+00 0. -1.
</event>
<event>
 7    1  0.6510186E-006  0.4729991E+02  0.7818608E-02  0.1474998E+00
          2   -1    0    0  502    0  0.00000000000E+00  0.00000000000E+00  0.51026757913E+03  0.51026757913E+03  0.00000000000E+00 0. -1.
          1   -1    0    0  501    0 -0.00000000000E+00 -0.00000000000E+00 -0.29281628975E+03  0.29281628975E+03  0.00000000000E+00 0. -1.
         25    2    1    2    0    0  0.18310248259E+02  0.52106519529E+01  0.31848274385E+03  0.34266534186E+03  0.12500344913E+03 0.  0.
          2    1    1    2  501    0 -0.63036666724E+01  0.46877985793E+02 -0.27468304145E+03  0.27872577030E+03  0.00000000000E+00 0. -1.
          1    1    1    2  502    0 -0.12006581587E+02 -0.52088637746E+02  0.17365158698E+03  0.18169275672E+03  0.00000000000E+00 0. -1.
         22    1    3    3    0    0 -0.52510917059E+02  0.45921455257E+01  0.17312209374E+03  0.18096890217E+03  0.00000000000E+00 0. -1.
         22    1    3    3    0    0  0.70821165319E+02  0.61850642717E+00  0.14536065011E+03  0.16169643969E+03  0.00000000000E+00 0. -1.
</event>
<event>
 7    1  0.6510186E-006  0.1485482E+03  0.7818608E-02  0.1369644E+00
          2   -1    0    0  502    0  0.00000000000E+00  0.00000000000E+00  0.58606404438E+03  0.58606404438E+03  0.00000000000E+00 0. -1.
          1   -1    0    0  501    0 -0.00000000000E+00 -0.00000000000E+00 -0.15766858235E+04  0.15766858235E+04  0.00000000000E+00 0. -1.
         25    2    1    2    0    0 -0.14058661835E+03  0.31176172710E+02  0.17837847534E+03  0.26111453308E+03  0.12500147166E+03 0.  0.
          2    1    1    2  501    0  0.14866088581E+03 -0.18060542283E+01 -0.15310776728E+04  0.15382789607E+04  0.00000000000E+00 0. -1.
          1    1    1    2  502    0 -0.80742674553E+01 -0.29370118481E+02  0.36207741838E+03  0.36335637404E+03  0.00000000000E+00 0. -1.
         22    1    3    3    0    0 -0.11277525373E+03 -0.93200086854E+01  0.17924991050E+03  0.21198030765E+03  0.00000000000E+00 0. -1.
         22    1    3    3    0    0 -0.27811364627E+02  0.40496181395E+02 -0.87143515921E+00  0.49134225436E+02  0.00000000000E+00 0. -1.
</event>
<event>
 7    1  0.6510186E-006  0.1077294E+03  0.7818608E-02  0.1267815E+00
          2   -1    0    0  502    0  0.00000000000E+00  0.00000000000E+00  0.24729438052E+04  0.24729438052E+04  0.00000000000E+00 0. -1.
          1   -1    0    0  501    0 -0.00000000000E+00 -0.00000000000E+00 -0.54822559957E+03  0.54822559957E+03  0.00000000000E+00 0. -1.
         25    2    1    2    0    0 -0.66490198782E+02 -0.10333909639E+03  0.61169260802E+02  0.18563176301E+03  0.12497022684E+03 0.  0.
          2    1    1    2  501    0  0.10463364786E+03  0.18672276065E+01 -0.47909272029E+03  0.49038915306E+03  0.00000000000E+00 0. -1.
          1    1    1    2  502    0 -0.38143449078E+02  0.10147186878E+03  0.23426416651E+04  0.23451484887E+04  0.00000000000E+00 0. -1.
         22    1    3    3    0    0  0.53502728580E+01 -0.58033779108E+02  0.79666183564E+02  0.98707880845E+02  0.00000000000E+00 0.  1.
         22    1    3    3    0    0 -0.71840471640E+02 -0.45305317279E+02 -0.18496922762E+02  0.86923882166E+02  0.00000000000E+00 0.  1.
</event>
<event>
 7    1  0.6510186E-006  0.4962839E+02  0.7818608E-02  0.1483308E+00
          2   -1    0    0  502    0  0.00000000000E+00  0.00000000000E+00  0.21605141326E+03  0.21605141326E+03  0.00000000000E+00 0. -1.
          1   -1    0    0  501    0 -0.00000000000E+00 -0.00000000000E+00 -0.11652739464E+04  0.11652739464E+04  0.00000000000E+00 0. -1.
         25    2    1    2    0    0  0.31826639580E+02  0.34298174716E+02 -0.21003132472E+03  0.24885650177E+03  0.12500840505E+03 0.  0.
          2    1    1    2  501    0 -0.50212321285E+02 -0.70515828916E+00 -0.93328409858E+03  0.93463414400E+03  0.00000000000E+00 0. -1.
          1    1    1    2  502    0  0.18385681704E+02 -0.33593016427E+02  0.19409289012E+03  0.19783471394E+03  0.00000000000E+00 0. -1.
         22    1    3    3    0    0  0.30997175264E+02 -0.13666605437E+02 -0.19595545951E+03  0.19886212081E+03  0.00000000000E+00 0.  1.
         22    1    3    3    0    0  0.82946431695E+00  0.47964780153E+02 -0.14075865203E+02  0.49994380959E+02  0.00000000000E+00 0.  1.
</event>
<event>
 7    1  0.6510186E-006  0.1322603E+03  0.7818608E-02  0.1370441E+00
          2   -1    0    0  502    0  0.00000000000E+00  0.00000000000E+00  0.30826204603E+03  0.30826204603E+03  0.00000000000E+00 0. -1.
          1   -1    0    0  501    0 -0.00000000000E+00 -0.00000000000E+00 -0.12116946904E+03  0.12116946904E+03  0.00000000000E+00 0. -1.
         25    2    1    2    0    0 -0.12130898469E+03 -0.88097518316E+02  0.16546347830E+03  0.25588287410E+03  0.12498335932E+03 0.  0.
          2    1    1    2  501    0  0.21338110516E+02  0.26452387281E+02 -0.29924830224E+02  0.45282879957E+02  0.00000000000E+00 0. -1.
          1    1    1    2  502    0  0.99970874171E+02  0.61645131035E+02  0.51553928902E+02  0.12826576101E+03  0.00000000000E+00 0. -1.
         22    1    3    3    0    0 -0.47657200529E+02  0.21757052389E+02  0.88545643853E+02  0.10288298759E+03  0.00000000000E+00 0. -1.
         22    1    3    3    0    0 -0.73651784158E+02 -0.10985457071E+03  0.76917834451E+02  0.15299988651E+03  0.00000000000E+00 0. -1.
</event>
<event>
 7    1  0.6510186E-006  0.1000288E+03  0.7818608E-02  0.1324536E+00
          2   -1    0    0  502    0  0.00000000000E+00  0.00000000000E+00  0.13670278301E+04  0.13670278301E+04  0.00000000000E+00 0. -1.
          1   -1    0    0  501    0 -0.00000000000E+00 -0.00000000000E+00 -0.57964193174E+02  0.57964193174E+02  0.00000000000E+00 0. -1.
         25    2    1    2    0    0 -0.29946492147E+01  0.75717099612E+02  0.80431622102E+03  0.81749084751E+03  0.12499862110E+03 0.  0.
          2    1    1    2  501    0  0.40051722533E+02  0.53194785878E+02 -0.17053607066E+02  0.68736098496E+02  0.00000000000E+00 0. -1.
          1    1    1    2  502    0 -0.37057073318E+02 -0.12891188549E+03  0.52180102294E+03  0.53876507723E+03  0.00000000000E+00 0. -1.
         22    1    3    3    0    0 -0.41807541000E+02  0.66606439630E+02  0.25792748788E+03  0.26964954531E+03  0.00000000000E+00 0. -1.
         22    1    3    3    0    0  0.38812891785E+02  0.91106599822E+01  0.54638873314E+03  0.54784130220E+03  0.00000000000E+00 0. -1.
</event>
<event>
 7    1  0.6510186E-006  0.1374200E+03  0.7818608E-02  0.1230195E+00
          2   -1    0    0  502    0  0.00000000000E+00  0.00000000000E+00  0.25671156670E+03  0.25671156670E+03  0.00000000000E+00 0. -1.
          1   -1    0    0  501    0 -0.00000000000E+00 -0.00000000000E+00 -0.29488554390E+04  0.29488554390E+04  0.00000000000E+00 0. -1.
         25    2    1    2    0    0  0.35489802152E+02 -0.37253229196E+02  0.13617580067E+02  0.13586158510E+03  0.12500241068E+03 0.  0.
          2    1    1    2  501    0 -0.25729450234E+02 -0.13498981055E+03 -0.28448093172E+04  0.28481264552E+04  0.00000000000E+00 0. -1.
          1    1    1    2  502    0 -0.97603519180E+01  0.17224303975E+03  0.13904786481E+03  0.22157896543E+03  0.00000000000E+00 0. -1.
         22    1    3    3    0    0  0.60135214462E+01 -0.79610851048E+02 -0.73175176756E+01  0.80172290162E+02  0.00000000000E+00 0. -1.
         22    1    3    3    0    0  0.29476280706E+02  0.42357621852E+02  0.20935097743E+02  0.55689294939E+02  0.00000000000E+00 0. -1.
</event>
<event>
 7    1  0.6510186E-006  0.2011573E+03  0.7818608E-02  0.1232929E+00
          2   -1    0    0  502    0  0.00000000000E+00  0.00000000000E+00  0.73959774870E+03  0.73959774870E+03  0.00000000000E+00 0. -1.
          1   -1    0    0  501    0 -0.00000000000E+00 -0.00000000000E+00 -0.56643806443E+03  0.56643806443E+03  0.00000000000E+00 0. -1.
         25    2    1    2    0    0  0.16413024355E+03 -0.85505598223E+02 -0.17760310898E+03  0.28533162264E+03  0.12498530468E+03 0.  0.
          2    1    1    2  501    0 -0.14389905631E+03  0.16228402154E+03 -0.29718169695E+03  0.36791303736E+03  0.00000000000E+00 0. -1.
          1    1    1    2  502    0 -0.20231187234E+02 -0.76778423319E+02  0.64794449020E+03  0.65279115313E+03  0.00000000000E+00 0. -1.
         22    1    3    3    0    0  0.17969099996E+03 -0.89525171950E+02 -0.17930191488E+03  0.26917055663E+03  0.00000000000E+00 0. -1.
         22    1    3    3    0    0 -0.15560756412E+02  0.40195737274E+01  0.16988058998E+01  0.16161066009E+02  0.00000000000E+00 0. -1.
</event>
<event>
 7    1  0.6510186E-006  0.8934881E+02  0.7818608E-02  0.1334285E+00
          2   -1    0    0  502    0  0.00000000000E+00  0.00000000000E+00  0.90305219000E+03  0.90305219000E+03  0.00000000000E+00 0. -1.
          1   -1    0    0  501    0 -0.00000000000E+00 -0.00000000000E+00 -0.72048434773E+03  0.72048434773E+03  0.00000000000E+00 0. -1.
         25    2    1    2    0    0 -0.12595707265E+03 -0.77944023423E+02  0.13663559298E+03  0.23713764946E+03  0.12499809833E+03 0.  0.
          2    1    1    2  501    0  0.66794851316E+02  0.14799326349E+02 -0.66586046231E+03  0.66936591450E+03  0.00000000000E+00 0. -1.
          1    1    1    2  502    0  0.59162221330E+02  0.63144697073E+02  0.71179271160E+03  0.71703297378E+03  0.00000000000E+00 0. -1.
         22    1    3    3    0    0 -0.88903068942E+02  0.67726177236E+01  0.25845316936E+02  0.92831053132E+02  0.00000000000E+00 0.  1.
         22    1    3    3    0    0 -0.37054003705E+02 -0.84716641146E+02  0.11079027604E+03  0.14430659633E+03  0.00000000000E+00 0.  1.
</event>
<event>
 7    1  0.6510186E-006  0.4888157E+02  0.7818608E-02  0.1494635E+00
          2   -1    0    0  502    0  0.00000000000E+00  0.00000000000E+00  0.37193574834E+03  0.37193574834E+03  0.00000000000E+00 0. -1.
          1   -1    0    0  501    0 -0.00000000000E+00 -0.00000000000E+00 -0.38522912929E+03  0.38522912929E+03  0.00000000000E+00 0. -1.
         25    2    1    2    0    0 -0.12851857043E+02 -0.14018949170E+02  0.43954179215E+02  0.13385990043E+03  0.12499920763E+03 0.  0.
          2    1    1    2  501    0  0.48549326073E+02  0.99717519292E+01 -0.33731798842E+03  0.34093972812E+03  0.00000000000E+00 0. -1.
          1    1    1    2  502    0 -0.35697469030E+02  0.40471972409E+01  0.28007042825E+03  0.28236524907E+03  0.00000000000E+00 0. -1.
         22    1    3    3    0    0  0.32641066926E+02  0.36169291077E+02  0.44697662702E+02  0.66117606718E+02  0.00000000000E+00 0. -1.
         22    1    3    3    0    0 -0.45492923968E+02 -0.50188240247E+02 -0.74348348743E+00  0.67742293717E+02  0.00000000000E+00 0. -1.
</event>
<event>
 7    1  0.6510186E-006  0.7226710E+02  0.7818608E-02  0.1464525E+00
          2   -1    0    0  502    0  0.00000000000E+00  0.00000000000E+00  0.33391676050E+04  0.33391676050E+04  0.00000000000E+00 0. -1.
          1   -1    0    0  501    0 -0.00000000000E+00 -0.00000000000E+00 -0.44939796243E+02  0.44939796243E+02  0.00000000000E+00 0. -1.
         25    2    1    2    0    0 -0.38809850577E+02 -0.92154335769E+02  0.89044319598E+03  0.90471827875E+03  0.12500980979E+03 0.  0.
          2    1    1    2  501    0  0.15233543373E+02  0.25918687284E+02 -0.31236132911E+02  0.43353606464E+02  0.00000000000E+00 0. -1.
          1    1    1    2  502    0  0.23576307204E+02  0.66235648485E+02  0.24350207457E+04  0.24360355160E+04  0.00000000000E+00 0. -1.
         22    1    3    3    0    0 -0.62732559987E+02 -0.45142499421E+02  0.76137014588E+03  0.76528277021E+03  0.00000000000E+00 0. -1.
         22    1    3    3    0    0  0.23922709410E+02 -0.47011836349E+02  0.12907305010E+03  0.13943550855E+03  0.00000000000E+00 0. -1.
</event>
<event>
 7    1  0.6510186E-006  0.8105426E+02  0.7818608E-02  0.1477161E+00
          2   -1    0    0  502    0  0.00000000000E+00  0.00000000000E+00  0.43856342872E+03  0.43856342872E+03  0.00000000000E+00 0. -1.
          1   -1    0    0  501    0 -0.00000000000E+00 -0.00000000000E+00 -0.49626484815E+03  0.49626484815E+03  0.00000000000E+00 0. -1.
         25    2    1    2    0    0  0.27607567326E+02  0.92803100007E+02  0.21967156979E+02  0.15963368762E+03  0.12500306034E+03 0.  0.
          2    1    1    2  501    0 -0.20767712404E+02 -0.12975214481E+02 -0.42245761944E+03  0.42316674526E+03  0.00000000000E+00 0. -1.
          1    1    1    2  502    0 -0.68398549224E+01 -0.79827885526E+02  0.34278904303E+03  0.35202784399E+03  0.00000000000E+00 0. -1.
         22    1    3    3    0    0  0.56933964020E+02  0.17126783436E+02  0.45796822136E+02  0.75047664105E+02  0.00000000000E+00 0. -1.
         22    1    3    3    0    0 -0.29326396694E+02  0.75676316571E+02 -0.23829665157E+02  0.84586023516E+02  0.00000000000E+00 0. -1.
</event>
<event>
 7    1  0.6510186E-006  0.6610785E+02  0.7818608E-02  0.1443337E+00
          2   -1    0    0  502    0  0.00000000000E+00  0.00000000000E+00  0.59105752648E+03  0.59105752648E+03  0.00000000000E+00 0. -1.
          1   -1    0    0  501    0 -0.00000000000E+00 -0.00000000000E+00 -0.25106963040E+03  0.25106963040E+03  0.00000000000E+00 0. -1.
         25    2    1    2    0    0  0.68937961364E+02  0.49067155499E+02  0.18989097808E+03  0.24257363784E+03  0.12499343164E+03 0.  0.
          2    1    1    2  501    0 -0.49632871448E+01 -0.38061806143E+02 -0.22024536795E+03  0.22356510776E+03  0.00000000000E+00 0. -1.
          1    1    1    2  502    0 -0.63974674219E+02 -0.11005349356E+02  0.37034228594E+03  0.37598841128E+03  0.00000000000E+00 0. -1.
         22    1    3    3    0    0 -0.14545226986E+02  0.19571788904E+02 -0.80934940912E+01  0.25692862736E+02  0.00000000000E+00 0.  1.
         22    1    3    3    0    0  0.83483188350E+02  0.29495366595E+02  0.19798447217E+03  0.21688077510E+03  0.00000000000E+00 0.  1.
</event>
<event>
 7    1  0.6510186E-006  0.1622268E+03  0.7818608E-02  0.1406531E+00
          2   -1    0    0  502    0  0.00000000000E+00  0.00000000000E+00  0.28853332119E+03  0.28853332119E+03  0.00000000000E+00 0. -1.
          1   -1    0    0  501    0 -0.00000000000E+00 -0.00000000000E+00 -0.66376376228E+03  0.66376376228E+03  0.00000000000E+00 0. -1.
         25    2    1    2    0    0  0.12894719891E+03 -0.12558030933E+03  0.15047583473E+02  0.21965530467E+03  0.12499691557E+03 0.  0.
          2    1    1    2  501    0 -0.11951055203E+03  0.10713544219E+03 -0.54930371989E+03  0.57227209587E+03  0.00000000000E+00 0. -1.
          1    1    1    2  502    0 -0.94366468802E+01  0.18444867140E+02  0.15902569533E+03  0.16036968293E+03  0.00000000000E+00 0. -1.
         22    1    3    3    0    0  0.62022279087E+02 -0.45943507988E+02 -0.54532584019E+02  0.94505934995E+02  0.00000000000E+00 0.  1.
         22    1    3    3    0    0  0.66924919821E+02 -0.79636801344E+02  0.69580167492E+02  0.12514936967E+03  0.00000000000E+00 0.  1.
</event>
<event>
 7    1  0.6510186E-006  0.5200992E+02  0.7818608E-02  0.1475726E+00
          2   -1    0    0  502    0  0.00000000000E+00  0.00000000000E+00  0.11806103162E+04  0.11806103162E+04  0.00000000000E+00 0. -1.
          1   -1    0    0  501    0 -0.00000000000E+00 -0.00000000000E+00 -0.35329223867E+03  0.35329223867E+03  0.00000000000E+00 0. -1.
         25    2    1    2    0    0  0.10431233940E+02  0.22718369308E+02  0.38024330730E+03  0.40104189835E+03  0.12499878615E+03 0.  0.
          2    1    1    2  501    0 -0.48762304804E+02 -0.18584461518E+02 -0.34043321674E+03  0.34440952315E+03  0.00000000000E+00 0. -1.
          1    1    1    2  502    0  0.38331070864E+02 -0.41339077904E+01  0.78750798695E+03  0.78845113336E+03  0.00000000000E+00 0. -1.
         22    1    3    3    0    0  0.12899338052E+02 -0.43108605065E+02  0.26066146393E+03  0.26451681143E+03  0.00000000000E+00 0. -1.
         22    1    3    3    0    0 -0.24681041123E+01  0.65826974374E+02  0.11958184337E+03  0.13652508692E+03  0.00000000000E+00 0. -1.
</event>
<event>
 7    1  0.6510186E-006  0.8487562E+02  0.7818608E-02  0.1324686E+00
          2   -1    0    0  502    0  0.00000000000E+00  0.00000000000E+00  0.12154488074E+04  0.12154488074E+04  0.00000000000E+00 0. -1.
          1   -1    0    0  501    0 -0.00000000000E+00 -0.00000000000E+00 -0.14995608671E+04  0.14995608671E+04  0.00000000000E+00 0. -1.
         25    2    1    2    0    0  0.13467472550E+03  0.57444072296E+02  0.49136345514E+03  0.52773139882E+03  0.12500112450E+03 0.  0.
          2    1    1    2  501    0 -0.78317868467E+02 -0.28767295105E+01 -0.14781562534E+04  0.14802323715E+04  0.00000000000E+00 0. -1.
          1    1    1    2  502    0 -0.56356857038E+02 -0.54567342785E+02  0.70268073859E+03  0.70704590418E+03  0.00000000000E+00 0. -1.
         22    1    3    3    0    0  0.11419470417E+03 -0.12686470486E+02  0.35352812092E+03  0.37173042554E+03  0.00000000000E+00 0.  1.
         22    1    3    3    0    0  0.20480021331E+02  0.70130542781E+02  0.13783533422E+03  0.15600097328E+03  0.00000000000E+00 0.  1.
</event>
<event>
 7    1  0.6510186E-006  0.1037860E+03  0.7818608E-02  0.1344592E+00
          2   -1    0    0  502    0  0.00000000000E+00  0.00000000000E+00  0.31046305454E+04  0.31046305454E+04  0.00000000000E+00 0. -1.
          1   -1    0    0  501    0 -0.00000000000E+00 -0.00000000000E+00 -0.12013419801E+04  0.12013419801E+04  0.00000000000E+00 0. -1.
         25    2    1    2    0    0 -0.13295328053E+03 -0.48705655533E+01  0.10714675399E+04  0.10869064019E+04  0.12499016016E+03 0.  0.
          2    1    1    2  501    0  0.97437291611E+02 -0.35624194249E+02 -0.11910090820E+04  0.11955190264E+04  0.00000000000E+00 0. -1.
          1    1    1    2  502    0  0.35515988918E+02  0.40494759802E+02  0.20228301075E+04  0.20235470973E+04  0.00000000000E+00 0. -1.
         22    1    3    3    0    0 -0.37009000552E+02 -0.21279110476E+02  0.74537239464E+03  0.74659391463E+03  0.00000000000E+00 0. -1.
         22    1    3    3    0    0 -0.95944279977E+02  0.16408544923E+02  0.32609514526E+03  0.34031248723E+03  0.00000000000E+00 0. -1.
</event>
<event>
 7    1  0.6510186E-006  0.1939943E+03  0.7818608E-02  0.1212090E+00
          2   -1    0    0  502    0  0.00000000000E+00  0.00000000000E+00  0.24028087381E+04  0.24028087381E+04  0.00000000000E+00 0. -1.
          1   -1    0    0  501    0 -0.00000000000E+00 -0.00000000000E+00 -0.13632792869E+03  0.13632792869E+03  0.00000000000E+00 0. -1.
         25    2    1    2    0    0 -0.23231092031E+03  0.98762017608E+02  0.61725625058E+03  0.67849259362E+03  0.12499848362E+03 0.  0.
          2    1    1    2  501    0  0.45840485934E+02 -0.91536567717E+02 -0.74649047542E+02  0.12669954096E+03  0.00000000000E+00 0. -1.
          1    1    1    2  502    0  0.18647043438E+03 -0.72254498909E+01  0.17238736063E+04  0.17339445322E+04  0.00000000000E+00 0. -1.
         22    1    3    3    0    0 -0.82720908912E+02 -0.44024186522E+01  0.97787071543E+02  0.12815787694E+03  0.00000000000E+00 0.  1.
         22    1    3    3    0    0 -0.14959001140E+03  0.10316443626E+03  0.51946917903E+03  0.55033471668E+03  0.00000000000E+00 0.  1.
</event>
<event>
 7    1  0.6510186E-006  0.1268960E+03  0.7818608E-02  0.1429771E+00
          2   -1    0    0  502    0  0.00000000000E+00  0.00000000000E+00  0.27513242271E+03  0.27513242271E+03  0.00000000000E+00 0. -1.
          1   -1    0    0  501    0 -0.00000000000E+00 -0.00000000000E+00 -0.22123664452E+03  0.22123664452E+03  0.00000000000E+00 0. -1.
         25    2    1    2    0    0 -0.13849638629E+03  0.34826153086E+02  0.18126647977E+02  0.19064994415E+03  0.12499886352E+03 0.  0.
          2    1    1    2  501    0  0.11660676576E+03 -0.38154326717E+02 -0.10605660358E+03  0.16217550256E+03  0.00000000000E+00 0. -1.
          1    1    1    2  502    0  0.21889620536E+02  0.33281736307E+01  0.14182573379E+03  0.14354362052E+03  0.00000000000E+00 0. -1.
         22    1    3    3    0    0 -0.11894009855E+03 -0.24457700783E+02  0.34266748752E+02  0.12617105944E+03  0.00000000000E+00 0.  1.
         22    1    3    3    0    0 -0.19556287745E+02  0.59283853870E+02 -0.16140100775E+02  0.64478884707E+02  0.00000000000E+00 0.  1.
</event>
<event>
 7    1  0.6510186E-006  0.5236705E+02  0.7818608E-02  0.1464297E+00
          2   -1    0    0  502    0  0.00000000000E+00  0.00000000000E+00  0.24743632436E+04  0.24743632436E+04  0.00000000000E+00 0. -1.
          1   -1    0    0  501    0 -0.00000000000E+00 -0.00000000000E+00 -0.60302031194E+03  0.60302031194E+03  0.00000000000E+00 0. -1.
         25    2    1    2    0    0  0.39168893864E+02  0.78443363189E+02  0.55833350092E+03  0.57883372577E+03  0.12499848142E+03 0.  0.
          2    1    1    2  501    0 -0.30874916136E+02 -0.27815547749E+02 -0.59169603665E+03  0.59315357617E+03  0.00000000000E+00 0. -1.
          1    1    1    2  502    0 -0.82939777281E+01 -0.50627815440E+02  0.19047054673E+04  0.19053962536E+04  0.00000000000E+00 0. -1.
         22    1    3    3    0    0 -0.40745622177E+02  0.56728185497E+02  0.26080215295E+03  0.26999269572E+03  0.00000000000E+00 0.  1.
         22    1    3    3    0    0  0.79914516041E+02  0.21715177692E+02  0.29753134797E+03  0.30884103005E+03  0.00000000000E+00 0.  1.
</event>
<event>
 7    1  0.6510186E-006  0.6609326E+02  0.7818608E-02  0.1392471E+00
          2   -1    0    0  502    0  0.00000000000E+00  0.00000000000E+00  0.43927091239E+03  0.43927091239E+03  0.00000000000E+00 0. -1.
          1   -1    0    0  501    0 -0.00000000000E+00 -0.00000000000E+00 -0.17244086022E+03  0.17244086022E+03  0.00000000000E+00 0. -1.
         25    2    1    2    0    0 -0.10949466057E+03  0.16727199106E+02  0.26529587852E+02  0.16911188895E+03  0.12500452820E+03 0.  0.
          2    1    1    2  501    0  0.54306196041E+02 -0.30360251130E+02 -0.88910290470E+02  0.10851703796E+03  0.00000000000E+00 0. -1.
          1    1    1    2  502    0  0.55188464530E+02  0.13633052024E+02  0.32921075478E+03  0.33408284570E+03  0.00000000000E+00 0. -1.
         22    1    3    3    0    0 -0.26708527879E+02  0.59396124545E+02  0.37795489110E+02  0.75297702950E+02  0.00000000000E+00 0.  1.
         22    1    3    3    0    0 -0.82786132691E+02 -0.42668925439E+02 -0.11265901258E+02  0.93814186002E+02  0.00000000000E+00 0.  1.
</event>
<event>
 7    1  0.6510186E-006  0.1164324E+03  0.7818608E-02  0.1330499E+00
          2   -1    0    0  502    0  0.00000000000E+00  0.00000000000E+00  0.55416874500E+03  0.55416874500E+03  0.00000000000E+00 0. -1.
          1   -1    0    0  501    0 -0.00000000000E+00 -0.00000000000E+00 -0.49165192644E+03  0.49165192644E+03  0.00000000000E+00 0. -1.
         25    2    1    2    0    0  0.59854207667E+02 -0.72105845774E+02  0.69451368313E+02  0.17096940604E+03  0.12500106429E+03 0.  0.
          2    1    1    2  501    0 -0.29404550153E+02 -0.45615844804E+02 -0.43063830332E+03  0.43404467644E+03  0.00000000000E+00 0. -1.
          1    1    1    2  502    0 -0.30449657514E+02  0.11772169058E+03  0.42370375357E+03  0.44080658895E+03  0.00000000000E+00 0. -1.
         22    1    3    3    0    0  0.24407920255E+02 -0.99827955298E+02  0.72652675326E+02  0.12585618166E+03  0.00000000000E+00 0. -1.
         22    1    3    3    0    0  0.35446287413E+02  0.27722109523E+02 -0.32013070133E+01  0.45113224384E+02  0.00000000000E+00 0. -1.
</event>
<event>
 7    1  0.6510186E-006  0.4774940E+02  0.7818608E-02  0.1534558E+00
          2   -1    0    0  502    0  0.00000000000E+00  0.00000000000E+00  0.92818960277E+03  0.92818960277E+03  0.00000000000E+00 0. -1.
          1   -1    0    0  501    0 -0.00000000000E+00 -0.00000000000E+00 -0.14814657090E+04  0.14814657090E+04  0.00000000000E+00 0. -1.
         25    2    1    2    0    0  0.20130925169E+02 -0.27418219056E+02 -0.42728614483E+03  0.44650335365E+03  0.12503912338E+03 0.  0.
          2    1    1    2  501    0 -0.46031079791E+02  0.16506357697E+02 -0.10437834120E+04  0.10449282901E+04  0.00000000000E+00 0. -1.
          1    1    1    2  502    0  0.25900154622E+02  0.10911861359E+02  0.91779345058E+03  0.91822366810E+03  0.00000000000E+00 0. -1.
         22    1    3    3    0    0  0.71962577755E+02 -0.29297267028E+02 -0.26003980656E+03  0.27139941681E+03  0.00000000000E+00 0.  1.
         22    1    3    3    0    0 -0.51831652587E+02  0.18790479720E+01 -0.16724633827E+03  0.17510393684E+03  0.00000000000E+00 0.  1.
</event>
<event>
 7    1  0.6510186E-006  0.4588694E+02  0.7818608E-02  0.1554364E+00
          2   -1    0    0  502    0  0.00000000000E+00  0.00000000000E+00  0.12788935769E+04  0.12788935769E+04  0.00000000000E+00 0. -1.
          1   -1    0    0  501    0 -0.00000000000E+00 -0.00000000000E+00 -0.17016924049E+02  0.17016924049E+02  0.00000000000E+00 0. -1.
         25    2    1    2    0    0 -0.44283918575E+02  0.15515850802E+02  0.54062218264E+03  0.55687346504E+03  0.12503561348E+03 0.  0.
          2    1    1    2  501    0  0.15276326466E+02  0.20701498152E+02  0.12213955127E+02  0.28479797680E+02  0.00000000000E+00 0. -1.
          1    1    1    2  502    0  0.29007592109E+02 -0.36217348954E+02  0.70904051512E+03  0.71055723826E+03  0.00000000000E+00 0. -1.
         22    1    3    3    0    0 -0.68833465467E+02 -0.26033234192E+02  0.20519940210E+03  0.21799671987E+03  0.00000000000E+00 0. -1.
         22    1    3    3    0    0  0.24549546892E+02  0.41549084995E+02  0.33542278054E+03  0.33887674518E+03  0.00000000000E+00 0. -1.
</event>
<event>
 7    1  0.6510186E-006  0.5478454E+02  0.7818608E-02  0.1429209E+00
          2   -1    0    0  502    0  0.00000000000E+00  0.00000000000E+00  0.55912343203E+02  0.55912343203E+02  0.00000000000E+00 0. -1.
          1   -1    0    0  501    0 -0.00000000000E+00 -0.00000000000E+00 -0.38366560677E+04  0.38366560677E+04  0.00000000000E+00 0. -1.
         25    2    1    2    0    0  0.27804796843E+02  0.92732327089E+02 -0.85030568892E+03  0.86487996065E+03  0.12500076205E+03 0.  0.
          2    1    1    2  501    0 -0.33847307788E+02 -0.41583581512E+02 -0.29651140202E+04  0.29655987569E+04  0.00000000000E+00 0. -1.
          1    1    1    2  502    0  0.60425109452E+01 -0.51148745577E+02  0.34675984575E+02  0.62089693339E+02  0.00000000000E+00 0. -1.
         22    1    3    3    0    0  0.51963587153E+01  0.92522071698E+02 -0.82782768005E+03  0.83299820153E+03  0.00000000000E+00 0. -1.
         22    1    3    3    0    0  0.22608438127E+02  0.21025539169E+00 -0.22478008867E+02  0.31881759119E+02  0.00000000000E+00 0. -1.
</event>
<event>
 7    1  0.6510186E-006  0.1040176E+03  0.7818608E-02  0.1412583E+00
          2   -1    0    0  502    0  0.00000000000E+00  0.00000000000E+00  0.26421830880E+04  0.26421830880E+04  0.00000000000E+00 0. -1.
          1   -1    0    0  501    0 -0.00000000000E+00 -0.00000000000E+00 -0.36240340308E+03  0.36240340308E+03  0.00000000000E+00 0. -1.
         25    2    1    2    0    0 -0.91523273832E+02  0.98676485623E+02 -0.83869526674E+02  0.20192034722E+03  0.12499668255E+03 0.  0.
          2    1    1    2  501    0  0.21812715456E+02 -0.21775692694E+02 -0.21737827887E+03  0.21955247999E+03  0.00000000000E+00 0. -1.
          1    1    1    2  502    0  0.69710558375E+02 -0.76900792928E+02  0.25810274905E+04  0.25831136639E+04  0.00000000000E+00 0. -1.
         22    1    3    3    0    0 -0.96156093855E+02  0.38283575333E+02 -0.94823104184E+02  0.14036754473E+03  0.00000000000E+00 0. -1.
         22    1    3    3    0    0  0.46328200233E+01  0.60392910290E+02  0.10953577509E+02  0.61552802494E+02  0.00000000000E+00 0. -1.
</event>
<event>
 7    1  0.6510186E-006  0.5385006E+02  0.7818608E-02  0.1476394E+00
          2   -1    0    0  502    0  0.00000000000E+00  0.00000000000E+00  0.21341251884E+03  0.21341251884E+03  0.00000000000E+00 0. -1.
          1   -1    0    0  501    0 -0.00000000000E+00 -0.00000000000E+00 -0.66342477078E+03  0.66342477078E+03  0.00000000000E+00 0. -1.
         25    2    1    2    0    0 -0.79532225349E+02 -0.15165125557E+02  0.60038408830E+02  0.16058461799E+03  0.12500981200E+03 0.  0.
          2    1    1    2  501    0  0.29187189093E+02  0.22837196748E+02 -0.60626244452E+03  0.60739409052E+03  0.00000000000E+00 0. -1.
          1    1    1    2  502    0  0.50345036256E+02 -0.76720711913E+01  0.96211783743E+02  0.10885858112E+03  0.00000000000E+00 0. -1.
         22    1    3    3    0    0  0.29311949465E+02 -0.20179440732E+02  0.32511560925E+02  0.48201678430E+02  0.00000000000E+00 0.  1.
         22    1    3    3    0    0 -0.10884417481E+03  0.50143151750E+01  0.27526847905E+02  0.11238293956E+03  0.00000000000E+00 0.  1.
</event>
<event>
 7    1  0.6510186E-006  0.2472322E+03  0.7818608E-02  0.1210521E+00
          2   -1    0    0  502    0  0.00000000000E+00  0.00000000000E+00  0.28432573557E+04  0.28432573557E+04  0.00000000000E+00 0. -1.
          1   -1    0    0  501    0 -0.00000000000E+00 -0.00000000000E+00 -0.12962097994E+03  0.12962097994E+03  0.00000000000E+00 0. -1.
         25    2    1    2    0    0  0.17082555994E+03  0.18399429250E+03  0.20194055923E+03  0.34560052554E+03  0.12499784874E+03 0.  0.
          2    1    1    2  501    0 -0.22006636260E+03 -0.11882257574E+03  0.21695969126E+03  0.33108838108E+03  0.00000000000E+00 0. -1.
          1    1    1    2  502    0  0.49240802662E+02 -0.65171716761E+02  0.22947361253E+04  0.22961894290E+04  0.00000000000E+00 0. -1.
         22    1    3    3    0    0  0.88407516575E+02  0.12848723143E+03  0.18954556738E+03  0.24546360166E+03  0.00000000000E+00 0. -1.
         22    1    3    3    0    0  0.82418043366E+02  0.55507061067E+02  0.12394991854E+02  0.10013692388E+03  0.00000000000E+00 0. -1.
</event>
<event>
 7    1  0.6510186E-006  0.8056579E+02  0.7818608E-02  0.1504013E+00
          2   -1    0    0  502    0  0.00000000000E+00  0.00000000000E+00  0.82855752970E+03  0.82855752970E+03  0.00000000000E+00 0. -1.
          1   -1    0    0  501    0 -0.00000000000E+00 -0.00000000000E+00 -0.61409772426E+02  0.61409772426E+02  0.00000000000E+00 0. -1.
         25    2    1    2    0    0  0.34958859017E+02 -0.87893658901E+02  0.45737818088E+03  0.48349724486E+03  0.12500947301E+03 0.  0.
          2    1    1    2  501    0 -0.14511165791E+02  0.14389261197E+02 -0.41900764224E+02  0.46618653058E+02  0.00000000000E+00 0. -1.
          1    1    1    2  502    0 -0.20447693226E+02  0.73504397704E+02  0.35167034062E+03  0.35985140421E+03  0.00000000000E+00 0. -1.
         22    1    3    3    0    0 -0.46095454352E+02 -0.45006840406E+02  0.21052759309E+03  0.22016419793E+03  0.00000000000E+00 0.  1.
         22    1    3    3    0    0  0.81054313369E+02 -0.42886818495E+02  0.24685058779E+03  0.26333304693E+03  0.00000000000E+00 0.  1.
</event>
<event>
 7    1  0.6510186E-006  0.1086355E+03  0.7818608E-02  0.1338263E+00
          2   -1    0    0  502    0  0.00000000000E+00  0.00000000000E+00  0.71820446382E+03  0.71820446382E+03  0.00000000000E+00 0. -1.
          1   -1    0    0  501    0 -0.00000000000E+00 -0.00000000000E+00 -0.45100566143E+04  0.45100566143E+04  0.00000000000E+00 0. -1.
         25    2    1    2    0    0  0.83904783753E+02 -0.13922865339E+03 -0.91904831527E+03  0.94164660336E+03  0.12499555653E+03 0.  0.
          2    1    1    2  501    0 -0.31168059798E+02  0.44527485575E+02 -0.35753461389E+04  0.35757592422E+04  0.00000000000E+00 0. -1.
          1    1    1    2  502    0 -0.52736723956E+02  0.94701167816E+02  0.70254230370E+03  0.71085523261E+03  0.00000000000E+00 0. -1.
         22    1    3    3    0    0  0.88961078850E+02 -0.15754859951E+03 -0.87749076654E+03  0.89594959687E+03  0.00000000000E+00 0.  1.
         22    1    3    3    0    0 -0.50562950963E+01  0.18319946121E+02 -0.41557548727E+02  0.45697006490E+02  0.00000000000E+00 0.  1.
</event>
<event>
 7    1  0.6510186E-006  0.5999847E+02  0.7818608E-02  0.1448481E+00
          2   -1    0    0  502    0  0.00000000000E+00  0.00000000000E+00  0.37084978356E+03  0.37084978356E+03  0.00000000000E+00 0. -1.
          1   -1    0    0  501    0 -0.00000000000E+00 -0.00000000000E+00 -0.10756002619E+04  0.10756002619E+04  0.00000000000E+00 0. -1.
         25    2    1    2    0    0  0.41642882921E+02  0.51839673191E+02  0.14477653721E+03  0.20250145531E+03  0.12500044904E+03 0.  0.
          2    1    1    2  501    0 -0.39716960726E+02  0.89416363870E+01 -0.10416427259E+04  0.10424379877E+04  0.00000000000E+00 0. -1.
          1    1    1    2  502    0 -0.19259221944E+01 -0.60781309578E+02  0.19211571029E+03  0.20151060248E+03  0.00000000000E+00 0. -1.
         22    1    3    3    0    0  0.79855528966E+02  0.48957821045E+01  0.70079775579E+02  0.10635811739E+03  0.00000000000E+00 0.  1.
         22    1    3    3    0    0 -0.38212646045E+02  0.46943891086E+02  0.74696761630E+02  0.96143337919E+02  0.00000000000E+00 0.  1.
</event>
<event>
 7    1  0.6510186E-006  0.1031647E+03  0.7818608E-02  0.1326139E+00
          2   -1    0    0  502    0  0.00000000000E+00  0.00000000000E+00  0.36501058541E+03  0.36501058541E+03  0.00000000000E+00 0. -1.
          1   -1    0    0  501    0 -0.00000000000E+00 -0.00000000000E+00 -0.46519954398E+03  0.46519954398E+03  0.00000000000E+00 0. -1.
         25    2    1    2    0    0  0.72815906865E+02  0.25254367478E+02 -0.10536606222E+03  0.18075379634E+03  0.12501995223E+03 0.  0.
          2    1    1    2  501    0 -0.13574343449E+02  0.62188127000E+02 -0.31030345729E+03  0.31676467850E+03  0.00000000000E+00 0. -1.
          1    1    1    2  502    0 -0.59241563416E+02 -0.87442494477E+02  0.31548056094E+03  0.33269165455E+03  0.00000000000E+00 0. -1.
         22    1    3    3    0    0  0.33163461959E+02  0.48466184485E+02  0.72052879277E+01  0.59166734080E+02  0.00000000000E+00 0. -1.
         22    1    3    3    0    0  0.39652444906E+02 -0.23211817007E+02 -0.11257135015E+03  0.12158706226E+03  0.00000000000E+00 0. -1.
</event>
<event>
 7    1  0.6510186E-006  0.8233060E+02  0.7818608E-02  0.1477504E+00
          2   -1    0    0  502    0  0.00000000000E+00  0.00000000000E+00  0.27738805897E+04  0.27738805897E+04  0.00000000000E+00 0. -1.
          1   -1    0    0  501    0 -0.00000000000E+00 -0.00000000000E+00 -0.28660092835E+02  0.28660092835E+02  0.00000000000E+00 0. -1.
         25    2    1    2    0    0 -0.26779511285E+02 -0.93149290351E+02  0.63133287242E+03  0.65084603610E+03  0.12500173757E+03 0.  0.
          2    1    1    2  501    0 -0.11234157456E+02  0.21264445433E+02 -0.10148031826E+02  0.26102978436E+02  0.00000000000E+00 0. -1.
          1    1    1    2  502    0  0.38013668741E+02  0.71884844918E+02  0.21240356562E+04  0.21255916680E+04  0.00000000000E+00 0. -1.
         22    1    3    3    0    0 -0.20352331964E+02 -0.99636814410E+02  0.63337607276E+03  0.64148808387E+03  0.00000000000E+00 0.  1.
         22    1    3    3    0    0 -0.64271793212E+01  0.64875240586E+01 -0.20432003378E+01  0.93579522364E+01  0.00000000000E+00 0.  1.
</event>
<event>
 7    1  0.6510186E-006  0.5627822E+02  0.7818608E-02  0.1535312E+00
          2   -1    0    0  502    0  0.00000000000E+00  0.00000000000E+00  0.10147320000E+04  0.10147320000E+04  0.00000000000E+00 0. -1.
          1   -1    0    0  501    0 -0.00000000000E+00 -0.00000000000E+00 -0.10598174018E+03  0.10598174018E+03  0.00000000000E+00 0. -1.
         25    2    1    2    0    0  0.65137154914E+02  0.28589745243E+02  0.95598012570E+02  0.17269822086E+03  0.12500189197E+03 0.  0.
          2    1    1    2  501    0 -0.22455811550E+02  0.76656649235E+01 -0.64423736611E+02  0.68654524468E+02  0.00000000000E+00 0. -1.
          1    1    1    2  502    0 -0.42681343364E+02 -0.36255410167E+02  0.87757598389E+03  0.87936099490E+03  0.00000000000E+00 0. -1.
         22    1    3    3    0    0 -0.14942664631E+02 -0.10645514201E+01 -0.22457563908E+02  0.26995530606E+02  0.00000000000E+00 0.  1.
         22    1    3    3    0    0  0.80079819545E+02  0.29654296663E+02  0.11805557648E+03  0.14570269025E+03  0.00000000000E+00 0.  1.
</event>
<event>
 7    1  0.6510186E-006  0.1102500E+03  0.7818608E-02  0.1326779E+00
          2   -1    0    0  502    0  0.00000000000E+00  0.00000000000E+00  0.81429944417E+03  0.81429944417E+03  0.00000000000E+00 0. -1.
          1   -1    0    0  501    0 -0.00000000000E+00 -0.00000000000E+00 -0.82853601814E+03  0.82853601814E+03  0.00000000000E+00 0. -1.
         25    2    1    2    0    0 -0.34302874869E+02  0.70310793238E+02 -0.20735385447E+03  0.25444297510E+03  0.12500124697E+03 0.  0.
          2    1    1    2  501    0  0.21763636653E+01 -0.12006607199E+03 -0.59047645547E+03  0.60256372499E+03  0.00000000000E+00 0. -1.
          1    1    1    2  502    0  0.32126511204E+02  0.49755278752E+02  0.78359373597E+03  0.78582876223E+03  0.00000000000E+00 0. -1.
         22    1    3    3    0    0 -0.33298508578E+02 -0.15218767231E+02 -0.79455714394E+01  0.37463764560E+02  0.00000000000E+00 0.  1.
         22    1    3    3    0    0 -0.10043662913E+01  0.85529560469E+02 -0.19940828303E+03  0.21697921054E+03  0.00000000000E+00 0.  1.
</event>
<event>
 7    1  0.6510186E-006  0.1040282E+03  0.7818608E-02  0.1408747E+00
          2   -1    0    0  502    0  0.00000000000E+00  0.00000000000E+00  0.77436891797E+03  0.77436891797E+03  0.00000000000E+00 0. -1.
          1   -1    0    0  501    0 -0.00000000000E+00 -0.00000000000E+00 -0.24293891611E+03  0.24293891611E+03  0.00000000000E+00 0. -1.
         25    2    1    2    0    0  0.58173632071E+02  0.50257552330E+02  0.82043225081E+02  0.16812602239E+03  0.12500110235E+03 0.  0.
          2    1    1    2  501    0  0.14093499934E+02  0.28454972544E+02 -0.19420286016E+03  0.19678176516E+03  0.00000000000E+00 0. -1.
          1    1    1    2  502    0 -0.72267132005E+02 -0.78712524874E+02  0.64358963695E+03  0.65240004654E+03  0.00000000000E+00 0. -1.
         22    1    3    3    0    0 -0.77186193605E+01  0.75134406084E+02  0.33748262795E+02  0.82726666222E+02  0.00000000000E+00 0. -1.
         22    1    3    3    0    0  0.65892251431E+02 -0.24876853754E+02  0.48294962286E+02  0.85399356166E+02  0.00000000000E+00 0. -1.
</event>
<event>
 7    1  0.6510186E-006  0.1621418E+03  0.7818608E-02  0.1334977E+00
          2   -1    0    0  502    0  0.00000000000E+00  0.00000000000E+00  0.75847216268E+02  0.75847216268E+02  0.00000000000E+00 0. -1.
          1   -1    0    0  501    0 -0.00000000000E+00 -0.00000000000E+00 -0.85182738958E+03  0.85182738958E+03  0.00000000000E+00 0. -1.
         25    2    1    2    0    0  0.17360671012E+03 -0.57599972312E+02 -0.51740892810E+03  0.56284457978E+03  0.12499990200E+03 0.  0.
          2    1    1    2  501    0 -0.17614736410E+02  0.33074588304E+02 -0.18829895533E+03  0.19199141624E+03  0.00000000000E+00 0. -1.
          1    1    1    2  502    0 -0.15599197371E+03  0.24525384008E+02 -0.70272289883E+02  0.17283860983E+03  0.00000000000E+00 0. -1.
         22    1    3    3    0    0  0.14029021802E+03 -0.60842699052E+02 -0.24792909675E+03  0.29129369426E+03  0.00000000000E+00 0. -1.
         22    1    3    3    0    0  0.33316492104E+02  0.32427267397E+01 -0.26947983135E+03  0.27155088552E+03  0.00000000000E+00 0. -1.
</event>
<event>
 7    1  0.6510186E-006  0.2339763E+03  0.7818608E-02  0.1191596E+00
          2   -1    0    0  502    0  0.00000000000E+00  0.00000000000E+00  0.35843207561E+03  0.35843207561E+03  0.00000000000E+00 0. -1.
          1   -1    0    0  501    0 -0.00000000000E+00 -0.00000000000E+00 -0.29457374598E+03  0.29457374598E+03  0.00000000000E+00 0. -1.
         25    2    1    2    0    0  0.18836776971E+03 -0.89492383644E+01 -0.85205986626E+01  0.22640651428E+03  0.12499921429E+03 0.  0.
          2    1    1    2  501    0 -0.29241158856E+03  0.29035160444E+02 -0.74272165179E+01  0.29394343199E+03  0.00000000000E+00 0. -1.
          1    1    1    2  502    0  0.10404381885E+03 -0.20085922080E+02  0.79806144808E+02  0.13265587532E+03  0.00000000000E+00 0. -1.
         22    1    3    3    0    0  0.11365367733E+02 -0.39784114783E+02  0.17386309059E+02  0.44880186223E+02  0.00000000000E+00 0. -1.
         22    1    3    3    0    0  0.17700240197E+03  0.30834876419E+02 -0.25906907721E+02  0.18152632805E+03  0.00000000000E+00 0. -1.
</event>
<event>
 7    1  0.6510186E-006  0.1587474E+03  0.7818608E-02  0.1290061E+00
          2   -1    0    0  502    0  0.00000000000E+00  0.00000000000E+00  0.12980911439E+04  0.12980911439E+04  0.00000000000E+00 0. -1.
          1   -1    0    0  501    0 -0.00000000000E+00 -0.00000000000E+00 -0.55905845314E+03  0.55905845314E+03  0.00000000000E+00 0. -1.
         25    2    1    2    0    0 -0.96700836328E+02 -0.18833877392E+03  0.13696580745E+03  0.28143704024E+03  0.12499851881E+03 0.  0.
          2    1    1    2  501    0  0.31583576604E+02  0.47986171780E+02 -0.47960380576E+03  0.48303209571E+03  0.00000000000E+00 0. -1.
          1    1    1    2  502    0  0.65117259723E+02  0.14035260214E+03  0.10816706891E+04  0.10926804611E+04  0.00000000000E+00 0. -1.
         22    1    3    3    0    0 -0.34400610707E+02 -0.17798416546E+03  0.11447224253E+03  0.21439603420E+03  0.00000000000E+00 0.  1.
         22    1    3    3    0    0 -0.62300225621E+02 -0.10354608460E+02  0.22493564914E+02  0.67041006044E+02  0.00000000000E+00 0.  1.
</event>
<event>
 7    1  0.6510186E-006  0.1807709E+03  0.7818608E-02  0.1178243E+00
          2   -1    0    0  502    0  0.00000000000E+00  0.00000000000E+00  0.16075857756E+04  0.16075857756E+04  0.00000000000E+00 0. -1.
          1   -1    0    0  501    0 -0.00000000000E+00 -0.00000000000E+00 -0.17186267203E+04  0.17186267203E+04  0.00000000000E+00 0. -1.
         25    2    1    2    0    0  0.71753250496E+02  0.14090893982E+03  0.31710714649E+03  0.37572999192E+03  0.12494889433E+03 0.  0.
          2    1    1    2  501    0  0.86216416213E+02 -0.16033874327E+03 -0.16793548108E+04  0.16891934062E+04  0.00000000000E+00 0. -1.
          1    1    1    2  502    0 -0.15796966671E+03  0.19429803451E+02  0.12512067197E+04  0.12612890978E+04  0.00000000000E+00 0. -1.
         22    1    3    3    0    0  0.47356877168E+02  0.49552258312E+02  0.25141866397E+03  0.26059440653E+03  0.00000000000E+00 0. -1.
         22    1    3    3    0    0  0.24396373328E+02  0.91356681511E+02  0.65688482517E+02  0.11513558539E+03  0.00000000000E+00 0. -1.
</event>
<event>
 7    1  0.6510186E-006  0.1924655E+03  0.7818608E-02  0.1225481E+00
          2   -1    0    0  502    0  0.00000000000E+00  0.00000000000E+00  0.90553914239E+03  0.90553914239E+03  0.00000000000E+00 0. -1.
          1   -1    0    0  501    0 -0.00000000000E+00 -0.00000000000E+00 -0.12080821972E+03  0.12080821972E+03  0.00000000000E+00 0. -1.
         25    2    1    2    0    0 -0.66871207240E+02 -0.16414781837E+03  0.14755513040E+03  0.26232493741E+03  0.12500236657E+03 0.  0.
          2    1    1    2  501    0  0.15521489444E+03  0.14903157138E+03  0.13524470904E+03  0.25415193103E+03  0.00000000000E+00 0. -1.
          1    1    1    2  502    0 -0.88343687204E+02  0.15116246993E+02  0.50193108323E+03  0.50987049366E+03  0.00000000000E+00 0. -1.
         22    1    3    3    0    0 -0.13569738959E+02  0.19584071643E+02  0.27859186200E+02  0.36657985941E+02  0.00000000000E+00 0. -1.
         22    1    3    3    0    0 -0.53301468281E+02 -0.18373189001E+03  0.11969594420E+03  0.22566695147E+03  0.00000000000E+00 0. -1.
</event>
<event>
 7    1  0.6510186E-006  0.1300341E+03  0.7818608E-02  0.1286292E+00
          2   -1    0    0  502    0  0.00000000000E+00  0.00000000000E+00  0.27699365452E+04  0.27699365452E+04  0.00000000000E+00 0. -1.
          1   -1    0    0  501    0 -0.00000000000E+00 -0.00000000000E+00 -0.89912679892E+03  0.89912679892E+03  0.00000000000E+00 0. -1.
         25    2    1    2    0    0  0.10321916812E+03  0.62454419928E+00  0.16164374306E+04  0.16245462087E+04  0.12500332254E+03 0.  0.
          2    1    1    2  501    0 -0.10766569272E+03 -0.73148182777E+02 -0.88918111694E+03  0.89865767496E+03  0.00000000000E+00 0. -1.
          1    1    1    2  502    0  0.44465246046E+01  0.72523638577E+02  0.11435534327E+04  0.11458594605E+04  0.00000000000E+00 0. -1.
         22    1    3    3    0    0  0.96946865543E+02  0.72768416323E-01  0.57685978463E+03  0.58494949453E+03  0.00000000000E+00 0.  1.
         22    1    3    3    0    0  0.62723025719E+01  0.55177578295E+00  0.10395776459E+04  0.10395967142E+04  0.00000000000E+00 0.  1.
</event>
<event>
 7    1  0.6510186E-006  0.1230122E+03  0.7818608E-02  0.1354592E+00
          2   -1    0    0  502    0  0.00000000000E+00  0.00000000000E+00  0.15240089368E+04  0.15240089368E+04  0.00000000000E+00 0. -1.
          1   -1    0    0  501    0 -0.00000000000E+00 -0.00000000000E+00 -0.12586216619E+03  0.12586216619E+03  0.00000000000E+00 0. -1.
         25    2    1    2    0    0 -0.88139297854E+02  0.79312052123E+02  0.13033657808E+03  0.21603628848E+03  0.12500046767E+03 0.  0.
          2    1    1    2  501    0  0.11606441095E+03 -0.48308144134E+02 -0.34888738562E+02  0.13046780583E+03  0.00000000000E+00 0. -1.
          1    1    1    2  502    0 -0.27925113099E+02 -0.31003907990E+02  0.13026989311E+04  0.13033670087E+04  0.00000000000E+00 0. -1.
         22    1    3    3    0    0 -0.41260082655E+02  0.10914391650E+03  0.90509427952E+02  0.14767107191E+03  0.00000000000E+00 0.  1.
         22    1    3    3    0    0 -0.46879215200E+02 -0.29831864380E+02  0.39827150128E+02  0.68365216576E+02  0.00000000000E+00 0.  1.
</event>
<event>
 7    1  0.6510186E-006  0.1624039E+03  0.7818608E-02  0.1347229E+00
          2   -1    0    0  502    0  0.00000000000E+00  0.00000000000E+00  0.30047300002E+03  0.30047300002E+03  0.00000000000E+00 0. -1.
          1   -1    0    0  501    0 -0.00000000000E+00 -0.00000000000E+00 -0.42727733681E+03  0.42727733681E+03  0.00000000000E+00 0. -1.
         25    2    1    2    0    0  0.57271088875E+02  0.13309637495E+03  0.78946137660E+02  0.20700215257E+03  0.12499110316E+03 0.  0.
          2    1    1    2  501    0 -0.90580361691E+02 -0.13788005417E+03 -0.34237108530E+03  0.38004430177E+03  0.00000000000E+00 0. -1.
          1    1    1    2  502    0  0.33309272817E+02  0.47836792196E+01  0.13662061084E+03  0.14070388250E+03  0.00000000000E+00 0. -1.
         22    1    3    3    0    0 -0.28370793451E+02  0.20920162958E+01 -0.57767792211E+01  0.29028427987E+02  0.00000000000E+00 0.  1.
         22    1    3    3    0    0  0.85641882326E+02  0.13100435866E+03  0.84722916882E+02  0.17797372458E+03  0.00000000000E+00 0.  1.
</event>
<event>
 7    1  0.6510186E-006  0.6618825E+02  0.7818608E-02  0.1525328E+00
          2   -1    0    0  502    0  0.00000000000E+00  0.00000000000E+00  0.93260528699E+02  0.93260528699E+02  0.00000000000E+00 0. -1.
          1   -1    0    0  501    0 -0.00000000000E+00 -0.00000000000E+00 -0.32446686000E+03  0.32446686000E+03  0.00000000000E+00 0. -1.
         25    2    1    2    0    0  0.24711088037E+01 -0.73337959714E+02 -0.24265217317E+03  0.28264730148E+03  0.12499942870E+03 0.  0.
          2    1    1    2  501    0  0.18611062333E+02  0.10860888056E+02 -0.43958092856E+02  0.48955535520E+02  0.00000000000E+00 0. -1.
          1    1    1    2  502    0 -0.21082171137E+02  0.62477071658E+02  0.55403934724E+02  0.86124551701E+02  0.00000000000E+00 0. -1.
         22    1    3    3    0    0 -0.68698894942E+01 -0.51737918989E+02 -0.25198322660E+03  0.25733160345E+03  0.00000000000E+00 0. -1.
         22    1    3    3    0    0  0.93409982979E+01 -0.21600040725E+02  0.93310534359E+01  0.25315698030E+02  0.00000000000E+00 0. -1.
</event>
<event>
 7    1  0.6510186E-006  0.1259754E+03  0.7818608E-02  0.1424956E+00
          2   -1    0    0  502    0  0.00000000000E+00  0.00000000000E+00  0.12193298857E+03  0.12193298857E+03  0.00000000000E+00 0. -1.
          1   -1    0    0  501    0 -0.00000000000E+00 -0.00000000000E+00 -0.73984021379E+03  0.73984021379E+03  0.00000000000E+00 0. -1.
         25    2    1    2    0    0  0.10246044749E+03  0.10213727516E+03 -0.19352558579E+03  0.27204340722E+03  0.12500118712E+03 0.  0.
          2    1    1    2  501    0 -0.19846475280E+02 -0.11889637853E+02 -0.46133935176E+03  0.46191908767E+03  0.00000000000E+00 0. -1.
          1    1    1    2  502    0 -0.82613972212E+02 -0.90247637303E+02  0.36957712326E+02  0.12781070747E+03  0.00000000000E+00 0. -1.
         22    1    3    3    0    0 -0.10555006611E+02  0.73153795110E+02 -0.85778645222E+02  0.11322924481E+03  0.00000000000E+00 0.  1.
         22    1    3    3    0    0  0.11301545410E+03  0.28983480046E+02 -0.10774694057E+03  0.15881416241E+03  0.00000000000E+00 0.  1.
</event>
<event>
 7    1  0.6510186E-006  0.7361493E+02  0.7818608E-02  0.1428398E+00
          2   -1    0    0  502    0  0.00000000000E+00  0.00000000000E+00  0.92018348233E+03  0.92018348233E+03  0.00000000000E+00 0. -1.
          1   -1    0    0  501    0 -0.00000000000E+00 -0.00000000000E+00 -0.89100235780E+03  0.89100235780E+03  0.00000000000E+00 0. -1.
         25    2    1    2    0    0 -0.65828573509E+02 -0.37831657539E+02 -0.43453946316E+02  0.15255737313E+03  0.12498348388E+03 0.  0.
          2    1    1    2  501    0 -0.79079876890E+01  0.37747167230E+02 -0.79095573601E+03  0.79189542317E+03  0.00000000000E+00 0. -1.
          1    1    1    2  502    0  0.73736561198E+02  0.84490308857E-01  0.86359080685E+03  0.86673304384E+03  0.00000000000E+00 0. -1.
         22    1    3    3    0    0  0.17230671039E+01 -0.51065459138E+02  0.23760077008E+02  0.56348836160E+02  0.00000000000E+00 0. -1.
         22    1    3    3    0    0 -0.67551640613E+02  0.13233801599E+02 -0.67214023324E+02  0.96208536969E+02  0.00000000000E+00 0. -1.
</event>
<event>
 7    1  0.6510186E-006  0.6823191E+02  0.7818608E-02  0.1491462E+00
          2   -1    0    0  502    0  0.00000000000E+00  0.00000000000E+00  0.16449178159E+03  0.16449178159E+03  0.00000000000E+00 0. -1.
          1   -1    0    0  501    0 -0.00000000000E+00 -0.00000000000E+00 -0.69662079388E+03  0.69662079388E+03  0.00000000000E+00 0. -1.
         25    2    1    2    0    0 -0.81354401778E+02 -0.40682038143E+02 -0.45224058905E+03  0.47793354502E+03  0.12500142462E+03 0.  0.
          2    1    1    2  501    0  0.26291707837E+02  0.98968847854E+00 -0.22312622682E+03  0.22467208656E+03  0.00000000000E+00 0. -1.
          1    1    1    2  502    0  0.55062693941E+02  0.39692349664E+02  0.14323780358E+03  0.15850694389E+03  0.00000000000E+00 0. -1.
         22    1    3    3    0    0 -0.10504632058E+03 -0.23242148899E+01 -0.25896311287E+03  0.27946739572E+03  0.00000000000E+00 0.  1.
         22    1    3    3    0    0  0.23691918802E+02 -0.38357823253E+02 -0.19327747618E+03  0.19846614930E+03  0.00000000000E+00 0.  1.
</event>
<event>
 7    1  0.6510186E-006  0.5521057E+02  0.7818608E-02  0.1426302E+00
          2   -1    0    0  502    0  0.00000000000E+00  0.00000000000E+00  0.91866395033E+03  0.91866395033E+03  0.00000000000E+00 0. -1.
          1   -1    0    0  501    0 -0.00000000000E+00 -0.00000000000E+00 -0.28995366754E+03  0.28995366754E+03  0.00000000000E+00 0. -1.
         25    2    1    2    0    0 -0.10909920808E+02 -0.20334810605E+02  0.15098128449E+03  0.19736133047E+03  0.12499446229E+03 0.  0.
          2    1    1    2  501    0  0.45722507212E+02 -0.25286932184E+02 -0.26308483155E+03  0.26822305120E+03  0.00000000000E+00 0. -1.
          1    1    1    2  502    0 -0.34812586403E+02  0.45621742789E+02  0.74081382985E+03  0.74303323619E+03  0.00000000000E+00 0. -1.
         22    1    3    3    0    0 -0.65439324836E+01  0.48384265522E+02  0.10129845512E+03  0.11245104363E+03  0.00000000000E+00 0.  1.
         22    1    3    3    0    0 -0.43659883247E+01 -0.68719076127E+02  0.49682829368E+02  0.84910286843E+02  0.00000000000E+00 0.  1.
</event>
<event>
 7    1  0.6510186E-006  0.1259995E+03  0.7818608E-02  0.1432888E+00
          2   -1    0    0  502    0  0.00000000000E+00  0.00000000000E+00  0.78621483809E+03  0.78621483809E+03  0.00000000000E+00 0. -1.
          1   -1    0    0  501    0 -0.00000000000E+00 -0.00000000000E+00 -0.80142711679E+03  0.80142711679E+03  0.00000000000E+00 0. -1.
         25    2    1    2    0    0 -0.54366231763E+02  0.10796334383E+03  0.10353077699E+03  0.20237502024E+03  0.12500102505E+03 0.  0.
          2    1    1    2  501    0  0.17221188401E+02  0.13332575463E+02 -0.74549136733E+03  0.74580942985E+03  0.00000000000E+00 0. -1.
          1    1    1    2  502    0  0.37145043362E+02 -0.12129591930E+03  0.62674831164E+03  0.63945750478E+03  0.00000000000E+00 0. -1.
         22    1    3    3    0    0 -0.53120949171E+02  0.36471221829E+02  0.11316686918E+03  0.13022567159E+03  0.00000000000E+00 0.  1.
         22    1    3    3    0    0 -0.12452825919E+01  0.71492122005E+02 -0.96360921823E+01  0.72149348646E+02  0.00000000000E+00 0.  1.
</event>
<event>
 7    1  0.6510186E-006  0.8193711E+02  0.7818608E-02  0.1334918E+00
          2   -1    0    0  502    0  0.00000000000E+00  0.00000000000E+00  0.19445140435E+04  0.19445140435E+04  0.00000000000E+00 0. -1.
          1   -1    0    0  501    0 -0.00000000000E+00 -0.00000000000E+00 -0.20670337458E+03  0.20670337458E+03  0.00000000000E+00 0. -1.
         25    2    1    2    0    0 -0.13900319517E+03 -0.42246043430E+02  0.58716825409E+03  0.61765597416E+03  0.12500290934E+03 0.  0.
          2    1    1    2  501    0  0.61368961075E+02  0.41692682618E+02 -0.18310059680E+03  0.19756076968E+03  0.00000000000E+00 0. -1.
          1    1    1    2  502    0  0.77634234099E+02  0.55336081213E+00  0.13337430117E+04  0.13360006743E+04  0.00000000000E+00 0. -1.
         22    1    3    3    0    0 -0.74674173467E+02 -0.46502646875E+02  0.50798861483E+03  0.51554937799E+03  0.00000000000E+00 0. -1.
         22    1    3    3    0    0 -0.64329021708E+02  0.42566034451E+01  0.79179639258E+02  0.10210659616E+03  0.00000000000E+00 0. -1.
</event>
<event>
 7    1  0.6510186E-006  0.1002044E+03  0.7818608E-02  0.1429642E+00
          2   -1    0    0  502    0  0.00000000000E+00  0.00000000000E+00  0.19274819089E+04  0.19274819089E+04  0.00000000000E+00 0. -1.
          1   -1    0    0  501    0 -0.00000000000E+00 -0.00000000000E+00 -0.86212462073E+03  0.86212462073E+03  0.00000000000E+00 0. -1.
         25    2    1    2    0    0 -0.78090142802E+02  0.26594876635E+02 -0.12789285348E+02  0.15031308815E+03  0.12500040314E+03 0.  0.
          2    1    1    2  501    0  0.85788137545E+02 -0.53585042502E+02 -0.77719010558E+03  0.78374448740E+03  0.00000000000E+00 0. -1.
          1    1    1    2  502    0 -0.76979947428E+01  0.26990165867E+02  0.18553366791E+04  0.18555489540E+04  0.00000000000E+00 0. -1.
         22    1    3    3    0    0 -0.34091176496E+02 -0.49582089964E+02  0.56320646498E+01  0.60434362017E+02  0.00000000000E+00 0.  1.
         22    1    3    3    0    0 -0.43998966305E+02  0.76176966599E+02 -0.18421349998E+02  0.89878726137E+02  0.00000000000E+00 0.  1.
</event>
<event>
 7    1  0.6510186E-006  0.1343454E+03  0.7818608E-02  0.1275515E+00
          2   -1    0    0  502    0  0.00000000000E+00  0.00000000000E+00  0.30089235506E+04  0.30089235506E+04  0.00000000000E+00 0. -1.
          1   -1    0    0  501    0 -0.00000000000E+00 -0.00000000000E+00 -0.14154928514E+04  0.14154928514E+04  0.00000000000E+00 0. -1.
         25    2    1    2    0    0 -0.18302461294E+03 -0.48074149584E+02 -0.63756994463E+01  0.22687905900E+03  0.12499730024E+03 0.  0.
          2    1    1    2  501    0  0.10987536646E+03  0.74896273779E+02 -0.12949365824E+04  0.13017460583E+04  0.00000000000E+00 0. -1.
          1    1    1    2  502    0  0.73149246481E+02 -0.26822124195E+02  0.28947429810E+04  0.28957912848E+04  0.00000000000E+00 0. -1.
         22    1    3    3    0    0 -0.12928849253E+03 -0.90923131231E+02 -0.39703841330E+01  0.15810848821E+03  0.00000000000E+00 0.  1.
         22    1    3    3    0    0 -0.53736120409E+02  0.42848981647E+02 -0.24053153133E+01  0.68770570788E+02  0.00000000000E+00 0.  1.
</event>
<event>
 7    1  0.6510186E-006  0.1014809E+03  0.7818608E-02  0.1303704E+00
          2   -1    0    0  502    0  0.00000000000E+00  0.00000000000E+00  0.12197638787E+04  0.12197638787E+04  0.00000000000E+00 0. -1.
          1   -1    0    0  501    0 -0.00000000000E+00 -0.00000000000E+00 -0.36968695458E+03  0.36968695458E+03  0.00000000000E+00 0. -1.
         25    2    1    2    0    0 -0.11761039851E+03 -0.82868634906E+02  0.14103747875E+03  0.23710324272E+03  0.12500784299E+03 0.  0.
          2    1    1    2  501    0  0.10042129314E+03  0.55597526841E+01 -0.31222135733E+03  0.32802061359E+03  0.00000000000E+00 0. -1.
          1    1    1    2  502    0  0.17189105373E+02  0.77308882222E+02  0.10212608027E+04  0.10243269770E+04  0.00000000000E+00 0. -1.
         22    1    3    3    0    0 -0.64145151881E+02 -0.92286943996E+02  0.34558011956E+02  0.11758289303E+03  0.00000000000E+00 0. -1.
         22    1    3    3    0    0 -0.53465246634E+02  0.94183090898E+01  0.10647946679E+03  0.11952034970E+03  0.00000000000E+00 0. -1.
</event>
<event>
 7    1  0.6510186E-006  0.2607274E+03  0.7818608E-02  0.1178381E+00
          2   -1    0    0  502    0  0.00000000000E+00  0.00000000000E+00  0.17303089754E+04  0.17303089754E+04  0.00000000000E+00 0. -1.
          1   -1    0    0  501    0 -0.00000000000E+00 -0.00000000000E+00 -0.16729632679E+04  0.16729632679E+04  0.00000000000E+00 0. -1.
         25    2    1    2    0    0 -0.16991223742E+03 -0.35836719641E+02  0.20006220780E+02  0.21489418775E+03  0.12499929664E+03 0.  0.
          2    1    1    2  501    0  0.24210057988E+03  0.11907315611E+03 -0.15620597801E+04  0.15851882739E+04  0.00000000000E+00 0. -1.
          1    1    1    2  502    0 -0.72188342466E+02 -0.83236436472E+02  0.15993992668E+04  0.16031897816E+04  0.00000000000E+00 0. -1.
         22    1    3    3    0    0 -0.97708466336E+02  0.41628101863E+02 -0.41089613046E+01  0.10628606128E+03  0.00000000000E+00 0.  1.
         22    1    3    3    0    0 -0.72203771080E+02 -0.77464821504E+02  0.24115182085E+02  0.10860812647E+03  0.00000000000E+00 0.  1.
</event>
<event>
 7    1  0.6510186E-006  0.1934120E+03  0.7818608E-02  0.1262403E+00
          2   -1    0    0  502    0  0.00000000000E+00  0.00000000000E+00  0.21193334800E+04  0.21193334800E+04  0.00000000000E+00 0. -1.
          1   -1    0    0  501    0 -0.00000000000E+00 -0.00000000000E+00 -0.13084278434E+04  0.13084278434E+04  0.00000000000E+00 0. -1.
         25    2    1    2    0    0 -0.67958982887E+01 -0.24674685953E+03 -0.65473570709E+02  0.28432691969E+03  0.12499924750E+03 0.  0.
          2    1    1    2  501    0  0.24800720058E+02  0.18799722207E+03 -0.11251222423E+04  0.11409899611E+04  0.00000000000E+00 0. -1.
          1    1    1    2  502    0 -0.18004821769E+02  0.58749637463E+02  0.20015014495E+04  0.20024444426E+04  0.00000000000E+00 0. -1.
         22    1    3    3    0    0 -0.42672881350E+01 -0.18738696603E+03 -0.10317974067E+03  0.21395827554E+03  0.00000000000E+00 0. -1.
         22    1    3    3    0    0 -0.25286101538E+01 -0.59359893498E+02  0.37706169965E+02  0.70368644145E+02  0.00000000000E+00 0. -1.
</event>
<event>
 7    1  0.6510186E-006  0.3201994E+02  0.7818608E-02  0.1648886E+00
          2   -1    0    0  502    0  0.00000000000E+00  0.00000000000E+00  0.58518935597E+03  0.58518935597E+03  0.00000000000E+00 0. -1.
          1   -1    0    0  501    0 -0.00000000000E+00 -0.00000000000E+00 -0.57043094928E+02  0.57043094928E+02  0.00000000000E+00 0. -1.
         25    2    1    2    0    0 -0.19052306234E+02 -0.17824713227E+02  0.15608830841E+03  0.20166623196E+03  0.12499999327E+03 0.  0.
          2    1    1    2  501    0  0.15223784024E+02 -0.14308382557E+02 -0.30357340972E+02  0.36851886821E+02  0.00000000000E+00 0. -1.
          1    1    1    2  502    0  0.38285222100E+01  0.32133095784E+02  0.40241529361E+03  0.40371433212E+03  0.00000000000E+00 0. -1.
         22    1    3    3    0    0  0.98852283270E+01 -0.45656437477E+02  0.15458433750E+03  0.16148853032E+03  0.00000000000E+00 0.  1.
         22    1    3    3    0    0 -0.28937534561E+02  0.27831724250E+02  0.15039709053E+01  0.40177701647E+02  0.00000000000E+00 0.  1.
</event>
<event>
 7    1  0.6510186E-006  0.1689941E+03  0.7818608E-02  0.1263024E+00
          2   -1    0    0  502    0  0.00000000000E+00  0.00000000000E+00  0.57888767163E+03  0.57888767163E+03  0.00000000000E+00 0. -1.
          1   -1    0    0  501    0 -0.00000000000E+00 -0.00000000000E+00 -0.11208758552E+03  0.11208758552E+03  0.00000000000E+00 0. -1.
         25    2    1    2    0    0 -0.98788874783E+02  0.16530461591E+03  0.13170133713E+03  0.26467872154E+03  0.12499890243E+03 0.  0.
          2    1    1    2  501    0  0.30044328353E+02 -0.15265291512E+03  0.10985568967E+03  0.19045694189E+03  0.00000000000E+00 0. -1.
          1    1    1    2  502    0  0.68744546429E+02 -0.12651700791E+02  0.22524305931E+03  0.23583959372E+03  0.00000000000E+00 0. -1.
         22    1    3    3    0    0  0.12907385989E+02  0.81629074024E+02  0.82295179795E+02  0.11662934003E+03  0.00000000000E+00 0.  1.
         22    1    3    3    0    0 -0.11169626077E+03  0.83675541891E+02  0.49406157339E+02  0.14804938151E+03  0.00000000000E+00 0.  1.
</event>
<event>
 7    1  0.6510186E-006  0.1091765E+03  0.7818608E-02  0.1447190E+00
          2   -1    0    0  502    0  0.00000000000E+00  0.00000000000E+00  0.22099151336E+04  0.22099151336E+04  0.00000000000E+00 0. -1.
          1   -1    0    0  501    0 -0.00000000000E+00 -0.00000000000E+00 -0.28430890031E+03  0.28430890031E+03  0.00000000000E+00 0. -1.
         25    2    1    2    0    0  0.78670530759E+02 -0.42946339281E+02  0.87549537071E+03  0.88890438188E+03  0.12500166208E+03 0.  0.
          2    1    1    2  501    0 -0.10121620449E+03  0.41574773190E+02 -0.26672118566E+03  0.28829389986E+03  0.00000000000E+00 0. -1.
          1    1    1    2  502    0  0.22545673732E+02  0.13715660907E+01  0.13168320482E+04  0.13170257521E+04  0.00000000000E+00 0. -1.
         22    1    3    3    0    0  0.71071247688E+01 -0.74372701314E+02  0.37886338079E+03  0.38615964474E+03  0.00000000000E+00 0.  1.
         22    1    3    3    0    0  0.71563405990E+02  0.31426362033E+02  0.49663198992E+03  0.50274473714E+03  0.00000000000E+00 0.  1.
</event>
<event>
 7    1  0.6510186E-006  0.4077882E+02  0.7818608E-02  0.1582905E+00
          2   -1    0    0  502    0  0.00000000000E+00  0.00000000000E+00  0.86836051698E+03  0.86836051698E+03  0.00000000000E+00 0. -1.
          1   -1    0    0  501    0 -0.00000000000E+00 -0.00000000000E+00 -0.52394471242E+02  0.52394471242E+02  0.00000000000E+00 0. -1.
         25    2    1    2    0    0  0.11770120690E+02 -0.55996231218E+02  0.93144637801E+02  0.16605779666E+03  0.12500061851E+03 0.  0.
          2    1    1    2  501    0  0.44156210153E+01  0.37993906397E+02  0.75145636522E+01  0.38980806804E+02  0.00000000000E+00 0. -1.
          1    1    1    2  502    0 -0.16185741706E+02  0.18002324821E+02  0.71530684429E+03  0.71571638476E+03  0.00000000000E+00 0. -1.
         22    1    3    3    0    0  0.60355964263E+02 -0.53743525702E+02  0.29668157920E+02  0.86089538106E+02  0.00000000000E+00 0.  1.
         22    1    3    3    0    0 -0.48585843573E+02 -0.22527055161E+01  0.63476479882E+02  0.79968258553E+02  0.00000000000E+00 0.  1.
</event>
<event>
 7    1  0.6510186E-006  0.3808601E+02  0.7818608E-02  0.1602488E+00
          2   -1    0    0  502    0  0.00000000000E+00  0.00000000000E+00  0.25684896007E+04  0.25684896007E+04  0.00000000000E+00 0. -1.
          1   -1    0    0  501    0 -0.00000000000E+00 -0.00000000000E+00 -0.32089584101E+02  0.32089584101E+02  0.00000000000E+00 0. -1.
         25    2    1    2    0    0 -0.32584694327E+02 -0.12676312883E+02  0.23854125580E+03  0.27156916132E+03  0.12500170979E+03 0.  0.
          2    1    1    2  501    0  0.12125738708E+02 -0.19560035294E+02 -0.68294143534E+01  0.24005612267E+02  0.00000000000E+00 0. -1.
          1    1    1    2  502    0  0.20458955618E+02  0.32236348176E+02  0.23046881752E+04  0.23050044112E+04  0.00000000000E+00 0. -1.
         22    1    3    3    0    0  0.35335899382E+02  0.32462631978E+02  0.96841901100E+02  0.10807775936E+03  0.00000000000E+00 0.  1.
         22    1    3    3    0    0 -0.67920593709E+02 -0.45138944860E+02  0.14169935470E+03  0.16349140196E+03  0.00000000000E+00 0.  1.
</event>
<event>
 7    1  0.6510186E-006  0.5341826E+02  0.7818608E-02  0.1455432E+00
          2   -1    0    0  502    0  0.00000000000E+00  0.00000000000E+00  0.30815479227E+03  0.30815479227E+03  0.00000000000E+00 0. -1.
          1   -1    0    0  501    0 -0.00000000000E+00 -0.00000000000E+00 -0.48450507799E+03  0.48450507799E+03  0.00000000000E+00 0. -1.
         25    2    1    2    0    0 -0.31821818012E+02  0.70434235804E+02  0.21772526198E+02  0.14856815602E+03  0.12499937764E+03 0.  0.
          2    1    1    2  501    0 -0.12433050049E+02 -0.41632587512E+02 -0.41683635142E+03  0.41909473504E+03  0.00000000000E+00 0. -1.
          1    1    1    2  502    0  0.44254868061E+02 -0.28801648292E+02  0.21871353950E+03  0.22499697921E+03  0.00000000000E+00 0. -1.
         22    1    3    3    0    0  0.56301520475E+01  0.89621833530E+02  0.45063723227E+02  0.10047144275E+03  0.00000000000E+00 0.  1.
         22    1    3    3    0    0 -0.37451970060E+02 -0.19187597726E+02 -0.23291197029E+02  0.48096713265E+02  0.00000000000E+00 0.  1.
</event>
<event>
 7    1  0.6510186E-006  0.1301671E+03  0.7818608E-02  0.1233148E+00
          2   -1    0    0  502    0  0.00000000000E+00  0.00000000000E+00  0.69029370821E+03  0.69029370821E+03  0.00000000000E+00 0. -1.
          1   -1    0    0  501    0 -0.00000000000E+00 -0.00000000000E+00 -0.41240567594E+03  0.41240567594E+03  0.00000000000E+00 0. -1.
         25    2    1    2    0    0 -0.75579905472E+01  0.58473270459E+02  0.13952689604E+03  0.19639148504E+03  0.12500245637E+03 0.  0.
          2    1    1    2  501    0 -0.12810113470E+03  0.23098977506E+02 -0.36031737000E+03  0.38310843191E+03  0.00000000000E+00 0. -1.
          1    1    1    2  502    0  0.13565912525E+03 -0.81572247965E+02  0.49867850623E+03  0.52319946720E+03  0.00000000000E+00 0. -1.
         22    1    3    3    0    0  0.41338845318E+02  0.75380060763E+02  0.95074244810E+02  0.12818020798E+03  0.00000000000E+00 0.  1.
         22    1    3    3    0    0 -0.48896835865E+02 -0.16906790303E+02  0.44452651232E+02  0.68211277056E+02  0.00000000000E+00 0.  1.
</event>
<event>
 7    1  0.6510186E-006  0.3303041E+02  0.7818608E-02  0.1574953E+00
          2   -1    0    0  502    0  0.00000000000E+00  0.00000000000E+00  0.41416348848E+03  0.41416348848E+03  0.00000000000E+00 0. -1.
          1   -1    0    0  501    0 -0.00000000000E+00 -0.00000000000E+00 -0.27480823614E+03  0.27480823614E+03  0.00000000000E+00 0. -1.
         25    2    1    2    0    0 -0.33642995812E+02  0.54066000679E+02  0.96691327193E+02  0.17038083517E+03  0.12500173056E+03 0.  0.
          2    1    1    2  501    0  0.13831418641E+02 -0.29712762131E+02 -0.23594922533E+03  0.23821459508E+03  0.00000000000E+00 0. -1.
          1    1    1    2  502    0  0.19811577171E+02 -0.24353238548E+02  0.27861315049E+03  0.28037629437E+03  0.00000000000E+00 0. -1.
         22    1    3    3    0    0  0.39190753326E+02  0.42247818932E+02  0.72748742388E+02  0.92807181133E+02  0.00000000000E+00 0. -1.
         22    1    3    3    0    0 -0.72833749138E+02  0.11818181747E+02  0.23942584805E+02  0.77573654036E+02  0.00000000000E+00 0. -1.
</event>
<event>
 7    1  0.6510186E-006  0.5556786E+02  0.7818608E-02  0.1507350E+00
          2   -1    0    0  502    0  0.00000000000E+00  0.00000000000E+00  0.71498423569E+03  0.71498423569E+03  0.00000000000E+00 0. -1.
          1   -1    0    0  501    0 -0.00000000000E+00 -0.00000000000E+00 -0.14188757309E+03  0.14188757309E+03  0.00000000000E+00 0. -1.
         25    2    1    2    0    0  0.79469759188E+02 -0.10134997380E+02  0.33274766200E+03  0.36436562222E+03  0.12499255695E+03 0.  0.
          2    1    1    2  501    0 -0.28691448027E+02 -0.39546483958E+01 -0.12248638648E+03  0.12586402706E+03  0.00000000000E+00 0. -1.
          1    1    1    2  502    0 -0.50778311162E+02  0.14089645776E+02  0.36283538709E+03  0.36664215950E+03  0.00000000000E+00 0. -1.
         22    1    3    3    0    0  0.78827166837E+02  0.14462180116E+02  0.33001729474E+03  0.33960902772E+03  0.00000000000E+00 0.  1.
         22    1    3    3    0    0  0.64259235175E+00 -0.24597177496E+02  0.27303672615E+01  0.24756594497E+02  0.00000000000E+00 0.  1.
</event>
<event>
 7    1  0.6510186E-006  0.6132503E+02  0.7818608E-02  0.1427180E+00
          2   -1    0    0  502    0  0.00000000000E+00  0.00000000000E+00  0.49559899710E+03  0.49559899710E+03  0.00000000000E+00 0. -1.
          1   -1    0    0  501    0 -0.00000000000E+00 -0.00000000000E+00 -0.12378741022E+04  0.12378741022E+04  0.00000000000E+00 0. -1.
         25    2    1    2    0    0  0.23217176345E+02  0.10811623918E+02  0.18326689409E+03  0.22331162536E+03  0.12500159624E+03 0.  0.
          2    1    1    2  501    0  0.22310247576E+02  0.41056014694E+02 -0.12133221692E+04  0.12142215736E+04  0.00000000000E+00 0. -1.
          1    1    1    2  502    0 -0.45527423921E+02 -0.51867638613E+02  0.28778017010E+03  0.29593990026E+03  0.00000000000E+00 0. -1.
         22    1    3    3    0    0 -0.29755399789E+02  0.42409881708E+01 -0.23732847346E+01  0.30149664637E+02  0.00000000000E+00 0. -1.
         22    1    3    3    0    0  0.52972576134E+02  0.65706357474E+01  0.18564017883E+03  0.19316196073E+03  0.00000000000E+00 0. -1.
</event>
<event>
 7    1  0.6510186E-006  0.1282460E+03  0.7818608E-02  0.1263499E+00
          2   -1    0    0  502    0  0.00000000000E+00  0.00000000000E+00  0.51056484069E+02  0.51056484069E+02  0.00000000000E+00 0. -1.
          1   -1    0    0  501    0 -0.00000000000E+00 -0.00000000000E+00 -0.28577962282E+04  0.28577962282E+04  0.00000000000E+00 0. -1.
         25    2    1    2    0    0 -0.59230574303E+02  0.60437110086E+02 -0.93165181386E+03  0.94380130135E+03  0.12499955582E+03 0.  0.
          2    1    1    2  501    0 -0.75845578943E+02 -0.51506101146E+02 -0.18143736157E+04  0.18166884840E+04  0.00000000000E+00 0. -1.
          1    1    1    2  502    0  0.13507615325E+03 -0.89310089396E+01 -0.60714314491E+02  0.14836292691E+03  0.00000000000E+00 0. -1.
         22    1    3    3    0    0 -0.31846268857E+02  0.11060352182E+02 -0.79800866027E+03  0.79872043801E+03  0.00000000000E+00 0. -1.
         22    1    3    3    0    0 -0.27384305446E+02  0.49376757904E+02 -0.13364315359E+03  0.14508086334E+03  0.00000000000E+00 0. -1.
</event>
<event>
 7    1  0.6510186E-006  0.8115803E+02  0.7818608E-02  0.1379304E+00
          2   -1    0    0  502    0  0.00000000000E+00  0.00000000000E+00  0.65814709701E+03  0.65814709701E+03  0.00000000000E+00 0. -1.
          1   -1    0    0  501    0 -0.00000000000E+00 -0.00000000000E+00 -0.24006801318E+03  0.24006801318E+03  0.00000000000E+00 0. -1.
         25    2    1    2    0    0 -0.30421478477E+02  0.12749157306E+03  0.53194715705E+03  0.56193757413E+03  0.12500596694E+03 0.  0.
          2    1    1    2  501    0  0.25954141487E+02 -0.76190520759E+02 -0.21127971968E+03  0.22609231049E+03  0.00000000000E+00 0. -1.
          1    1    1    2  502    0  0.44673369903E+01 -0.51301052302E+02  0.97411646463E+02  0.11018522557E+03  0.00000000000E+00 0. -1.
         22    1    3    3    0    0 -0.78539222970E+02  0.63378275902E+02  0.29049138692E+03  0.30752310690E+03  0.00000000000E+00 0. -1.
         22    1    3    3    0    0  0.48117744493E+02  0.64113297159E+02  0.24145577013E+03  0.25441446723E+03  0.00000000000E+00 0. -1.
</event>
<event>
 7    1  0.6510186E-006  0.6781366E+02  0.7818608E-02  0.1406930E+00
          2   -1    0    0  502    0  0.00000000000E+00  0.00000000000E+00  0.93362697928E+03  0.93362697928E+03  0.00000000000E+00 0. -1.
          1   -1    0    0  501    0 -0.00000000000E+00 -0.00000000000E+00 -0.19871208022E+03  0.19871208022E+03  0.00000000000E+00 0. -1.
         25    2    1    2    0    0 -0.56997885261E+02  0.64465205603E+02  0.39906695299E+03  0.42694670597E+03  0.12499814045E+03 0.  0.
          2    1    1    2  501    0 -0.81423320301E+01 -0.48733736383E+02 -0.17925949176E+03  0.18594418523E+03  0.00000000000E+00 0. -1.
          1    1    1    2  502    0  0.65140217292E+02 -0.15731469220E+02  0.51510743784E+03  0.51944816830E+03  0.00000000000E+00 0. -1.
         22    1    3    3    0    0  0.38320229596E+02  0.18032464503E+02  0.15831843849E+03  0.16388513581E+03  0.00000000000E+00 0. -1.
         22    1    3    3    0    0 -0.95318114857E+02  0.46432741100E+02  0.24074851450E+03  0.26306157017E+03  0.00000000000E+00 0. -1.
</event>
<event>
 7    1  0.6510186E-006  0.6133958E+02  0.7818608E-02  0.1470345E+00
          2   -1    0    0  502    0  0.00000000000E+00  0.00000000000E+00  0.24552311185E+04  0.24552311185E+04  0.00000000000E+00 0. -1.
          1   -1    0    0  501    0 -0.00000000000E+00 -0.00000000000E+00 -0.33688861155E+03  0.33688861155E+03  0.00000000000E+00 0. -1.
         25    2    1    2    0    0 -0.42764544917E+02 -0.20059874518E+02  0.14162141430E+04  0.14225043150E+04  0.12499928906E+03 0.  0.
          2    1    1    2  501    0  0.16434540612E+01 -0.33928693240E+02 -0.33176382038E+03  0.33349826038E+03  0.00000000000E+00 0. -1.
          1    1    1    2  502    0  0.41121090856E+02  0.53988567758E+02  0.10338921843E+04  0.10361171547E+04  0.00000000000E+00 0. -1.
         22    1    3    3    0    0 -0.43018826198E+02 -0.58000289914E+02  0.12469821808E+04  0.12490713399E+04  0.00000000000E+00 0. -1.
         22    1    3    3    0    0  0.25428128090E+00  0.37940415396E+02  0.16923196227E+03  0.17343297505E+03  0.00000000000E+00 0. -1.
</event>
<event>
 7    1  0.6510186E-006  0.1123753E+03  0.7818608E-02  0.1405091E+00
          2   -1    0    0  502    0  0.00000000000E+00  0.00000000000E+00  0.53992255145E+03  0.53992255145E+03  0.00000000000E+00 0. -1.
          1   -1    0    0  501    0 -0.00000000000E+00 -0.00000000000E+00 -0.59389322555E+02  0.59389322555E+02  0.00000000000E+00 0. -1.
         25    2    1    2    0    0  0.68911500958E+02  0.72281156342E+02  0.37346299364E+03  0.40629178209E+03  0.12500017619E+03 0.  0.
          2    1    1    2  501    0 -0.57512018641E+02 -0.10030097463E+03  0.45181502240E+02  0.12413414496E+03  0.00000000000E+00 0. -1.
          1    1    1    2  502    0 -0.11399482317E+02  0.28019818288E+02  0.61888733019E+02  0.68885946961E+02  0.00000000000E+00 0. -1.
         22    1    3    3    0    0  0.85248964981E+02  0.80000716362E+02  0.19827872543E+03  0.23017809106E+03  0.00000000000E+00 0.  1.
         22    1    3    3    0    0 -0.16337464022E+02 -0.77195600200E+01  0.17518426821E+03  0.17611369103E+03  0.00000000000E+00 0.  1.
</event>
<event>
 7    1  0.6510186E-006  0.1629434E+03  0.7818608E-02  0.1264859E+00
          2   -1    0    0  502    0  0.00000000000E+00  0.00000000000E+00  0.17046073158E+04  0.17046073158E+04  0.00000000000E+00 0. -1.
          1   -1    0    0  501    0 -0.00000000000E+00 -0.00000000000E+00 -0.20949690012E+04  0.20949690012E+04  0.00000000000E+00 0. -1.
         25    2    1    2    0    0 -0.31446477494E+01 -0.18072190646E+03  0.56723648497E+03  0.60831921409E+03  0.12499896024E+03 0.  0.
          2    1    1    2  501    0 -0.61503073511E+02  0.15087097303E+03 -0.20700885816E+04  0.20764901671E+04  0.00000000000E+00 0. -1.
          1    1    1    2  502    0  0.64647721261E+02  0.29850933430E+02  0.11124904112E+04  0.11147669358E+04  0.00000000000E+00 0. -1.
         22    1    3    3    0    0 -0.26470932243E+02 -0.87857494697E+02  0.43782553934E+03  0.44733751522E+03  0.00000000000E+00 0. -1.
         22    1    3    3    0    0  0.23326284494E+02 -0.92864411758E+02  0.12941094563E+03  0.16098169886E+03  0.00000000000E+00 0. -1.
</event>
<event>
 7    1  0.6510186E-006  0.1083458E+03  0.7818608E-02  0.1378800E+00
          2   -1    0    0  502    0  0.00000000000E+00  0.00000000000E+00  0.27094790706E+03  0.27094790706E+03  0.00000000000E+00 0. -1.
          1   -1    0    0  501    0 -0.00000000000E+00 -0.00000000000E+00 -0.16683195661E+04  0.16683195661E+04  0.00000000000E+00 0. -1.
         25    2    1    2    0    0 -0.25710082014E+02 -0.68996962886E+02 -0.15483837792E+03  0.21218150780E+03  0.12499791906E+03 0.  0.
          2    1    1    2  501    0 -0.10756752504E+00 -0.38732277664E+02 -0.14718781560E+04  0.14723876891E+04  0.00000000000E+00 0. -1.
          1    1    1    2  502    0  0.25817649539E+02  0.10772924055E+03  0.22934487488E+03  0.25469827626E+03  0.00000000000E+00 0. -1.
         22    1    3    3    0    0 -0.10788915063E+02 -0.46650098675E+01  0.21157488589E+02  0.24203353667E+02  0.00000000000E+00 0.  1.
         22    1    3    3    0    0 -0.14921166951E+02 -0.64331953018E+02 -0.17599586651E+03  0.18797815413E+03  0.00000000000E+00 0.  1.
</event>
<event>
 7    1  0.6510186E-006  0.1226956E+03  0.7818608E-02  0.1290462E+00
          2   -1    0    0  502    0  0.00000000000E+00  0.00000000000E+00  0.17202778952E+04  0.17202778952E+04  0.00000000000E+00 0. -1.
          1   -1    0    0  501    0 -0.00000000000E+00 -0.00000000000E+00 -0.33129724643E+03  0.33129724643E+03  0.00000000000E+00 0. -1.
         25    2    1    2    0    0  0.11251651032E+03 -0.15510656715E+03  0.13945555867E+04  0.14131976786E+04  0.12499752887E+03 0.  0.
          2    1    1    2  501    0 -0.54220370153E+02  0.10944675915E+03 -0.30572894657E+03  0.32922428586E+03  0.00000000000E+00 0. -1.
          1    1    1    2  502    0 -0.58296140170E+02  0.45659808003E+02  0.30015400867E+03  0.30915317716E+03  0.00000000000E+00 0. -1.
         22    1    3    3    0    0  0.32153714643E+02 -0.13276407978E+03  0.66470581460E+03  0.67859706911E+03  0.00000000000E+00 0. -1.
         22    1    3    3    0    0  0.80362795680E+02 -0.22342487374E+02  0.72984977211E+03  0.73460060953E+03  0.00000000000E+00 0. -1.
</event>
<event>
 7    1  0.6510186E-006  0.1008196E+03  0.7818608E-02  0.1323026E+00
          2   -1    0    0  502    0  0.00000000000E+00  0.00000000000E+00  0.26432713350E+04  0.26432713350E+04  0.00000000000E+00 0. -1.
          1   -1    0    0  501    0 -0.00000000000E+00 -0.00000000000E+00 -0.94577596470E+03  0.94577596470E+03  0.00000000000E+00 0. -1.
         25    2    1    2    0    0 -0.88810817172E+02 -0.83486660086E+02  0.32247028987E+03  0.36670113310E+03  0.12500099803E+03 0.  0.
          2    1    1    2  501    0  0.65375865973E+02 -0.14463815177E+02 -0.92134188961E+03  0.92377166191E+03  0.00000000000E+00 0. -1.
          1    1    1    2  502    0  0.23434951199E+02  0.97950475263E+02  0.22963669701E+04  0.22985745047E+04  0.00000000000E+00 0. -1.
         22    1    3    3    0    0 -0.30213646231E+02  0.22917018138E+02  0.15649354830E+03  0.16102262201E+03  0.00000000000E+00 0.  1.
         22    1    3    3    0    0 -0.58597170941E+02 -0.10640367822E+03  0.16597674157E+03  0.20567851109E+03  0.00000000000E+00 0.  1.
</event>
<event>
 7    1  0.6510186E-006  0.9146330E+02  0.7818608E-02  0.1345440E+00
          2   -1    0    0  502    0  0.00000000000E+00  0.00000000000E+00  0.59666201704E+03  0.59666201704E+03  0.00000000000E+00 0. -1.
          1   -1    0    0  501    0 -0.00000000000E+00 -0.00000000000E+00 -0.79307570880E+03  0.79307570880E+03  0.00000000000E+00 0. -1.
         25    2    1    2    0    0 -0.10330182194E+03 -0.37731044896E+02 -0.67293631622E+01  0.16663602122E+03  0.12500952394E+03 0.  0.
          2    1    1    2  501    0  0.48992514869E+02 -0.35795206212E+02 -0.70102956573E+03  0.70365049231E+03  0.00000000000E+00 0. -1.
          1    1    1    2  502    0  0.54309307069E+02  0.73526251108E+02  0.51134523713E+03  0.51945121232E+03  0.00000000000E+00 0. -1.
         22    1    3    3    0    0 -0.10714172016E+03 -0.69803121427E+02  0.13402709376E+02  0.12857471205E+03  0.00000000000E+00 0.  1.
         22    1    3    3    0    0  0.38398982185E+01  0.32072076531E+02 -0.20132072539E+02  0.38061309174E+02  0.00000000000E+00 0.  1.
</event>
<event>
 7    1  0.6510186E-006  0.1809012E+03  0.7818608E-02  0.1275397E+00
          2   -1    0    0  502    0  0.00000000000E+00  0.00000000000E+00  0.32824667596E+03  0.32824667596E+03  0.00000000000E+00 0. -1.
          1   -1    0    0  501    0 -0.00000000000E+00 -0.00000000000E+00 -0.19513788232E+04  0.19513788232E+04  0.00000000000E+00 0. -1.
         25    2    1    2    0    0 -0.49696904583E+02  0.12532537254E+03 -0.47345158975E+02  0.18984803945E+03  0.12499793069E+03 0.  0.
          2    1    1    2  501    0  0.99565247662E+02 -0.15479637839E+03 -0.18248291674E+04  0.18340874154E+04  0.00000000000E+00 0. -1.
          1    1    1    2  502    0 -0.49868343079E+02  0.29471005851E+02  0.24904217906E+03  0.25569004434E+03  0.00000000000E+00 0. -1.
         22    1    3    3    0    0 -0.25195988364E+02  0.69378941567E+02  0.39468703566E+02  0.83702173949E+02  0.00000000000E+00 0.  1.
         22    1    3    3    0    0 -0.24500916220E+02  0.55946430972E+02 -0.86813862540E+02  0.10614586550E+03  0.00000000000E+00 0.  1.
</event>
<event>
 7    1  0.6510186E-006  0.7390901E+02  0.7818608E-02  0.1370433E+00
          2   -1    0    0  502    0  0.00000000000E+00  0.00000000000E+00  0.93470992131E+03  0.93470992131E+03  0.00000000000E+00 0. -1.
          1   -1    0    0  501    0 -0.00000000000E+00 -0.00000000000E+00 -0.29270716658E+03  0.29270716658E+03  0.00000000000E+00 0. -1.
         25    2    1    2    0    0 -0.13242115289E+03 -0.11685161943E+02  0.20557234568E+03  0.27487622790E+03  0.12500018644E+03 0.  0.
          2    1    1    2  501    0  0.71602653708E+02  0.12321944889E+02 -0.25157290851E+03  0.26185434623E+03  0.00000000000E+00 0. -1.
          1    1    1    2  502    0  0.60818499177E+02 -0.63678294598E+00  0.68800331755E+03  0.69068651377E+03  0.00000000000E+00 0. -1.
         22    1    3    3    0    0 -0.49043113128E+02  0.27619749202E+02  0.16468315590E+03  0.17403625866E+03  0.00000000000E+00 0.  1.
         22    1    3    3    0    0 -0.83378039758E+02 -0.39304911146E+02  0.40889189783E+02  0.10083996923E+03  0.00000000000E+00 0.  1.
</event>
<event>
 7    1  0.6510186E-006  0.1973884E+03  0.7818608E-02  0.1264240E+00
          2   -1    0    0  502    0  0.00000000000E+00  0.00000000000E+00  0.15573080062E+04  0.15573080062E+04  0.00000000000E+00 0. -1.
          1   -1    0    0  501    0 -0.00000000000E+00 -0.00000000000E+00 -0.30550556139E+03  0.30550556139E+03  0.00000000000E+00 0. -1.
         25    2    1    2    0    0  0.68894889980E+02  0.21216312712E+03  0.15306799399E+03  0.29801710751E+03  0.12499874883E+03 0.  0.
          2    1    1    2  501    0 -0.12821249999E+02 -0.19337675104E+03 -0.19194261452E+03  0.27276531958E+03  0.00000000000E+00 0. -1.
          1    1    1    2  502    0 -0.56073639981E+02 -0.18786376074E+02  0.12906770653E+04  0.12920311405E+04  0.00000000000E+00 0. -1.
         22    1    3    3    0    0 -0.27697026174E+02  0.37193595534E+02  0.64428298164E+02  0.79381952685E+02  0.00000000000E+00 0. -1.
         22    1    3    3    0    0  0.96591916154E+02  0.17496953158E+03  0.88639695828E+02  0.21863515482E+03  0.00000000000E+00 0. -1.
</event>
<event>
 7    1  0.6510186E-006  0.6314656E+02  0.7818608E-02  0.1506788E+00
          2   -1    0    0  502    0  0.00000000000E+00  0.00000000000E+00  0.43424219884E+03  0.43424219884E+03  0.00000000000E+00 0. -1.
          1   -1    0    0  501    0 -0.00000000000E+00 -0.00000000000E+00 -0.99314771213E+03  0.99314771213E+03  0.00000000000E+00 0. -1.
         25    2    1    2    0    0  0.28056467198E+01 -0.51259115369E+02 -0.19674979384E+03  0.23868183389E+03  0.12499267135E+03 0.  0.
          2    1    1    2  501    0 -0.24184897727E+02 -0.83454455382E+01 -0.77279336004E+03  0.77321674391E+03  0.00000000000E+00 0. -1.
          1    1    1    2  502    0  0.21379251007E+02  0.59604560907E+02  0.41063764060E+03  0.41549133316E+03  0.00000000000E+00 0. -1.
         22    1    3    3    0    0 -0.32384975422E+02  0.12998469326E+02 -0.14460720826E+03  0.14875816455E+03  0.00000000000E+00 0.  1.
         22    1    3    3    0    0  0.35190622142E+02 -0.64257584695E+02 -0.52142585580E+02  0.89923669345E+02  0.00000000000E+00 0.  1.
</event>
<event>
 7    1  0.1526346E-005  0.5629028E+02  0.7818608E-02  0.1448241E+00
          2   -1    0    0  502    0  0.00000000000E+00  0.00000000000E+00  0.22044840778E+04  0.22044840778E+04  0.00000000000E+00 0. -1.
          1   -1    0    0  501    0 -0.00000000000E+00 -0.00000000000E+00 -0.78706306588E+03  0.78706306588E+03  0.00000000000E+00 0. -1.
         25    2    1    2    0    0 -0.17533163829E+02 -0.67091861955E+02 -0.26076527135E+03  0.29737849521E+03  0.12500685138E+03 0.  0.
          2    1    1    2  501    0 -0.23024720189E+02  0.51449642543E+02 -0.50621066315E+03  0.50933921795E+03  0.00000000000E+00 0. -1.
          1    1    1    2  502    0  0.40557884019E+02  0.15642219412E+02  0.21843969464E+04  0.21848294305E+04  0.00000000000E+00 0. -1.
         22    1    3    3    0    0 -0.47277330627E+02  0.62657435524E+01 -0.38036945923E+02  0.61001760537E+02  0.00000000000E+00 0.  1.
         22    1    3    3    0    0  0.29744166797E+02 -0.73357605508E+02 -0.22272832543E+03  0.23637673467E+03  0.00000000000E+00 0.  1.
</event>
<event>
 7    1  0.6962335E-006  0.6299892E+02  0.7818608E-02  0.1419287E+00
          2   -1    0    0  502    0  0.00000000000E+00  0.00000000000E+00  0.65848736012E+03  0.65848736012E+03  0.00000000000E+00 0. -1.
          1   -1    0    0  501    0 -0.00000000000E+00 -0.00000000000E+00 -0.10716304253E+04  0.10716304253E+04  0.00000000000E+00 0. -1.
         25    2    1    2    0    0  0.25723100333E+02  0.95946274489E+02 -0.28824749648E+03  0.32951375223E+03  0.12500131280E+03 0.  0.
          2    1    1    2  501    0 -0.36816376929E+02 -0.48919448657E+02 -0.76060290707E+03  0.76306312997E+03  0.00000000000E+00 0. -1.
          1    1    1    2  502    0  0.11093276596E+02 -0.47026825832E+02  0.63570733841E+03  0.63754090319E+03  0.00000000000E+00 0. -1.
         22    1    3    3    0    0  0.10784705044E+02  0.12580940275E+03 -0.22870658390E+03  0.26124895637E+03  0.00000000000E+00 0. -1.
         22    1    3    3    0    0  0.14938395289E+02 -0.29863128262E+02 -0.59540912576E+02  0.68264795860E+02  0.00000000000E+00 0. -1.
</event>
<event>
 7    1  0.6510186E-006  0.5909453E+02  0.7818608E-02  0.1492618E+00
          2   -1    0    0  502    0  0.00000000000E+00  0.00000000000E+00  0.12783192864E+03  0.12783192864E+03  0.00000000000E+00 0. -1.
          1   -1    0    0  501    0 -0.00000000000E+00 -0.00000000000E+00 -0.20319616751E+04  0.20319616751E+04  0.00000000000E+00 0. -1.
         25    2    1    2    0    0 -0.87393517942E+02  0.18466540830E+01 -0.10389358232E+04  0.10500733097E+04  0.12500109604E+03 0.  0.
          2    1    1    2  501    0  0.28876833170E+02 -0.86188680999E+01 -0.98011656996E+03  0.98057975050E+03  0.00000000000E+00 0. -1.
          1    1    1    2  502    0  0.58516684772E+02  0.67722140168E+01  0.11492264664E+03  0.12914054355E+03  0.00000000000E+00 0. -1.
         22    1    3    3    0    0 -0.20104110788E+02 -0.14553081013E+02 -0.30772090154E+02  0.39533390571E+02  0.00000000000E+00 0.  1.
         22    1    3    3    0    0 -0.67289407154E+02  0.16399735096E+02 -0.10081637330E+04  0.10105399191E+04  0.00000000000E+00 0.  1.
</event>
<event>
 7    1  0.6510186E-006  0.7759977E+02  0.7818608E-02  0.1433482E+00
          2   -1    0    0  502    0  0.00000000000E+00  0.00000000000E+00  0.66069919356E+02  0.66069919356E+02  0.00000000000E+00 0. -1.
          1   -1    0    0  501    0 -0.00000000000E+00 -0.00000000000E+00 -0.17189003202E+04  0.17189003202E+04  0.00000000000E+00 0. -1.
         25    2    1    2    0    0 -0.15739471305E+01  0.10855630821E+03 -0.57762297252E+03  0.60088191406E+03  0.12499530749E+03 0.  0.
          2    1    1    2  501    0  0.12134885566E+02 -0.33047150522E+02 -0.11025333684E+04  0.11030952806E+04  0.00000000000E+00 0. -1.
          1    1    1    2  502    0 -0.10560938435E+02 -0.75509157691E+02  0.27325940115E+02  0.80993044880E+02  0.00000000000E+00 0. -1.
         22    1    3    3    0    0 -0.18724978089E+02  0.13279966462E+03 -0.43520262783E+03  0.45539840030E+03  0.00000000000E+00 0.  1.
         22    1    3    3    0    0  0.17151030959E+02 -0.24243356403E+02 -0.14242034469E+03  0.14548351375E+03  0.00000000000E+00 0.  1.
</event>
<event>
 7    1  0.6510186E-006  0.4672633E+02  0.7818608E-02  0.1591562E+00
          2   -1    0    0  502    0  0.00000000000E+00  0.00000000000E+00  0.26848691628E+04  0.26848691628E+04  0.00000000000E+00 0. -1.
          1   -1    0    0  501    0 -0.00000000000E+00 -0.00000000000E+00 -0.10877748546E+03  0.10877748546E+03  0.00000000000E+00 0. -1.
         25    2    1    2    0    0  0.55812762072E+02 -0.33783884617E+02  0.58395672752E+03  0.60073846720E+03  0.12499932433E+03 0.  0.
          2    1    1    2  501    0 -0.13877168919E+02  0.14454515741E+02 -0.99129299441E+02  0.10113420218E+03  0.00000000000E+00 0. -1.
          1    1    1    2  502    0 -0.41935593153E+02  0.19329368876E+02  0.20912642493E+04  0.20917739789E+04  0.00000000000E+00 0. -1.
         22    1    3    3    0    0  0.17262463943E+02 -0.69593532646E+02  0.46724568506E+03  0.47271532940E+03  0.00000000000E+00 0. -1.
         22    1    3    3    0    0  0.38550298129E+02  0.35809648029E+02  0.11671104247E+03  0.12802313780E+03  0.00000000000E+00 0. -1.
</event>
<event>
 7    1  0.6510186E-006  0.1236944E+03  0.7818608E-02  0.1331198E+00
          2   -1    0    0  502    0  0.00000000000E+00  0.00000000000E+00  0.34184192750E+03  0.34184192750E+03  0.00000000000E+00 0. -1.
          1   -1    0    0  501    0 -0.00000000000E+00 -0.00000000000E+00 -0.35230496338E+03  0.35230496338E+03  0.00000000000E+00 0. -1.
         25    2    1    2    0    0 -0.13954050031E+03  0.69672440671E+01 -0.66437403520E+02  0.19892973819E+03  0.12505606117E+03 0.  0.
          2    1    1    2  501    0  0.27203526124E+02  0.42870164930E+02 -0.20263114980E+03  0.20889534639E+03  0.00000000000E+00 0. -1.
          1    1    1    2  502    0  0.11233697418E+03 -0.49837408997E+02  0.25860551745E+03  0.28632180629E+03  0.00000000000E+00 0. -1.
         22    1    3    3    0    0 -0.13169787478E+03 -0.41022818781E+02 -0.40207021706E+02  0.14367952700E+03  0.00000000000E+00 0. -1.
         22    1    3    3    0    0 -0.78426255251E+01  0.47990062848E+02 -0.26230381814E+02  0.55250211198E+02  0.00000000000E+00 0. -1.
</event>
<event>
 7    1  0.6510186E-006  0.1054508E+03  0.7818608E-02  0.1294837E+00
          2   -1    0    0  502    0  0.00000000000E+00  0.00000000000E+00  0.25790564365E+04  0.25790564365E+04  0.00000000000E+00 0. -1.
          1   -1    0    0  501    0 -0.00000000000E+00 -0.00000000000E+00 -0.24788502602E+02  0.24788502602E+02  0.00000000000E+00 0. -1.
         25    2    1    2    0    0  0.11573646857E+03  0.23668760139E+02  0.18140825459E+04  0.18222177042E+04  0.12500695004E+03 0.  0.
          2    1    1    2  501    0 -0.52754164950E+02  0.63707347454E+02  0.88636864281E+02  0.12123581050E+03  0.00000000000E+00 0. -1.
          1    1    1    2  502    0 -0.62982303620E+02 -0.87376107593E+02  0.65154852372E+03  0.66039142447E+03  0.00000000000E+00 0. -1.
         22    1    3    3    0    0  0.22186367485E+01  0.48936571377E+02  0.33399988332E+03  0.33757315122E+03  0.00000000000E+00 0.  1.
         22    1    3    3    0    0  0.11351783182E+03 -0.25267811239E+02  0.14800826626E+04  0.14846445529E+04  0.00000000000E+00 0.  1.
</event>
<event>
 7    1  0.6510186E-006  0.3671876E+02  0.7818608E-02  0.1538998E+00
          2   -1    0    0  502    0  0.00000000000E+00  0.00000000000E+00  0.34208834931E+03  0.34208834931E+03  0.00000000000E+00 0. -1.
          1   -1    0    0  501    0 -0.00000000000E+00 -0.00000000000E+00 -0.13084733617E+03  0.13084733617E+03  0.00000000000E+00 0. -1.
         25    2    1    2    0    0 -0.19923605596E+01  0.15299800931E+02  0.96481235882E+02  0.15866176383E+03  0.12500749183E+03 0.  0.
          2    1    1    2  501    0 -0.33460959611E+02 -0.17161431908E+02 -0.94665262708E+02  0.10186099610E+03  0.00000000000E+00 0. -1.
          1    1    1    2  502    0  0.35453320171E+02  0.18616309771E+01  0.20942503996E+03  0.21241292556E+03  0.00000000000E+00 0. -1.
         22    1    3    3    0    0 -0.82627084090E+01 -0.24040646867E+02 -0.22027318974E+02  0.33636703662E+02  0.00000000000E+00 0.  1.
         22    1    3    3    0    0  0.62703478494E+01  0.39340447798E+02  0.11850855486E+03  0.12502506016E+03  0.00000000000E+00 0.  1.
</event>
<event>
 7    1  0.6510186E-006  0.2331142E+03  0.7818608E-02  0.1236174E+00
          2   -1    0    0  502    0  0.00000000000E+00  0.00000000000E+00  0.99480415696E+03  0.99480415696E+03  0.00000000000E+00 0. -1.
          1   -1    0    0  501    0 -0.00000000000E+00 -0.00000000000E+00 -0.16056998072E+03  0.16056998072E+03  0.00000000000E+00 0. -1.
         25    2    1    2    0    0 -0.19262093620E+03  0.63289487437E+02  0.27947070741E+03  0.36720247556E+03  0.12500158989E+03 0.  0.
          2    1    1    2  501    0  0.21224526057E+03 -0.12659116742E+03  0.18492647401E+02  0.24782121037E+03  0.00000000000E+00 0. -1.
          1    1    1    2  502    0 -0.19624324364E+02  0.63301679979E+02  0.53627082143E+03  0.54035045176E+03  0.00000000000E+00 0. -1.
         22    1    3    3    0    0 -0.30565079459E+02  0.69360787210E+02  0.96501570953E+02  0.12270980434E+03  0.00000000000E+00 0.  1.
         22    1    3    3    0    0 -0.16205585674E+03 -0.60712997732E+01  0.18296913645E+03  0.24449267122E+03  0.00000000000E+00 0.  1.
</event>
<event>
 7    1  0.6510186E-006  0.7733897E+02  0.7818608E-02  0.1447124E+00
          2   -1    0    0  502    0  0.00000000000E+00  0.00000000000E+00  0.14282048177E+04  0.14282048177E+04  0.00000000000E+00 0. -1.
          1   -1    0    0  501    0 -0.00000000000E+00 -0.00000000000E+00 -0.13200388912E+02  0.13200388912E+02  0.00000000000E+00 0. -1.
         25    2    1    2    0    0 -0.32971263296E+02  0.60966084498E+02  0.96090086148E+03  0.97147456907E+03  0.12501361959E+03 0.  0.
          2    1    1    2  501    0 -0.31898518902E+02 -0.42312565250E+00  0.13517856217E+03  0.13889182199E+03  0.00000000000E+00 0. -1.
          1    1    1    2  502    0  0.64869782198E+02 -0.60542958846E+02  0.31892500513E+03  0.33103881556E+03  0.00000000000E+00 0. -1.
         22    1    3    3    0    0  0.29625462135E+02 -0.23437211567E+02  0.26907767045E+03  0.27171632934E+03  0.00000000000E+00 0. -1.
         22    1    3    3    0    0 -0.62596725430E+02  0.84403296066E+02  0.69182319103E+03  0.69975823973E+03  0.00000000000E+00 0. -1.
</event>
<event>
 7    1  0.6510186E-006  0.1052746E+03  0.7818608E-02  0.1358964E+00
          2   -1    0    0  502    0  0.00000000000E+00  0.00000000000E+00  0.54528904573E+03  0.54528904573E+03  0.00000000000E+00 0. -1.
          1   -1    0    0  501    0 -0.00000000000E+00 -0.00000000000E+00 -0.16347844623E+04  0.16347844623E+04  0.00000000000E+00 0. -1.
         25    2    1    2    0    0 -0.61412568513E+02  0.26315376628E+01 -0.47979339364E+02  0.14732716384E+03  0.12499939055E+03 0.  0.
          2    1    1    2  501    0 -0.46409542046E+02 -0.73559319045E+01 -0.15308909617E+04  0.15316119261E+04  0.00000000000E+00 0. -1.
          1    1    1    2  502    0  0.10782211056E+03  0.47243942417E+01  0.48937488453E+03  0.50113441813E+03  0.00000000000E+00 0. -1.
         22    1    3    3    0    0 -0.74002914317E+02 -0.85256076209E+01 -0.81136554618E+02  0.11014652881E+03  0.00000000000E+00 0.  1.
         22    1    3    3    0    0  0.12590345804E+02  0.11157145284E+02  0.33157215254E+02  0.37180635037E+02  0.00000000000E+00 0.  1.
</event>
<event>
 7    1  0.1386483E-005  0.7155242E+02  0.7818608E-02  0.1359609E+00
          2   -1    0    0  502    0  0.00000000000E+00  0.00000000000E+00  0.82929387294E+03  0.82929387294E+03  0.00000000000E+00 0. -1.
          1   -1    0    0  501    0 -0.00000000000E+00 -0.00000000000E+00 -0.19904074320E+04  0.19904074320E+04  0.00000000000E+00 0. -1.
         25    2    1    2    0    0  0.24127929543E+02 -0.27202942547E+02 -0.10906180210E+04  0.10983635637E+04  0.12503076909E+03 0.  0.
          2    1    1    2  501    0 -0.58945891448E+02 -0.35403574218E+02 -0.89303820485E+03  0.89568145370E+03  0.00000000000E+00 0. -1.
          1    1    1    2  502    0  0.34817961906E+02  0.62606516764E+02  0.82254266682E+03  0.82565628754E+03  0.00000000000E+00 0. -1.
         22    1    3    3    0    0  0.31312963121E+02 -0.40352720337E+02 -0.16728311787E+03  0.17490707596E+03  0.00000000000E+00 0. -1.
         22    1    3    3    0    0 -0.71850335786E+01  0.13149777790E+02 -0.92333490313E+03  0.92345648772E+03  0.00000000000E+00 0. -1.
</event>
<event>
 7    1  0.6510186E-006  0.3513813E+02  0.7818608E-02  0.1572819E+00
          2   -1    0    0  502    0  0.00000000000E+00  0.00000000000E+00  0.45362997164E+03  0.45362997164E+03  0.00000000000E+00 0. -1.
          1   -1    0    0  501    0 -0.00000000000E+00 -0.00000000000E+00 -0.57079470597E+03  0.57079470597E+03  0.00000000000E+00 0. -1.
         25    2    1    2    0    0  0.31622588076E+01  0.69569024928E+01 -0.12953814185E+03  0.18017433502E+03  0.12499704970E+03 0.  0.
          2    1    1    2  501    0 -0.30360415365E+02 -0.19390204787E+02 -0.41463452119E+03  0.41619649328E+03  0.00000000000E+00 0. -1.
          1    1    1    2  502    0  0.27198156558E+02  0.12433302294E+02  0.42700792870E+03  0.42805384930E+03  0.00000000000E+00 0. -1.
         22    1    3    3    0    0 -0.38632812085E+02 -0.31327713217E+02 -0.10913453105E+03  0.11993442230E+03  0.00000000000E+00 0. -1.
         22    1    3    3    0    0  0.41795070893E+02  0.38284615709E+02 -0.20403610793E+02  0.60239912718E+02  0.00000000000E+00 0. -1.
</event>
<event>
 7    1  0.7514861E-006  0.1609342E+03  0.7818608E-02  0.1274317E+00
          2   -1    0    0  502    0  0.00000000000E+00  0.00000000000E+00  0.19001495850E+04  0.19001495850E+04  0.00000000000E+00 0. -1.
          1   -1    0    0  501    0 -0.00000000000E+00 -0.00000000000E+00 -0.76000209017E+03  0.76000209017E+03  0.00000000000E+00 0. -1.
         25    2    1    2    0    0 -0.11507103833E+03  0.73043902267E+02 -0.15988726229E+03  0.24447118567E+03  0.12500187383E+03 0.  0.
          2    1    1    2  501    0 -0.44592706583E+02 -0.48373281812E+02 -0.55235470152E+03  0.55625911244E+03  0.00000000000E+00 0. -1.
          1    1    1    2  502    0  0.15966374491E+03 -0.24670620454E+02  0.18523894587E+04  0.18594213771E+04  0.00000000000E+00 0. -1.
         22    1    3    3    0    0 -0.56502110221E+02 -0.31297055093E+02 -0.66317576618E+02  0.92574375966E+02  0.00000000000E+00 0.  1.
         22    1    3    3    0    0 -0.58568928106E+02  0.10434095736E+03 -0.93569685671E+02  0.15189680971E+03  0.00000000000E+00 0.  1.
</event>
<event>
 7    1  0.6510186E-006  0.1428934E+03  0.7818608E-02  0.1333187E+00
          2   -1    0    0  502    0  0.00000000000E+00  0.00000000000E+00  0.80630761048E+03  0.80630761048E+03  0.00000000000E+00 0. -1.
          1   -1    0    0  501    0 -0.00000000000E+00 -0.00000000000E+00 -0.20810325580E+03  0.20810325580E+03  0.00000000000E+00 0. -1.
         25    2    1    2    0    0 -0.24195655002E+01  0.15444913843E+03  0.22340273552E+03  0.29899043780E+03  0.12500443592E+03 0.  0.
          2    1    1    2  501    0 -0.38631279188E+02 -0.19316128793E+02 -0.15821815121E+03  0.16400753622E+03  0.00000000000E+00 0. -1.
          1    1    1    2  502    0  0.41050844688E+02 -0.13513300964E+03  0.53301977037E+03  0.55141289226E+03  0.00000000000E+00 0. -1.
         22    1    3    3    0    0  0.75866348066E+01  0.14340426621E+03  0.23810333085E+03  0.27805671500E+03  0.00000000000E+00 0. -1.
         22    1    3    3    0    0 -0.10006200307E+02  0.11044872218E+02 -0.14700595335E+02  0.20933722796E+02  0.00000000000E+00 0. -1.
</event>
<event>
 7    1  0.6510186E-006  0.4747985E+02  0.7818608E-02  0.1530085E+00
          2   -1    0    0  502    0  0.00000000000E+00  0.00000000000E+00  0.26590529590E+03  0.26590529590E+03  0.00000000000E+00 0. -1.
          1   -1    0    0  501    0 -0.00000000000E+00 -0.00000000000E+00 -0.33222032239E+03  0.33222032239E+03  0.00000000000E+00 0. -1.
         25    2    1    2    0    0 -0.29356302829E+02 -0.53898581086E+02  0.10477300992E+03  0.17426525536E+03  0.12499658419E+03 0.  0.
          2    1    1    2  501    0  0.28143154511E+02  0.74331506003E+01 -0.29245349517E+03  0.29389851260E+03  0.00000000000E+00 0. -1.
          1    1    1    2  502    0  0.12131483177E+01  0.46465430486E+02  0.12136545875E+03  0.12996185032E+03  0.00000000000E+00 0. -1.
         22    1    3    3    0    0  0.22023237984E+02  0.11552902045E+02 -0.14535974233E+02  0.28806025478E+02  0.00000000000E+00 0. -1.
         22    1    3    3    0    0 -0.51379540813E+02 -0.65451483131E+02  0.11930898416E+03  0.14545922988E+03  0.00000000000E+00 0. -1.
</event>
<event>
 7    1  0.6510186E-006  0.8135176E+02  0.7818608E-02  0.1458285E+00
          2   -1    0    0  502    0  0.00000000000E+00  0.00000000000E+00  0.47953163132E+04  0.47953163132E+04  0.00000000000E+00 0. -1.
          1   -1    0    0  501    0 -0.00000000000E+00 -0.00000000000E+00 -0.12471248678E+02  0.12471248678E+02  0.00000000000E+00 0. -1.
         25    2    1    2    0    0  0.68396589735E+01  0.10407667739E+03  0.69554593967E+03  0.71434038035E+03  0.12497715431E+03 0.  0.
          2    1    1    2  501    0  0.11042376797E+02 -0.25667978364E+02  0.70393005343E+02  0.75736083869E+02  0.00000000000E+00 0. -1.
          1    1    1    2  502    0 -0.17882035771E+02 -0.78408699025E+02  0.40169061196E+04  0.40177110977E+04  0.00000000000E+00 0. -1.
         22    1    3    3    0    0  0.64135946564E+00  0.84857777507E+02  0.18655287357E+03  0.20494689161E+03  0.00000000000E+00 0. -1.
         22    1    3    3    0    0  0.61982995079E+01  0.19218899881E+02  0.50899306610E+03  0.50939348874E+03  0.00000000000E+00 0. -1.
</event>
<event>
 7    1  0.6510186E-006  0.1342151E+03  0.7818608E-02  0.1337207E+00
          2   -1    0    0  502    0  0.00000000000E+00  0.00000000000E+00  0.30626429488E+03  0.30626429488E+03  0.00000000000E+00 0. -1.
          1   -1    0    0  501    0 -0.00000000000E+00 -0.00000000000E+00 -0.23992839842E+04  0.23992839842E+04  0.00000000000E+00 0. -1.
         25    2    1    2    0    0  0.31262024926E+02  0.16815095620E+03  0.45408205116E+02  0.21665368110E+03  0.12499941666E+03 0.  0.
          2    1    1    2  501    0 -0.33016737178E+01 -0.13366223958E+03 -0.23088835344E+04  0.23127515368E+04  0.00000000000E+00 0. -1.
          1    1    1    2  502    0 -0.27960351209E+02 -0.34488716630E+02  0.17045563998E+03  0.17614306122E+03  0.00000000000E+00 0. -1.
         22    1    3    3    0    0  0.34245375705E+02  0.16484204285E+03  0.76726169849E+02  0.18502040424E+03  0.00000000000E+00 0. -1.
         22    1    3    3    0    0 -0.29833507787E+01  0.33089133593E+01 -0.31317964732E+02  0.31633276853E+02  0.00000000000E+00 0. -1.
</event>
<event>
 7    1  0.6510186E-006  0.1135597E+03  0.7818608E-02  0.1374801E+00
          2   -1    0    0  502    0  0.00000000000E+00  0.00000000000E+00  0.10627392466E+04  0.10627392466E+04  0.00000000000E+00 0. -1.
          1   -1    0    0  501    0 -0.00000000000E+00 -0.00000000000E+00 -0.81537270797E+02  0.81537270797E+02  0.00000000000E+00 0. -1.
         25    2    1    2    0    0 -0.57076591044E+02 -0.95470771541E+02  0.66194998479E+03  0.68277306554E+03  0.12501548384E+03 0.  0.
          2    1    1    2  501    0  0.22594375828E+02  0.11187382883E+03 -0.23587077811E+02  0.11654445347E+03  0.00000000000E+00 0. -1.
          1    1    1    2  502    0  0.34482215216E+02 -0.16403057287E+02  0.34283906881E+03  0.34495899837E+03  0.00000000000E+00 0. -1.
         22    1    3    3    0    0  0.76505459557E+01 -0.20404511779E+02  0.42975466999E+03  0.43030681070E+03  0.00000000000E+00 0.  1.
         22    1    3    3    0    0 -0.64727137000E+02 -0.75066259763E+02  0.23219531480E+03  0.25246625484E+03  0.00000000000E+00 0.  1.
</event>
<event>
 7    1  0.6510186E-006  0.1509343E+03  0.7818608E-02  0.1306355E+00
          2   -1    0    0  502    0  0.00000000000E+00  0.00000000000E+00  0.25098509641E+04  0.25098509641E+04  0.00000000000E+00 0. -1.
          1   -1    0    0  501    0 -0.00000000000E+00 -0.00000000000E+00 -0.12395383931E+04  0.12395383931E+04  0.00000000000E+00 0. -1.
         25    2    1    2    0    0 -0.15492320333E+03  0.24378019141E+02  0.21631188408E+03  0.29497418026E+03  0.12499379616E+03 0.  0.
          2    1    1    2  501    0  0.13298632728E+03 -0.71493844217E+02 -0.11951573602E+04  0.12046567347E+04  0.00000000000E+00 0. -1.
          1    1    1    2  502    0  0.21936876047E+02  0.47115825076E+02  0.22491580471E+04  0.22497584422E+04  0.00000000000E+00 0. -1.
         22    1    3    3    0    0 -0.16760424365E+03  0.18207529834E+02  0.22284433123E+03  0.27943208941E+03  0.00000000000E+00 0. -1.
         22    1    3    3    0    0  0.12681040325E+02  0.61704893067E+01 -0.65324471524E+01  0.15542090844E+02  0.00000000000E+00 0. -1.
</event>
<event>
 7    1  0.6510186E-006  0.8029926E+02  0.7818608E-02  0.1433145E+00
          2   -1    0    0  502    0  0.00000000000E+00  0.00000000000E+00  0.76717522484E+02  0.76717522484E+02  0.00000000000E+00 0. -1.
          1   -1    0    0  501    0 -0.00000000000E+00 -0.00000000000E+00 -0.41162785162E+03  0.41162785162E+03  0.00000000000E+00 0. -1.
         25    2    1    2    0    0  0.54554872110E+02 -0.25489356910E+02 -0.15955440431E+03  0.21144510151E+03  0.12500192650E+03 0.  0.
          2    1    1    2  501    0  0.63967829308E+01 -0.33502591012E+02 -0.18806173996E+03  0.19112969542E+03  0.00000000000E+00 0. -1.
          1    1    1    2  502    0 -0.60951655040E+02  0.58991947922E+02  0.12705815128E+02  0.85770577180E+02  0.00000000000E+00 0. -1.
         22    1    3    3    0    0  0.11366524600E+01 -0.68131178277E+02 -0.60662510648E+02  0.91230968592E+02  0.00000000000E+00 0.  1.
         22    1    3    3    0    0  0.53418219650E+02  0.42641821367E+02 -0.98891893663E+02  0.12021413291E+03  0.00000000000E+00 0.  1.
</event>
<event>
 7    1  0.6510186E-006  0.6864540E+02  0.7818608E-02  0.1408337E+00
          2   -1    0    0  502    0  0.00000000000E+00  0.00000000000E+00  0.13822690290E+03  0.13822690290E+03  0.00000000000E+00 0. -1.
          1   -1    0    0  501    0 -0.00000000000E+00 -0.00000000000E+00 -0.20829523109E+04  0.20829523109E+04  0.00000000000E+00 0. -1.
         25    2    1    2    0    0  0.54474947966E+02  0.19892606866E+02 -0.25881303046E+03  0.29321149270E+03  0.12500223579E+03 0.  0.
          2    1    1    2  501    0 -0.23257647104E+02  0.42304006881E+02 -0.17965851487E+04  0.17972336364E+04  0.00000000000E+00 0. -1.
          1    1    1    2  502    0 -0.31217300862E+02 -0.62196613747E+02  0.11067277116E+03  0.13073408473E+03  0.00000000000E+00 0. -1.
         22    1    3    3    0    0 -0.13665708630E+02 -0.88541139139E+01 -0.19456594437E+03  0.19524613603E+03  0.00000000000E+00 0.  1.
         22    1    3    3    0    0  0.68140656597E+02  0.28746720780E+02 -0.64247086095E+02  0.97965356676E+02  0.00000000000E+00 0.  1.
</event>
<event>
 7    1  0.6510186E-006  0.6928874E+02  0.7818608E-02  0.1391109E+00
          2   -1    0    0  502    0  0.00000000000E+00  0.00000000000E+00  0.19201751252E+03  0.19201751252E+03  0.00000000000E+00 0. -1.
          1   -1    0    0  501    0 -0.00000000000E+00 -0.00000000000E+00 -0.47962720059E+03  0.47962720059E+03  0.00000000000E+00 0. -1.
         25    2    1    2    0    0  0.36373304978E+02 -0.41099096285E+02 -0.52340630191E+02  0.14620789752E+03  0.12500021880E+03 0.  0.
          2    1    1    2  501    0 -0.45515217709E+02 -0.30556223090E+02 -0.36921041326E+03  0.37325815071E+03  0.00000000000E+00 0. -1.
          1    1    1    2  502    0  0.91419127308E+01  0.71655319376E+02  0.13394135538E+03  0.15217866488E+03  0.00000000000E+00 0. -1.
         22    1    3    3    0    0  0.10183767787E+02 -0.47125062570E+02 -0.88722995634E+02  0.10097648540E+03  0.00000000000E+00 0. -1.
         22    1    3    3    0    0  0.26189537191E+02  0.60259662841E+01  0.36382365443E+02  0.45231412129E+02  0.00000000000E+00 0. -1.
</event>
<event>
 7    1  0.6510186E-006  0.1464970E+03  0.7818608E-02  0.1369719E+00
          2   -1    0    0  502    0  0.00000000000E+00  0.00000000000E+00  0.47916298083E+04  0.47916298083E+04  0.00000000000E+00 0. -1.
          1   -1    0    0  501    0 -0.00000000000E+00 -0.00000000000E+00 -0.96158572357E+02  0.96158572357E+02  0.00000000000E+00 0. -1.
         25    2    1    2    0    0 -0.15700833710E+03  0.47534194720E+02  0.82991153163E+03  0.85515462736E+03  0.12500067509E+03 0.  0.
          2    1    1    2  501    0  0.26645150596E+02  0.15582562763E+02 -0.79310537974E+02  0.85105474244E+02  0.00000000000E+00 0. -1.
          1    1    1    2  502    0  0.13036318650E+03 -0.63116757483E+02  0.39448702422E+04  0.39475282790E+04  0.00000000000E+00 0. -1.
         22    1    3    3    0    0 -0.16610545577E+03  0.28420617068E+02  0.80506560605E+03  0.82251406308E+03  0.00000000000E+00 0.  1.
         22    1    3    3    0    0  0.90971186699E+01  0.19113577652E+02  0.24845925578E+02  0.32640564281E+02  0.00000000000E+00 0.  1.
</event>
<event>
 7    1  0.6510186E-006  0.1486322E+03  0.7818608E-02  0.1258720E+00
          2   -1    0    0  502    0  0.00000000000E+00  0.00000000000E+00  0.15740660545E+04  0.15740660545E+04  0.00000000000E+00 0. -1.
          1   -1    0    0  501    0 -0.00000000000E+00 -0.00000000000E+00 -0.77404359775E+03  0.77404359775E+03  0.00000000000E+00 0. -1.
         25    2    1    2    0    0 -0.18622266287E+03  0.17305045559E+02  0.21434854590E+02  0.22597088239E+03  0.12500016772E+03 0.  0.
          2    1    1    2  501    0  0.13832820118E+03  0.50364195312E+02 -0.66250500354E+03  0.67866348298E+03  0.00000000000E+00 0. -1.
          1    1    1    2  502    0  0.47894461692E+02 -0.67669240871E+02  0.14410926057E+04  0.14434752868E+04  0.00000000000E+00 0. -1.
         22    1    3    3    0    0 -0.33258364724E+02  0.28830293369E+02  0.53478183035E+02  0.69261971533E+02  0.00000000000E+00 0.  1.
         22    1    3    3    0    0 -0.15296429815E+03 -0.11525247810E+02 -0.32043328446E+02  0.15670891086E+03  0.00000000000E+00 0.  1.
</event>
<event>
 7    1  0.6510186E-006  0.8960336E+02  0.7818608E-02  0.1412120E+00
          2   -1    0    0  502    0  0.00000000000E+00  0.00000000000E+00  0.27071936166E+04  0.27071936166E+04  0.00000000000E+00 0. -1.
          1   -1    0    0  501    0 -0.00000000000E+00 -0.00000000000E+00 -0.21181045341E+04  0.21181045341E+04  0.00000000000E+00 0. -1.
         25    2    1    2    0    0  0.67676164162E+02  0.80293965418E+02 -0.62679794613E+02  0.17487395274E+03  0.12499983446E+03 0.  0.
          2    1    1    2  501    0 -0.76932742672E+02 -0.45598722492E+02 -0.19982058859E+04  0.20002061525E+04  0.00000000000E+00 0. -1.
          1    1    1    2  502    0  0.92565785093E+01 -0.34695242925E+02  0.26499747629E+04  0.26502180454E+04  0.00000000000E+00 0. -1.
         22    1    3    3    0    0 -0.69216059236E+01 -0.35575323152E+01  0.28956437358E+02  0.29983994551E+02  0.00000000000E+00 0.  1.
         22    1    3    3    0    0  0.74597770086E+02  0.83851497733E+02 -0.91636231971E+02  0.14488995819E+03  0.00000000000E+00 0.  1.
</event>
<event>
 7    1  0.6510186E-006  0.1162857E+03  0.7818608E-02  0.1265361E+00
          2   -1    0    0  502    0  0.00000000000E+00  0.00000000000E+00  0.68035407676E+03  0.68035407676E+03  0.00000000000E+00 0. -1.
          1   -1    0    0  501    0 -0.00000000000E+00 -0.00000000000E+00 -0.21953133511E+03  0.21953133511E+03  0.00000000000E+00 0. -1.
         25    2    1    2    0    0 -0.11396425355E+03  0.91167489552E+02  0.12428148307E+03  0.22884923114E+03  0.12500688509E+03 0.  0.
          2    1    1    2  501    0 -0.25681269097E+01 -0.99257241785E+02 -0.14488415692E+03  0.17564172126E+03  0.00000000000E+00 0. -1.
          1    1    1    2  502    0  0.11653238046E+03  0.80897522330E+01  0.48142541550E+03  0.49539445947E+03  0.00000000000E+00 0. -1.
         22    1    3    3    0    0 -0.31764670786E+02  0.48853152512E+02 -0.16375440056E+02  0.60529165346E+02  0.00000000000E+00 0.  1.
         22    1    3    3    0    0 -0.82199582761E+02  0.42314337040E+02  0.14065692312E+03  0.16832006579E+03  0.00000000000E+00 0.  1.
</event>
<event>
 7    1  0.6510186E-006  0.1249148E+03  0.7818608E-02  0.1414690E+00
          2   -1    0    0  502    0  0.00000000000E+00  0.00000000000E+00  0.87812398803E+03  0.87812398803E+03  0.00000000000E+00 0. -1.
          1   -1    0    0  501    0 -0.00000000000E+00 -0.00000000000E+00 -0.45546984833E+02  0.45546984833E+02  0.00000000000E+00 0. -1.
         25    2    1    2    0    0  0.13560326413E+03 -0.27448837542E+02  0.27096357518E+03  0.32891739856E+03  0.12499484821E+03 0.  0.
          2    1    1    2  501    0 -0.11099146547E+03  0.33086004897E+02  0.19163532552E+03  0.22391491043E+03  0.00000000000E+00 0. -1.
          1    1    1    2  502    0 -0.24611798659E+02 -0.56371673550E+01  0.36997810251E+03  0.37083866387E+03  0.00000000000E+00 0. -1.
         22    1    3    3    0    0  0.31530572534E+02 -0.34935117210E+02  0.10339361624E+02  0.48182380780E+02  0.00000000000E+00 0. -1.
         22    1    3    3    0    0  0.10407269160E+03  0.74862796682E+01  0.26062421355E+03  0.28073501778E+03  0.00000000000E+00 0. -1.
</event>
<event>
 7    1  0.6510186E-006  0.6062843E+02  0.7818608E-02  0.1435207E+00
          2   -1    0    0  502    0  0.00000000000E+00  0.00000000000E+00  0.80424747437E+03  0.80424747437E+03  0.00000000000E+00 0. -1.
          1   -1    0    0  501    0 -0.00000000000E+00 -0.00000000000E+00 -0.49168975957E+02  0.49168975957E+02  0.00000000000E+00 0. -1.
         25    2    1    2    0    0 -0.45732022573E+02  0.16772845554E+02  0.10105279348E+03  0.16795709841E+03  0.12500069440E+03 0.  0.
          2    1    1    2  501    0  0.40323655950E+02 -0.60920324418E+02  0.74903974950E+02  0.10463215863E+03  0.00000000000E+00 0. -1.
          1    1    1    2  502    0  0.54083666230E+01  0.44147478864E+02  0.57912172998E+03  0.58082719328E+03  0.00000000000E+00 0. -1.
         22    1    3    3    0    0 -0.66702913574E+02 -0.12843946136E+02  0.11117276676E+03  0.13028288337E+03  0.00000000000E+00 0.  1.
         22    1    3    3    0    0  0.20970891001E+02  0.29616791690E+02 -0.10119973280E+02  0.37674215036E+02  0.00000000000E+00 0.  1.
</event>
<event>
 7    1  0.6510186E-006  0.8224022E+02  0.7818608E-02  0.1329488E+00
          2   -1    0    0  502    0  0.00000000000E+00  0.00000000000E+00  0.18763370715E+03  0.18763370715E+03  0.00000000000E+00 0. -1.
          1   -1    0    0  501    0 -0.00000000000E+00 -0.00000000000E+00 -0.14212232954E+04  0.14212232954E+04  0.00000000000E+00 0. -1.
         25    2    1    2    0    0 -0.11988588301E+03  0.73863342354E+02 -0.23629517474E+03  0.30214074637E+03  0.12500081087E+03 0.  0.
          2    1    1    2  501    0  0.42578576949E+02 -0.68098254903E+02 -0.11407929849E+04  0.11436166062E+04  0.00000000000E+00 0. -1.
          1    1    1    2  502    0  0.77307306063E+02 -0.57650874507E+01  0.14349857145E+03  0.16309964994E+03  0.00000000000E+00 0. -1.
         22    1    3    3    0    0 -0.10137265365E+03  0.17949094388E+02 -0.66847837065E+02  0.12274859762E+03  0.00000000000E+00 0.  1.
         22    1    3    3    0    0 -0.18513229365E+02  0.55914247966E+02 -0.16944733768E+03  0.17939214875E+03  0.00000000000E+00 0.  1.
</event>
<event>
 7    1  0.6510186E-006  0.4445115E+02  0.7818608E-02  0.1532229E+00
          2   -1    0    0  502    0  0.00000000000E+00  0.00000000000E+00  0.12210365320E+02  0.12210365320E+02  0.00000000000E+00 0. -1.
          1   -1    0    0  501    0 -0.00000000000E+00 -0.00000000000E+00 -0.16915145475E+04  0.16915145475E+04  0.00000000000E+00 0. -1.
         25    2    1    2    0    0 -0.54448933202E+02 -0.45276964703E+02 -0.84950236244E+03  0.86156460021E+03  0.12499842669E+03 0.  0.
          2    1    1    2  501    0  0.37049090284E+02  0.20038038009E+02 -0.79362405980E+03  0.79474103099E+03  0.00000000000E+00 0. -1.
          1    1    1    2  502    0  0.17399842918E+02  0.25238926694E+02 -0.36177759918E+02  0.47419281594E+02  0.00000000000E+00 0. -1.
         22    1    3    3    0    0 -0.41542363317E+02 -0.61473455290E+02 -0.82936915611E+03  0.83268118194E+03  0.00000000000E+00 0. -1.
         22    1    3    3    0    0 -0.12906569884E+02  0.16196490587E+02 -0.20133206337E+02  0.28883418269E+02  0.00000000000E+00 0. -1.
</event>
<event>
 7    1  0.6510186E-006  0.1144665E+03  0.7818608E-02  0.1405172E+00
          2   -1    0    0  502    0  0.00000000000E+00  0.00000000000E+00  0.28955363935E+04  0.28955363935E+04  0.00000000000E+00 0. -1.
          1   -1    0    0  501    0 -0.00000000000E+00 -0.00000000000E+00 -0.62449829853E+03  0.62449829853E+03  0.00000000000E+00 0. -1.
         25    2    1    2    0    0  0.76623602658E+02 -0.10586643467E+03 -0.46707231421E+02  0.18676973545E+03  0.12498996016E+03 0.  0.
          2    1    1    2  501    0  0.77039733530E+01  0.28660954446E+02 -0.50616838458E+03  0.50703770576E+03  0.00000000000E+00 0. -1.
          1    1    1    2  502    0 -0.84327576011E+02  0.77205480224E+02  0.28239137109E+04  0.28262272508E+04  0.00000000000E+00 0. -1.
         22    1    3    3    0    0  0.10238394874E+03 -0.62979788981E+02 -0.60922419609E+02  0.13476078061E+03  0.00000000000E+00 0.  1.
         22    1    3    3    0    0 -0.25760346082E+02 -0.42886645689E+02  0.14215188188E+02  0.52008954844E+02  0.00000000000E+00 0.  1.
</event>
<event>
 7    1  0.6510186E-006  0.2726499E+02  0.7818608E-02  0.1651200E+00
          2   -1    0    0  502    0  0.00000000000E+00  0.00000000000E+00  0.92425292188E+03  0.92425292188E+03  0.00000000000E+00 0. -1.
          1   -1    0    0  501    0 -0.00000000000E+00 -0.00000000000E+00 -0.17599618679E+02  0.17599618679E+02  0.00000000000E+00 0. -1.
         25    2    1    2    0    0 -0.40829587448E+02 -0.74289420058E+01  0.45513058275E+03  0.47380545859E+03  0.12500208337E+03 0.  0.
          2    1    1    2  501    0  0.21442314212E+02 -0.11256829698E+02  0.10823698608E+02  0.26526241821E+02  0.00000000000E+00 0. -1.
          1    1    1    2  502    0  0.19387273237E+02  0.18685771704E+02  0.44069902184E+03  0.44152084014E+03  0.00000000000E+00 0. -1.
         22    1    3    3    0    0  0.10252794416E+02 -0.46989377747E+02  0.32477255313E+03  0.32831438086E+03  0.00000000000E+00 0.  1.
         22    1    3    3    0    0 -0.51082381865E+02  0.39560435741E+02  0.13035802962E+03  0.14549107773E+03  0.00000000000E+00 0.  1.
</event>
<event>
 7    1  0.6510186E-006  0.9743576E+02  0.7818608E-02  0.1306975E+00
          2   -1    0    0  502    0  0.00000000000E+00  0.00000000000E+00  0.12913228258E+04  0.12913228258E+04  0.00000000000E+00 0. -1.
          1   -1    0    0  501    0 -0.00000000000E+00 -0.00000000000E+00 -0.25680715164E+03  0.25680715164E+03  0.00000000000E+00 0. -1.
         25    2    1    2    0    0  0.15930039302E+02  0.14142427702E+02  0.26484367420E+03  0.29363298467E+03  0.12499753401E+03 0.  0.
          2    1    1    2  501    0 -0.53744310216E+02 -0.84703020296E+02 -0.23036597660E+03  0.25125989672E+03  0.00000000000E+00 0. -1.
          1    1    1    2  502    0  0.37814270913E+02  0.70560592594E+02  0.10000379765E+04  0.10032370960E+04  0.00000000000E+00 0. -1.
         22    1    3    3    0    0  0.58104343357E+02 -0.11937694941E+02  0.66174172435E+02  0.88868691759E+02  0.00000000000E+00 0.  1.
         22    1    3    3    0    0 -0.42174304055E+02  0.26080122642E+02  0.19866950176E+03  0.20476429291E+03  0.00000000000E+00 0.  1.
</event>
<event>
 7    1  0.6510186E-006  0.2531954E+02  0.7818608E-02  0.1659684E+00
          2   -1    0    0  502    0  0.00000000000E+00  0.00000000000E+00  0.20110367045E+03  0.20110367045E+03  0.00000000000E+00 0. -1.
          1   -1    0    0  501    0 -0.00000000000E+00 -0.00000000000E+00 -0.32998749657E+03  0.32998749657E+03  0.00000000000E+00 0. -1.
         25    2    1    2    0    0 -0.75105881303E+01  0.88549051798E+01 -0.63607051143E+02  0.14073206485E+03  0.12499935537E+03 0.  0.
          2    1    1    2  501    0  0.23702013053E+02  0.10017774496E+02 -0.22613292599E+03  0.22759227018E+03  0.00000000000E+00 0. -1.
          1    1    1    2  502    0 -0.16191424923E+02 -0.18872679675E+02  0.16085615101E+03  0.16276683199E+03  0.00000000000E+00 0. -1.
         22    1    3    3    0    0  0.90580037134E+01 -0.52642036557E+02 -0.54644026406E+02  0.76414665255E+02  0.00000000000E+00 0.  1.
         22    1    3    3    0    0 -0.16568591844E+02  0.61496941737E+02 -0.89630247378E+01  0.64317399599E+02  0.00000000000E+00 0.  1.
</event>
<event>
 7    1  0.6510186E-006  0.5676110E+02  0.7818608E-02  0.1464217E+00
          2   -1    0    0  502    0  0.00000000000E+00  0.00000000000E+00  0.27570635314E+04  0.27570635314E+04  0.00000000000E+00 0. -1.
          1   -1    0    0  501    0 -0.00000000000E+00 -0.00000000000E+00 -0.78920628270E+01  0.78920628270E+01  0.00000000000E+00 0. -1.
         25    2    1    2    0    0  0.34770603712E+02  0.74839711591E+02  0.16756341551E+04  0.16823166885E+04  0.12501856407E+03 0.  0.
          2    1    1    2  501    0 -0.40252735788E+02 -0.36871593173E+02  0.17574652116E+03  0.18402890214E+03  0.00000000000E+00 0. -1.
          1    1    1    2  502    0  0.54821320764E+01 -0.37968118418E+02  0.89779079238E+03  0.89861000366E+03  0.00000000000E+00 0. -1.
         22    1    3    3    0    0  0.42633092058E+02  0.55802807786E+02  0.16372523787E+04  0.16387577263E+04  0.00000000000E+00 0. -1.
         22    1    3    3    0    0 -0.78624883463E+01  0.19036903805E+02  0.38381776355E+02  0.43558962173E+02  0.00000000000E+00 0. -1.
</event>
<event>
 7    1  0.6510186E-006  0.6147489E+02  0.7818608E-02  0.1456174E+00
          2   -1    0    0  502    0  0.00000000000E+00  0.00000000000E+00  0.13095255647E+04  0.13095255647E+04  0.00000000000E+00 0. -1.
          1   -1    0    0  501    0 -0.00000000000E+00 -0.00000000000E+00 -0.52571395442E+03  0.52571395442E+03  0.00000000000E+00 0. -1.
         25    2    1    2    0    0  0.14682306483E+02 -0.19664537459E+02  0.37118833650E+03  0.39243836532E+03  0.12499930106E+03 0.  0.
          2    1    1    2  501    0 -0.29250947483E+02  0.54274239957E+02 -0.51286185179E+03  0.51655453736E+03  0.00000000000E+00 0. -1.
          1    1    1    2  502    0  0.14568640999E+02 -0.34609702499E+02  0.92548512562E+03  0.92624661649E+03  0.00000000000E+00 0. -1.
         22    1    3    3    0    0 -0.10730797970E+02  0.35394364584E+02  0.28303660858E+03  0.28544287145E+03  0.00000000000E+00 0. -1.
         22    1    3    3    0    0  0.25413104454E+02 -0.55058902042E+02  0.88151727920E+02  0.10699549387E+03  0.00000000000E+00 0. -1.
</event>
<event>
 7    1  0.6510186E-006  0.6632282E+02  0.7818608E-02  0.1461194E+00
          2   -1    0    0  502    0  0.00000000000E+00  0.00000000000E+00  0.12621431769E+04  0.12621431769E+04  0.00000000000E+00 0. -1.
          1   -1    0    0  501    0 -0.00000000000E+00 -0.00000000000E+00 -0.10729368868E+04  0.10729368868E+04  0.00000000000E+00 0. -1.
         25    2    1    2    0    0 -0.46190893826E+01  0.96544425016E+02  0.16600310981E+03  0.22918392152E+03  0.12500430164E+03 0.  0.
          2    1    1    2  501    0  0.11522888849E+02 -0.31516977465E+02 -0.10400713834E+04  0.10406125982E+04  0.00000000000E+00 0. -1.
          1    1    1    2  502    0 -0.69037994659E+01 -0.65027447551E+02  0.10632745637E+04  0.10652835441E+04  0.00000000000E+00 0. -1.
         22    1    3    3    0    0  0.80355125939E+00 -0.17600079685E+02  0.90548947342E+02  0.92247061548E+02  0.00000000000E+00 0. -1.
         22    1    3    3    0    0 -0.54226406420E+01  0.11414450470E+03  0.75454162469E+02  0.13693685997E+03  0.00000000000E+00 0. -1.
</event>
<event>
 7    1  0.6510186E-006  0.1582032E+03  0.7818608E-02  0.1386253E+00
          2   -1    0    0  502    0  0.00000000000E+00  0.00000000000E+00  0.47584746407E+02  0.47584746407E+02  0.00000000000E+00 0. -1.
          1   -1    0    0  501    0 -0.00000000000E+00 -0.00000000000E+00 -0.23807122753E+04  0.23807122753E+04  0.00000000000E+00 0. -1.
         25    2    1    2    0    0 -0.15803598755E+03  0.32790192014E+02 -0.12483359156E+04  0.12649179443E+04  0.12499711052E+03 0.  0.
          2    1    1    2  501    0  0.10129947656E+02  0.22820020560E+02 -0.96440863264E+03  0.96473176577E+03  0.00000000000E+00 0. -1.
          1    1    1    2  502    0  0.14790603990E+03 -0.55610212574E+02 -0.12038298065E+03  0.19864731161E+03  0.00000000000E+00 0. -1.
         22    1    3    3    0    0 -0.10213080134E+03  0.53267023700E+02 -0.45509968577E+03  0.46945053029E+03  0.00000000000E+00 0.  1.
         22    1    3    3    0    0 -0.55905186209E+02 -0.20476831686E+02 -0.79323622985E+03  0.79546741406E+03  0.00000000000E+00 0.  1.
</event>
<event>
 7    1  0.6510186E-006  0.8954210E+02  0.7818608E-02  0.1308753E+00
          2   -1    0    0  502    0  0.00000000000E+00  0.00000000000E+00  0.12216117715E+04  0.12216117715E+04  0.00000000000E+00 0. -1.
          1   -1    0    0  501    0 -0.00000000000E+00 -0.00000000000E+00 -0.43740534251E+03  0.43740534251E+03  0.00000000000E+00 0. -1.
         25    2    1    2    0    0 -0.35688107027E+02 -0.46506244884E+02 -0.18024714706E+02  0.13923413557E+03  0.12499912949E+03 0.  0.
          2    1    1    2  501    0 -0.39635544908E+02  0.87410633875E+02 -0.35073773549E+03  0.36363244414E+03  0.00000000000E+00 0. -1.
          1    1    1    2  502    0  0.75323651935E+02 -0.40904388990E+02  0.11529688791E+04  0.11561505342E+04  0.00000000000E+00 0. -1.
         22    1    3    3    0    0  0.23094662795E+02 -0.65416516877E+02 -0.31245245371E+02  0.76085146305E+02  0.00000000000E+00 0. -1.
         22    1    3    3    0    0 -0.58782769821E+02  0.18910271993E+02  0.13220530665E+02  0.63148989270E+02  0.00000000000E+00 0. -1.
</event>
<event>
 7    1  0.6510186E-006  0.7257936E+02  0.7818608E-02  0.1447404E+00
          2   -1    0    0  502    0  0.00000000000E+00  0.00000000000E+00  0.48446074993E+03  0.48446074993E+03  0.00000000000E+00 0. -1.
          1   -1    0    0  501    0 -0.00000000000E+00 -0.00000000000E+00 -0.11000264317E+04  0.11000264317E+04  0.00000000000E+00 0. -1.
         25    2    1    2    0    0  0.18443332983E+02 -0.50510577244E+02  0.27530804271E+03  0.30710074672E+03  0.12499950123E+03 0.  0.
          2    1    1    2  501    0  0.75683940019E+01  0.72285802109E+02 -0.10814121334E+04  0.10838517980E+04  0.00000000000E+00 0. -1.
          1    1    1    2  502    0 -0.26011726985E+02 -0.21775224864E+02  0.19053840898E+03  0.19353463684E+03  0.00000000000E+00 0. -1.
         22    1    3    3    0    0 -0.49799923791E+02 -0.34016651205E+02  0.84728577525E+02  0.10400046547E+03  0.00000000000E+00 0.  1.
         22    1    3    3    0    0  0.68243256773E+02 -0.16493926039E+02  0.19057946519E+03  0.20310028125E+03  0.00000000000E+00 0.  1.
</event>
<event>
 7    1  0.6510186E-006  0.2052220E+03  0.7818608E-02  0.1215211E+00
          2   -1    0    0  502    0  0.00000000000E+00  0.00000000000E+00  0.16765080675E+04  0.16765080675E+04  0.00000000000E+00 0. -1.
          1   -1    0    0  501    0 -0.00000000000E+00 -0.00000000000E+00 -0.18095043968E+04  0.18095043968E+04  0.00000000000E+00 0. -1.
         25    2    1    2    0    0 -0.25492709850E+03 -0.53870964986E+02 -0.18785352209E+03  0.34467928414E+03  0.12499982692E+03 0.  0.
          2    1    1    2  501    0  0.17423806323E+03  0.10134641006E+03 -0.15352733942E+04  0.15484490280E+04  0.00000000000E+00 0. -1.
          1    1    1    2  502    0  0.80689035268E+02 -0.47475445071E+02  0.15901305870E+04  0.15928841521E+04  0.00000000000E+00 0. -1.
         22    1    3    3    0    0 -0.25963786299E+03 -0.69885370539E+02 -0.16201692139E+03  0.31391920574E+03  0.00000000000E+00 0.  1.
         22    1    3    3    0    0  0.47107644882E+01  0.16014405553E+02 -0.25836600702E+02  0.30760078399E+02  0.00000000000E+00 0.  1.
</event>
<event>
 7    1  0.6510186E-006  0.6333551E+02  0.7818608E-02  0.1387345E+00
          2   -1    0    0  502    0  0.00000000000E+00  0.00000000000E+00  0.25237093351E+04  0.25237093351E+04  0.00000000000E+00 0. -1.
          1   -1    0    0  501    0 -0.00000000000E+00 -0.00000000000E+00 -0.28010596631E+04  0.28010596631E+04  0.00000000000E+00 0. -1.
         25    2    1    2    0    0 -0.44271951851E+02 -0.78626260979E+02 -0.32495925614E+03  0.35967418273E+03  0.12499961976E+03 0.  0.
          2    1    1    2  501    0  0.60360581761E+02  0.18938895993E+02 -0.24579547210E+04  0.24587686943E+04  0.00000000000E+00 0. -1.
          1    1    1    2  502    0 -0.16088629910E+02  0.59687364986E+02  0.25055636492E+04  0.25063261212E+04  0.00000000000E+00 0. -1.
         22    1    3    3    0    0 -0.72221656637E+02 -0.34958454942E+01 -0.18087886779E+03  0.19479567099E+03  0.00000000000E+00 0.  1.
         22    1    3    3    0    0  0.27949704786E+02 -0.75130415485E+02 -0.14408038835E+03  0.16487851175E+03  0.00000000000E+00 0.  1.
</event>
<event>
 7    1  0.6510186E-006  0.6066070E+02  0.7818608E-02  0.1475505E+00
          2   -1    0    0  502    0  0.00000000000E+00  0.00000000000E+00  0.27685142385E+03  0.27685142385E+03  0.00000000000E+00 0. -1.
          1   -1    0    0  501    0 -0.00000000000E+00 -0.00000000000E+00 -0.38555657221E+03  0.38555657221E+03  0.00000000000E+00 0. -1.
         25    2    1    2    0    0  0.41683004355E+02 -0.80152623297E+02  0.40593446282E+02  0.15948272275E+03  0.12499998041E+03 0.  0.
          2    1    1    2  501    0 -0.20866611844E+02  0.25703498985E+02 -0.32043120857E+03  0.32213699691E+03  0.00000000000E+00 0. -1.
          1    1    1    2  502    0 -0.20816392511E+02  0.54449124312E+02  0.17113261393E+03  0.18078827640E+03  0.00000000000E+00 0. -1.
         22    1    3    3    0    0  0.64263746337E+02  0.55747944855E+01  0.26417397154E+02  0.69704994794E+02  0.00000000000E+00 0. -1.
         22    1    3    3    0    0 -0.22580741982E+02 -0.85727417782E+02  0.14176049128E+02  0.89777727956E+02  0.00000000000E+00 0. -1.
</event>
<event>
 7    1  0.6510186E-006  0.1857323E+03  0.7818608E-02  0.1299520E+00
          2   -1    0    0  502    0  0.00000000000E+00  0.00000000000E+00  0.18714098490E+04  0.18714098490E+04  0.00000000000E+00 0. -1.
          1   -1    0    0  501    0 -0.00000000000E+00 -0.00000000000E+00 -0.55239291798E+03  0.55239291798E+03  0.00000000000E+00 0. -1.
         25    2    1    2    0    0 -0.10061499848E+03  0.18517194049E+03  0.11151599249E+04  0.11417610005E+04  0.12499799423E+03 0.  0.
          2    1    1    2  501    0  0.31713296021E+02 -0.31881988317E+02 -0.52862108847E+03  0.53053034739E+03  0.00000000000E+00 0. -1.
          1    1    1    2  502    0  0.68901702456E+02 -0.15328995218E+03  0.73247809458E+03  0.75151141913E+03  0.00000000000E+00 0. -1.
         22    1    3    3    0    0  0.74135354175E+01  0.11417091426E+03  0.46443547419E+03  0.47832025658E+03  0.00000000000E+00 0.  1.
         22    1    3    3    0    0 -0.10802853389E+03  0.71001026233E+02  0.65072445075E+03  0.66344074390E+03  0.00000000000E+00 0.  1.
</event>
<event>
 7    1  0.6510186E-006  0.6275790E+02  0.7818608E-02  0.1441469E+00
          2   -1    0    0  502    0  0.00000000000E+00  0.00000000000E+00  0.35905371364E+04  0.35905371364E+04  0.00000000000E+00 0. -1.
          1   -1    0    0  501    0 -0.00000000000E+00 -0.00000000000E+00 -0.29358170818E+02  0.29358170818E+02  0.00000000000E+00 0. -1.
         25    2    1    2    0    0 -0.65388964357E+02 -0.79348150482E+02  0.42163352252E+03  0.45163215055E+03  0.12499970583E+03 0.  0.
          2    1    1    2  501    0  0.24155829529E+02  0.33127761572E+02  0.15854437676E+02  0.43958115076E+02  0.00000000000E+00 0. -1.
          1    1    1    2  502    0  0.41233134828E+02  0.46220388911E+02  0.31236910054E+04  0.31243050416E+04  0.00000000000E+00 0. -1.
         22    1    3    3    0    0  0.23930566284E+02 -0.26529466617E+02  0.30525474013E+02  0.46992437322E+02  0.00000000000E+00 0. -1.
         22    1    3    3    0    0 -0.89319530641E+02 -0.52818683865E+02  0.39110804850E+03  0.40463971323E+03  0.00000000000E+00 0. -1.
</event>
<event>
 7    1  0.6510186E-006  0.3884323E+02  0.7818608E-02  0.1517311E+00
          2   -1    0    0  502    0  0.00000000000E+00  0.00000000000E+00  0.19626177903E+04  0.19626177903E+04  0.00000000000E+00 0. -1.
          1   -1    0    0  501    0 -0.00000000000E+00 -0.00000000000E+00 -0.30689959678E+02  0.30689959678E+02  0.00000000000E+00 0. -1.
         25    2    1    2    0    0 -0.91371854406E+01 -0.12690525594E+02  0.47408692079E+03  0.49053882011E+03  0.12500155188E+03 0.  0.
          2    1    1    2  501    0  0.37583708425E+02 -0.13759277153E+02 -0.41720914874E+01  0.40240019808E+02  0.00000000000E+00 0. -1.
          1    1    1    2  502    0 -0.28446522984E+02  0.26449802748E+02  0.14620130014E+04  0.14625289101E+04  0.00000000000E+00 0. -1.
         22    1    3    3    0    0  0.99514340645E+01 -0.52651683524E+02  0.96627499818E+02  0.11049029161E+03  0.00000000000E+00 0. -1.
         22    1    3    3    0    0 -0.19088619505E+02  0.39961157930E+02  0.37745942097E+03  0.38004852850E+03  0.00000000000E+00 0. -1.
</event>
<event>
 7    1  0.6510186E-006  0.1071901E+03  0.7818608E-02  0.1403551E+00
          2   -1    0    0  502    0  0.00000000000E+00  0.00000000000E+00  0.81965048479E+03  0.81965048479E+03  0.00000000000E+00 0. -1.
          1   -1    0    0  501    0 -0.00000000000E+00 -0.00000000000E+00 -0.58178242124E+03  0.58178242124E+03  0.00000000000E+00 0. -1.
         25    2    1    2    0    0 -0.13010088104E+03 -0.89836691985E+01 -0.78118067355E+02  0.19680962502E+03  0.12499860197E+03 0.  0.
          2    1    1    2  501    0  0.24177627937E+02  0.21114577353E+02 -0.43999341034E+03  0.44116276386E+03  0.00000000000E+00 0. -1.
          1    1    1    2  502    0  0.10592325310E+03 -0.12130908155E+02  0.75597954124E+03  0.76346051715E+03  0.00000000000E+00 0. -1.
         22    1    3    3    0    0 -0.98288791145E+02 -0.13266002441E+02 -0.11236243104E+03  0.14987324376E+03  0.00000000000E+00 0. -1.
         22    1    3    3    0    0 -0.31812089895E+02  0.42823332421E+01  0.34244363687E+02  0.46936381261E+02  0.00000000000E+00 0. -1.
</event>
<event>
 7    1  0.6510186E-006  0.6946696E+02  0.7818608E-02  0.1477640E+00
          2   -1    0    0  502    0  0.00000000000E+00  0.00000000000E+00  0.21649816631E+04  0.21649816631E+04  0.00000000000E+00 0. -1.
          1   -1    0    0  501    0 -0.00000000000E+00 -0.00000000000E+00 -0.58379747893E+02  0.58379747893E+02  0.00000000000E+00 0. -1.
         25    2    1    2    0    0 -0.25229269654E+02  0.78262641503E+02  0.17312011663E+04  0.17376555355E+04  0.12501089882E+03 0.  0.
          2    1    1    2  501    0  0.41968019310E+02 -0.55226264869E+02 -0.32649544523E+02  0.76663209780E+02  0.00000000000E+00 0. -1.
          1    1    1    2  502    0 -0.16738749655E+02 -0.23036376634E+02  0.40805029349E+03  0.40904266575E+03  0.00000000000E+00 0. -1.
         22    1    3    3    0    0  0.44370401219E+01  0.10751427638E+03  0.13004002275E+04  0.13048447259E+04  0.00000000000E+00 0. -1.
         22    1    3    3    0    0 -0.29666309776E+02 -0.29251634874E+02  0.43080093872E+03  0.43281080957E+03  0.00000000000E+00 0. -1.
</event>
<event>
 7    1  0.6510186E-006  0.7697343E+02  0.7818608E-02  0.1360721E+00
          2   -1    0    0  502    0  0.00000000000E+00  0.00000000000E+00  0.35012848322E+03  0.35012848322E+03  0.00000000000E+00 0. -1.
          1   -1    0    0  501    0 -0.00000000000E+00 -0.00000000000E+00 -0.45776220875E+03  0.45776220875E+03  0.00000000000E+00 0. -1.
         25    2    1    2    0    0  0.68041061984E+02  0.11129226118E+03  0.45326546988E+02  0.18626412093E+03  0.12499709344E+03 0.  0.
          2    1    1    2  501    0 -0.57508455927E+02 -0.48850723850E+02 -0.37922952193E+03  0.38666347904E+03  0.00000000000E+00 0. -1.
          1    1    1    2  502    0 -0.10532606057E+02 -0.62441537332E+02  0.22626924941E+03  0.23496309200E+03  0.00000000000E+00 0. -1.
         22    1    3    3    0    0 -0.14207242223E+02  0.93145502832E+02  0.93828092477E+01  0.94688793100E+02  0.00000000000E+00 0. -1.
         22    1    3    3    0    0  0.82248304207E+02  0.18146758350E+02  0.35943737741E+02  0.91575327825E+02  0.00000000000E+00 0. -1.
</event>
<event>
 7    1  0.6510186E-006  0.8914936E+02  0.7818608E-02  0.1329987E+00
          2   -1    0    0  502    0  0.00000000000E+00  0.00000000000E+00  0.14748801468E+03  0.14748801468E+03  0.00000000000E+00 0. -1.
          1   -1    0    0  501    0 -0.00000000000E+00 -0.00000000000E+00 -0.60586070357E+03  0.60586070357E+03  0.00000000000E+00 0. -1.
         25    2    1    2    0    0 -0.12484445152E+02 -0.83446280047E+01  0.30210502060E+01  0.12594093482E+03  0.12500599238E+03 0.  0.
          2    1    1    2  501    0 -0.36919845635E+02 -0.81145136099E+02 -0.50749918311E+03  0.51526986034E+03  0.00000000000E+00 0. -1.
          1    1    1    2  502    0  0.49404290788E+02  0.89489764104E+02  0.46105444020E+02  0.11213792309E+03  0.00000000000E+00 0. -1.
         22    1    3    3    0    0 -0.34807285028E+02  0.42627481055E+02  0.31521256735E+02  0.63421123124E+02  0.00000000000E+00 0.  1.
         22    1    3    3    0    0  0.22322839876E+02 -0.50972109060E+02 -0.28500206529E+02  0.62519811695E+02  0.00000000000E+00 0.  1.
</event>
<event>
 7    1  0.6510186E-006  0.4773025E+02  0.7818608E-02  0.1467350E+00
          2   -1    0    0  502    0  0.00000000000E+00  0.00000000000E+00  0.20803939754E+03  0.20803939754E+03  0.00000000000E+00 0. -1.
          1   -1    0    0  501    0 -0.00000000000E+00 -0.00000000000E+00 -0.15309314582E+04  0.15309314582E+04  0.00000000000E+00 0. -1.
         25    2    1    2    0    0  0.76270790616E+02 -0.33820626537E+02 -0.10593953804E+03  0.18387401064E+03  0.12500159114E+03 0.  0.
          2    1    1    2  501    0 -0.29195048500E+02  0.33719297897E+02 -0.13823811161E+04  0.13831004634E+04  0.00000000000E+00 0. -1.
          1    1    1    2  502    0 -0.47075742116E+02  0.10132863996E+00  0.16542859347E+03  0.17199638165E+03  0.00000000000E+00 0. -1.
         22    1    3    3    0    0 -0.74265709219E+01 -0.89609867807E+01  0.24376612446E+02  0.27012450353E+02  0.00000000000E+00 0.  1.
         22    1    3    3    0    0  0.83697361538E+02 -0.24859639757E+02 -0.13031615049E+03  0.15686156029E+03  0.00000000000E+00 0.  1.
</event>
<event>
 7    1  0.6510186E-006  0.1510244E+03  0.7818608E-02  0.1371549E+00
          2   -1    0    0  502    0  0.00000000000E+00  0.00000000000E+00  0.65288073170E+03  0.65288073170E+03  0.00000000000E+00 0. -1.
          1   -1    0    0  501    0 -0.00000000000E+00 -0.00000000000E+00 -0.34483940644E+03  0.34483940644E+03  0.00000000000E+00 0. -1.
         25    2    1    2    0    0  0.63822485354E+02  0.16422685414E+03  0.11127591452E+03  0.24300443306E+03  0.12500022430E+03 0.  0.
          2    1    1    2  501    0 -0.61673988777E+02 -0.13481327654E+03 -0.25876901452E+03  0.29822760318E+03  0.00000000000E+00 0. -1.
          1    1    1    2  502    0 -0.21484965767E+01 -0.29413577597E+02  0.45553442526E+03  0.45648810191E+03  0.00000000000E+00 0. -1.
         22    1    3    3    0    0  0.80319835359E+01 -0.17709734120E+02 -0.48900674390E+01  0.20051438893E+02  0.00000000000E+00 0.  1.
         22    1    3    3    0    0  0.55790501818E+02  0.18193658826E+03  0.11616598196E+03  0.22295299416E+03  0.00000000000E+00 0.  1.
</event>
<event>
 7    1  0.6510186E-006  0.9764626E+02  0.7818608E-02  0.1286091E+00
          2   -1    0    0  502    0  0.00000000000E+00  0.00000000000E+00  0.36378189541E+03  0.36378189541E+03  0.00000000000E+00 0. -1.
          1   -1    0    0  501    0 -0.00000000000E+00 -0.00000000000E+00 -0.10757457129E+04  0.10757457129E+04  0.00000000000E+00 0. -1.
         25    2    1    2    0    0 -0.30597194015E+02  0.56238560557E+02 -0.27385115757E+03  0.30776473799E+03  0.12500285385E+03 0.  0.
          2    1    1    2  501    0 -0.57501735817E+02 -0.96694258331E+02 -0.77401654755E+03  0.78214950304E+03  0.00000000000E+00 0. -1.
          1    1    1    2  502    0  0.88098929832E+02  0.40455697774E+02  0.33590388759E+03  0.34961336734E+03  0.00000000000E+00 0. -1.
         22    1    3    3    0    0 -0.62218640130E+01  0.31383018869E+02 -0.28777814900E+00  0.31995129026E+02  0.00000000000E+00 0.  1.
         22    1    3    3    0    0 -0.24375330002E+02  0.24855541687E+02 -0.27356337942E+03  0.27576960896E+03  0.00000000000E+00 0.  1.
</event>
<event>
 7    1  0.6510186E-006  0.1144505E+03  0.7818608E-02  0.1311329E+00
          2   -1    0    0  502    0  0.00000000000E+00  0.00000000000E+00  0.79860370313E+03  0.79860370313E+03  0.00000000000E+00 0. -1.
          1   -1    0    0  501    0 -0.00000000000E+00 -0.00000000000E+00 -0.46039700938E+03  0.46039700938E+03  0.00000000000E+00 0. -1.
         25    2    1    2    0    0 -0.38745371427E+02  0.14655379545E+03  0.11126758183E+03  0.22579845829E+03  0.12500100092E+03 0.  0.
          2    1    1    2  501    0  0.70030634881E+02 -0.88997427928E+02 -0.39341949552E+03  0.40939434712E+03  0.00000000000E+00 0. -1.
          1    1    1    2  502    0 -0.31285263454E+02 -0.57556367524E+02  0.62035860744E+03  0.62380790711E+03  0.00000000000E+00 0. -1.
         22    1    3    3    0    0 -0.25302658585E+02  0.92718689342E+02 -0.57608884462E+01  0.96281710207E+02  0.00000000000E+00 0. -1.
         22    1    3    3    0    0 -0.13442712841E+02  0.53835106109E+02  0.11702847028E+03  0.12951674808E+03  0.00000000000E+00 0. -1.
</event>
<event>
 7    1  0.6510186E-006  0.1828081E+03  0.7818608E-02  0.1221915E+00
          2   -1    0    0  502    0  0.00000000000E+00  0.00000000000E+00  0.11990406988E+04  0.11990406988E+04  0.00000000000E+00 0. -1.
          1   -1    0    0  501    0 -0.00000000000E+00 -0.00000000000E+00 -0.89565416090E+03  0.89565416090E+03  0.00000000000E+00 0. -1.
         25    2    1    2    0    0  0.12839066866E+03  0.77015564152E+02 -0.61175828986E+02  0.20440919500E+03  0.12500030411E+03 0.  0.
          2    1    1    2  501    0 -0.19143161474E+03 -0.20628271170E+01 -0.74866694441E+03  0.77275643771E+03  0.00000000000E+00 0. -1.
          1    1    1    2  502    0  0.63040946087E+02 -0.74952737035E+02  0.11132293113E+04  0.11175292270E+04  0.00000000000E+00 0. -1.
         22    1    3    3    0    0  0.88747872894E+02  0.38018180565E+02 -0.98112933625E+02  0.13765069830E+03  0.00000000000E+00 0. -1.
         22    1    3    3    0    0  0.39642795762E+02  0.38997383587E+02  0.36937104640E+02  0.66758496700E+02  0.00000000000E+00 0. -1.
</event>
<event>
 7    1  0.6510186E-006  0.1166494E+03  0.7818608E-02  0.1301565E+00
          2   -1    0    0  502    0  0.00000000000E+00  0.00000000000E+00  0.13040053875E+04  0.13040053875E+04  0.00000000000E+00 0. -1.
          1   -1    0    0  501    0 -0.00000000000E+00 -0.00000000000E+00 -0.14219034768E+03  0.14219034768E+03  0.00000000000E+00 0. -1.
         25    2    1    2    0    0  0.13358109862E+03  0.12574254192E+03  0.13068753576E+02  0.22237784739E+03  0.12500407166E+03 0.  0.
          2    1    1    2  501    0 -0.58629512794E+02 -0.38725507841E+02  0.93020376734E+00  0.70270548647E+02  0.00000000000E+00 0. -1.
          1    1    1    2  502    0 -0.74951585829E+02 -0.87017034076E+02  0.11478160825E+04  0.11535473391E+04  0.00000000000E+00 0. -1.
         22    1    3    3    0    0  0.12921977731E+03  0.14528092338E+03 -0.62824460018E+01  0.19453474413E+03  0.00000000000E+00 0.  1.
         22    1    3    3    0    0  0.43613213180E+01 -0.19538381468E+02  0.19351199578E+02  0.27843103259E+02  0.00000000000E+00 0.  1.
</event>
<event>
 7    1  0.6510186E-006  0.1400957E+03  0.7818608E-02  0.1322328E+00
          2   -1    0    0  502    0  0.00000000000E+00  0.00000000000E+00  0.69614442532E+03  0.69614442532E+03  0.00000000000E+00 0. -1.
          1   -1    0    0  501    0 -0.00000000000E+00 -0.00000000000E+00 -0.63455645617E+03  0.63455645617E+03  0.00000000000E+00 0. -1.
         25    2    1    2    0    0  0.16068008975E+03  0.93550730851E+02 -0.75311862830E+02  0.23635945454E+03  0.12499633826E+03 0.  0.
          2    1    1    2  501    0 -0.39016236090E+02 -0.28785238474E+02 -0.46974286823E+03  0.47223851906E+03  0.00000000000E+00 0. -1.
          1    1    1    2  502    0 -0.12166385366E+03 -0.64765492377E+02  0.60664270021E+03  0.62210290789E+03  0.00000000000E+00 0. -1.
         22    1    3    3    0    0  0.17119205243E+03  0.49091012875E+02 -0.55268321021E+02  0.18647046326E+03  0.00000000000E+00 0.  1.
         22    1    3    3    0    0 -0.10511962679E+02  0.44459717976E+02 -0.20043541808E+02  0.49888991272E+02  0.00000000000E+00 0.  1.
</event>
<event>
 7    1  0.6510186E-006  0.5257781E+02  0.7818608E-02  0.1481277E+00
          2   -1    0    0  502    0  0.00000000000E+00  0.00000000000E+00  0.80749078759E+03  0.80749078759E+03  0.00000000000E+00 0. -1.
          1   -1    0    0  501    0 -0.00000000000E+00 -0.00000000000E+00 -0.84212014387E+02  0.84212014387E+02  0.00000000000E+00 0. -1.
         25    2    1    2    0    0  0.45037374999E+02 -0.47100715470E+00  0.55874363842E+03  0.57432414802E+03  0.12500074611E+03 0.  0.
          2    1    1    2  501    0  0.24342739907E+01  0.36586802752E+02 -0.68031873801E+02  0.77284252460E+02  0.00000000000E+00 0. -1.
          1    1    1    2  502    0 -0.47471648990E+02 -0.36115795597E+02  0.23256700857E+03  0.24009440149E+03  0.00000000000E+00 0. -1.
         22    1    3    3    0    0 -0.23644279027E+02  0.25183968532E+02  0.52801581452E+02  0.63097473845E+02  0.00000000000E+00 0. -1.
         22    1    3    3    0    0  0.68681654026E+02 -0.25654975687E+02  0.50594205697E+03  0.51122667418E+03  0.00000000000E+00 0. -1.
</event>
<event>
 7    1  0.6510186E-006  0.5929100E+02  0.7818608E-02  0.1524247E+00
          2   -1    0    0  502    0  0.00000000000E+00  0.00000000000E+00  0.12686074301E+04  0.12686074301E+04  0.00000000000E+00 0. -1.
          1   -1    0    0  501    0 -0.00000000000E+00 -0.00000000000E+00 -0.47699521008E+03  0.47699521008E+03  0.00000000000E+00 0. -1.
         25    2    1    2    0    0 -0.46762680209E+02  0.25578777054E+02  0.50991930946E+01  0.13598425182E+03  0.12499877150E+03 0.  0.
          2    1    1    2  501    0  0.36181887285E+02 -0.47374801948E+02 -0.40927072833E+03  0.41358920427E+03  0.00000000000E+00 0. -1.
          1    1    1    2  502    0  0.10580792923E+02  0.21796024894E+02  0.11957837553E+04  0.11960291841E+04  0.00000000000E+00 0. -1.
         22    1    3    3    0    0 -0.75705909325E+02  0.14192821126E+02  0.41994211189E+02  0.87728756127E+02  0.00000000000E+00 0.  1.
         22    1    3    3    0    0  0.28943229117E+02  0.11385955928E+02 -0.36895018094E+02  0.48255495690E+02  0.00000000000E+00 0.  1.
</event>
<event>
 7    1  0.6510186E-006  0.9965936E+02  0.7818608E-02  0.1282237E+00
          2   -1    0    0  502    0  0.00000000000E+00  0.00000000000E+00  0.46336650475E+03  0.46336650475E+03  0.00000000000E+00 0. -1.
          1   -1    0    0  501    0 -0.00000000000E+00 -0.00000000000E+00 -0.64150448899E+03  0.64150448899E+03  0.00000000000E+00 0. -1.
         25    2    1    2    0    0 -0.27685970959E+02 -0.14019546747E+02  0.30518070250E+02  0.13236092423E+03  0.12500000389E+03 0.  0.
          2    1    1    2  501    0 -0.72483166666E+02  0.66710842734E+02 -0.57793759674E+03  0.58627298396E+03  0.00000000000E+00 0. -1.
          1    1    1    2  502    0  0.10016913763E+03 -0.52691295987E+02  0.36928154225E+03  0.38623708555E+03  0.00000000000E+00 0. -1.
         22    1    3    3    0    0 -0.73028457298E+01 -0.61914969404E+02  0.46650838594E+02  0.77865882988E+02  0.00000000000E+00 0. -1.
         22    1    3    3    0    0 -0.20383125229E+02  0.47895422657E+02 -0.16132768344E+02  0.54495041242E+02  0.00000000000E+00 0. -1.
</event>
<event>
 7    1  0.6510186E-006  0.7109410E+02  0.7818608E-02  0.1491287E+00
          2   -1    0    0  502    0  0.00000000000E+00  0.00000000000E+00  0.58457146511E+03  0.58457146511E+03  0.00000000000E+00 0. -1.
          1   -1    0    0  501    0 -0.00000000000E+00 -0.00000000000E+00 -0.22317830195E+04  0.22317830195E+04  0.00000000000E+00 0. -1.
         25    2    1    2    0    0 -0.45805402032E+01 -0.59368614231E+02 -0.88761505195E+03  0.89834908769E+03  0.12499995679E+03 0.  0.
          2    1    1    2  501    0  0.28297343982E+02  0.68125829456E+02 -0.13375081865E+04  0.13395409726E+04  0.00000000000E+00 0. -1.
          1    1    1    2  502    0 -0.23716803779E+02 -0.87572152250E+01  0.57791168407E+03  0.57846442430E+03  0.00000000000E+00 0. -1.
         22    1    3    3    0    0  0.48013959344E+01 -0.46306503234E+02 -0.97234001859E+02  0.10780443758E+03  0.00000000000E+00 0. -1.
         22    1    3    3    0    0 -0.93819361376E+01 -0.13062110998E+02 -0.79038105009E+03  0.79054465011E+03  0.00000000000E+00 0. -1.
</event>
<event>
 7    1  0.6510186E-006  0.6543891E+02  0.7818608E-02  0.1470548E+00
          2   -1    0    0  502    0  0.00000000000E+00  0.00000000000E+00  0.15116020297E+04  0.15116020297E+04  0.00000000000E+00 0. -1.
          1   -1    0    0  501    0 -0.00000000000E+00 -0.00000000000E+00 -0.84332832871E+02  0.84332832871E+02  0.00000000000E+00 0. -1.
         25    2    1    2    0    0  0.35784395228E+02  0.18293421139E+02  0.26957665430E+03  0.29985292978E+03  0.12500013902E+03 0.  0.
          2    1    1    2  501    0  0.30610337547E+02 -0.85959179714E+01 -0.64572957025E+02  0.71976033160E+02  0.00000000000E+00 0. -1.
          1    1    1    2  502    0 -0.66394732775E+02 -0.96975031677E+01  0.12222654996E+04  0.12241058997E+04  0.00000000000E+00 0. -1.
         22    1    3    3    0    0  0.13879897529E+02 -0.12868105460E+02 -0.73609070466E+01  0.20308191601E+02  0.00000000000E+00 0.  1.
         22    1    3    3    0    0  0.21904497698E+02  0.31161526599E+02  0.27693756135E+03  0.27954473818E+03  0.00000000000E+00 0.  1.
</event>
<event>
 7    1  0.6510186E-006  0.2353245E+03  0.7818608E-02  0.1281504E+00
          2   -1    0    0  502    0  0.00000000000E+00  0.00000000000E+00  0.24100260175E+04  0.24100260175E+04  0.00000000000E+00 0. -1.
          1   -1    0    0  501    0 -0.00000000000E+00 -0.00000000000E+00 -0.23245220927E+04  0.23245220927E+04  0.00000000000E+00 0. -1.
         25    2    1    2    0    0 -0.19450572634E+02  0.26086314803E+03 -0.44234170983E+03  0.52888517491E+03  0.12500173282E+03 0.  0.
          2    1    1    2  501    0 -0.28581775730E+02 -0.30787877268E+02 -0.18328321879E+04  0.18333135685E+04  0.00000000000E+00 0. -1.
          1    1    1    2  502    0  0.48032348364E+02 -0.23007527076E+03  0.23606778225E+04  0.23723493668E+04  0.00000000000E+00 0. -1.
         22    1    3    3    0    0  0.40534763574E+02  0.16248208684E+03 -0.20229237742E+03  0.26261321666E+03  0.00000000000E+00 0.  1.
         22    1    3    3    0    0 -0.59985336208E+02  0.98381061191E+02 -0.24004933241E+03  0.26627195825E+03  0.00000000000E+00 0.  1.
</event>
<event>
 7    1  0.6510186E-006  0.1809030E+03  0.7818608E-02  0.1219791E+00
          2   -1    0    0  502    0  0.00000000000E+00  0.00000000000E+00  0.10795143233E+04  0.10795143233E+04  0.00000000000E+00 0. -1.
          1   -1    0    0  501    0 -0.00000000000E+00 -0.00000000000E+00 -0.13409244784E+04  0.13409244784E+04  0.00000000000E+00 0. -1.
         25    2    1    2    0    0 -0.16565443643E+03  0.11917315201E+03  0.30027785072E+00  0.23931155611E+03  0.12500519289E+03 0.  0.
          2    1    1    2  501    0  0.18002400919E+03 -0.18999826685E+02 -0.12120101625E+04  0.12254543122E+04  0.00000000000E+00 0. -1.
          1    1    1    2  502    0 -0.14369572763E+02 -0.10017332533E+03  0.95029972955E+03  0.95567293344E+03  0.00000000000E+00 0. -1.
         22    1    3    3    0    0  0.16572160088E+01 -0.20960136823E+02  0.12905214865E+01  0.21065116811E+02  0.00000000000E+00 0.  1.
         22    1    3    3    0    0 -0.16731165244E+03  0.14013328884E+03 -0.99024363576E+00  0.21824643929E+03  0.00000000000E+00 0.  1.
</event>
<event>
 7    1  0.6510186E-006  0.1833643E+03  0.7818608E-02  0.1325639E+00
          2   -1    0    0  502    0  0.00000000000E+00  0.00000000000E+00  0.66594624775E+03  0.66594624775E+03  0.00000000000E+00 0. -1.
          1   -1    0    0  501    0 -0.00000000000E+00 -0.00000000000E+00 -0.63792029217E+03  0.63792029217E+03  0.00000000000E+00 0. -1.
         25    2    1    2    0    0 -0.13709154982E+03 -0.15845635446E+03 -0.95761723412E+02  0.26210188456E+03  0.12499832367E+03 0.  0.
          2    1    1    2  501    0  0.10388764824E+03  0.14462089477E+03 -0.44112439446E+03  0.47570850113E+03  0.00000000000E+00 0. -1.
          1    1    1    2  502    0  0.33203901576E+02  0.13835459693E+02  0.56491207345E+03  0.56605615424E+03  0.00000000000E+00 0. -1.
         22    1    3    3    0    0 -0.22586351107E+02 -0.10509530640E+03 -0.81648689086E+02  0.13498768505E+03  0.00000000000E+00 0. -1.
         22    1    3    3    0    0 -0.11450519871E+03 -0.53361048056E+02 -0.14113034325E+02  0.12711419952E+03  0.00000000000E+00 0. -1.
</event>
<event>
 7    1  0.6510186E-006  0.5280196E+02  0.7818608E-02  0.1436658E+00
          2   -1    0    0  502    0  0.00000000000E+00  0.00000000000E+00  0.80244265795E+02  0.80244265795E+02  0.00000000000E+00 0. -1.
          1   -1    0    0  501    0 -0.00000000000E+00 -0.00000000000E+00 -0.90364776040E+03  0.90364776040E+03  0.00000000000E+00 0. -1.
         25    2    1    2    0    0 -0.31092296090E+02 -0.24772380372E+02 -0.15404201967E+02  0.13206920799E+03  0.12499833821E+03 0.  0.
          2    1    1    2  501    0 -0.38006178548E+02  0.33277754741E+02 -0.77161840808E+03  0.77327022848E+03  0.00000000000E+00 0. -1.
          1    1    1    2  502    0  0.69098474638E+02 -0.85053743698E+01 -0.36380884556E+02  0.78552589719E+02  0.00000000000E+00 0. -1.
         22    1    3    3    0    0  0.93356606896E+01  0.40648495055E+02  0.21326748150E+02  0.46843194782E+02  0.00000000000E+00 0. -1.
         22    1    3    3    0    0 -0.40427956780E+02 -0.65420875427E+02 -0.36730950117E+02  0.85226013209E+02  0.00000000000E+00 0. -1.
</event>
<event>
 7    1  0.6510186E-006  0.5200451E+02  0.7818608E-02  0.1567704E+00
          2   -1    0    0  502    0  0.00000000000E+00  0.00000000000E+00  0.63331483705E+03  0.63331483705E+03  0.00000000000E+00 0. -1.
          1   -1    0    0  501    0 -0.00000000000E+00 -0.00000000000E+00 -0.13959981809E+03  0.13959981809E+03  0.00000000000E+00 0. -1.
         25    2    1    2    0    0  0.39761336740E+02  0.35916858325E+02  0.14364127754E+03  0.19781105697E+03  0.12500165212E+03 0.  0.
          2    1    1    2  501    0 -0.49140815309E+02 -0.17281011403E+02 -0.10623468494E+03  0.11831847433E+03  0.00000000000E+00 0. -1.
          1    1    1    2  502    0  0.93794785691E+01 -0.18635846922E+02  0.45630842635E+03  0.45678512385E+03  0.00000000000E+00 0. -1.
         22    1    3    3    0    0  0.27891108935E+02  0.81008561376E+02  0.11382330801E+03  0.14246419347E+03  0.00000000000E+00 0.  1.
         22    1    3    3    0    0  0.11870227805E+02 -0.45091703051E+02  0.29817969530E+02  0.55346863498E+02  0.00000000000E+00 0.  1.
</event>
<event>
 7    1  0.6510186E-006  0.1879901E+03  0.7818608E-02  0.1280033E+00
          2   -1    0    0  502    0  0.00000000000E+00  0.00000000000E+00  0.20477593710E+04  0.20477593710E+04  0.00000000000E+00 0. -1.
          1   -1    0    0  501    0 -0.00000000000E+00 -0.00000000000E+00 -0.10918038270E+03  0.10918038270E+03  0.00000000000E+00 0. -1.
         25    2    1    2    0    0  0.16581614906E+03 -0.38355755356E+02  0.24041336853E+03  0.31998538692E+03  0.12500360320E+03 0.  0.
          2    1    1    2  501    0 -0.17715115900E+03  0.90464572849E+02  0.74489968690E+02  0.21240321916E+03  0.00000000000E+00 0. -1.
          1    1    1    2  502    0  0.11335009934E+02 -0.52108817493E+02  0.16236756511E+04  0.16245511476E+04  0.00000000000E+00 0. -1.
         22    1    3    3    0    0  0.56967849323E+02 -0.65159476348E+02  0.16039197552E+03  0.18225443486E+03  0.00000000000E+00 0. -1.
         22    1    3    3    0    0  0.10884829974E+03  0.26803720992E+02  0.80021393007E+02  0.13773095206E+03  0.00000000000E+00 0. -1.
</event>
<event>
 7    1  0.6510186E-006  0.7317223E+02  0.7818608E-02  0.1365522E+00
          2   -1    0    0  502    0  0.00000000000E+00  0.00000000000E+00  0.43905078406E+03  0.43905078406E+03  0.00000000000E+00 0. -1.
          1   -1    0    0  501    0 -0.00000000000E+00 -0.00000000000E+00 -0.26656473800E+03  0.26656473800E+03  0.00000000000E+00 0. -1.
         25    2    1    2    0    0 -0.15663862473E+02  0.53509722663E+02  0.50633745466E+01  0.13696700353E+03  0.12500270112E+03 0.  0.
          2    1    1    2  501    0 -0.47915025637E+02 -0.60762514337E+02 -0.19020373608E+03  0.20534213900E+03  0.00000000000E+00 0. -1.
          1    1    1    2  502    0  0.63578888110E+02  0.72527916748E+01  0.35762640759E+03  0.36330637953E+03  0.00000000000E+00 0. -1.
         22    1    3    3    0    0 -0.28791438907E+02 -0.92162006252E+01  0.50187725520E+02  0.58589189286E+02  0.00000000000E+00 0. -1.
         22    1    3    3    0    0  0.13127576434E+02  0.62725923288E+02 -0.45124350974E+02  0.78377814247E+02  0.00000000000E+00 0. -1.
</event>
<event>
 7    1  0.6510186E-006  0.4858342E+02  0.7818608E-02  0.1460188E+00
          2   -1    0    0  502    0  0.00000000000E+00  0.00000000000E+00  0.81247685574E+03  0.81247685574E+03  0.00000000000E+00 0. -1.
          1   -1    0    0  501    0 -0.00000000000E+00 -0.00000000000E+00 -0.28147092716E+03  0.28147092716E+03  0.00000000000E+00 0. -1.
         25    2    1    2    0    0 -0.30261673652E+01  0.43970389958E+02 -0.17449772944E+03  0.21912727312E+03  0.12499900546E+03 0.  0.
          2    1    1    2  501    0 -0.40488371158E+02 -0.22139536439E+02 -0.77557410628E+02  0.90247544101E+02  0.00000000000E+00 0. -1.
          1    1    1    2  502    0  0.43514538524E+02 -0.21830853519E+02  0.78306106865E+03  0.78457296567E+03  0.00000000000E+00 0. -1.
         22    1    3    3    0    0 -0.12533990912E+02  0.77849146715E+02 -0.59261113855E+02  0.98638076764E+02  0.00000000000E+00 0.  1.
         22    1    3    3    0    0  0.95078235473E+01 -0.33878756757E+02 -0.11523661558E+03  0.12048919636E+03  0.00000000000E+00 0.  1.
</event>
<event>
 7    1  0.6510186E-006  0.8462266E+02  0.7818608E-02  0.1328846E+00
          2   -1    0    0  502    0  0.00000000000E+00  0.00000000000E+00  0.15843484565E+04  0.15843484565E+04  0.00000000000E+00 0. -1.
          1   -1    0    0  501    0 -0.00000000000E+00 -0.00000000000E+00 -0.20880173162E+03  0.20880173162E+03  0.00000000000E+00 0. -1.
         25    2    1    2    0    0  0.41254587317E+02  0.21922409619E+02  0.85007947379E+03  0.86049009887E+03  0.12500226189E+03 0.  0.
          2    1    1    2  501    0  0.65227055341E+02  0.38548689726E+02 -0.19116951818E+03  0.20563646298E+03  0.00000000000E+00 0. -1.
          1    1    1    2  502    0 -0.10648164266E+03 -0.60471099345E+02  0.71663676925E+03  0.72702362625E+03  0.00000000000E+00 0. -1.
         22    1    3    3    0    0 -0.43626636534E+02 -0.56794971760E+01  0.30301316125E+03  0.30619032642E+03  0.00000000000E+00 0.  1.
         22    1    3    3    0    0  0.84881223851E+02  0.27601906795E+02  0.54706631254E+03  0.55429977245E+03  0.00000000000E+00 0.  1.
</event>
<event>
 7    1  0.6510186E-006  0.4754097E+02  0.7818608E-02  0.1461195E+00
          2   -1    0    0  502    0  0.00000000000E+00  0.00000000000E+00  0.29539319121E+04  0.29539319121E+04  0.00000000000E+00 0. -1.
          1   -1    0    0  501    0 -0.00000000000E+00 -0.00000000000E+00 -0.25348683698E+02  0.25348683698E+02  0.00000000000E+00 0. -1.
         25    2    1    2    0    0 -0.32339375402E+02 -0.46625091121E+02  0.92893870313E+03  0.93902721069E+03  0.12500101560E+03 0.  0.
          2    1    1    2  501    0  0.46810101756E+02  0.63545850943E+00  0.73645684761E+01  0.47390149850E+02  0.00000000000E+00 0. -1.
          1    1    1    2  502    0 -0.14470726354E+02  0.45989632611E+02  0.19922799568E+04  0.19928632353E+04  0.00000000000E+00 0. -1.
         22    1    3    3    0    0 -0.40271957631E+02  0.20649601281E+02  0.13884429286E+03  0.14603415444E+03  0.00000000000E+00 0. -1.
         22    1    3    3    0    0  0.79325822293E+01 -0.67274692402E+02  0.79009441028E+03  0.79299305624E+03  0.00000000000E+00 0. -1.
</event>
<event>
 7    1  0.6510186E-006  0.6514978E+02  0.7818608E-02  0.1388616E+00
          2   -1    0    0  502    0  0.00000000000E+00  0.00000000000E+00  0.32590946505E+03  0.32590946505E+03  0.00000000000E+00 0. -1.
          1   -1    0    0  501    0 -0.00000000000E+00 -0.00000000000E+00 -0.97949966840E+03  0.97949966840E+03  0.00000000000E+00 0. -1.
         25    2    1    2    0    0 -0.43820540280E+00 -0.40242066100E+01  0.52311986275E+02  0.13556717020E+03  0.12500210984E+03 0.  0.
          2    1    1    2  501    0  0.61808951787E+02 -0.20594826337E+02 -0.93199938442E+03  0.93427369970E+03  0.00000000000E+00 0. -1.
          1    1    1    2  502    0 -0.61370746384E+02  0.24619032947E+02  0.22609719480E+03  0.23556826355E+03  0.00000000000E+00 0. -1.
         22    1    3    3    0    0  0.49881856311E+02 -0.34615165581E+02  0.67090823909E+01  0.61085358833E+02  0.00000000000E+00 0.  1.
         22    1    3    3    0    0 -0.50320061714E+02  0.30590958971E+02  0.45602903884E+02  0.74481811366E+02  0.00000000000E+00 0.  1.
</event>
<event>
 7    1  0.6510186E-006  0.5557683E+02  0.7818608E-02  0.1510612E+00
          2   -1    0    0  502    0  0.00000000000E+00  0.00000000000E+00  0.19347564118E+04  0.19347564118E+04  0.00000000000E+00 0. -1.
          1   -1    0    0  501    0 -0.00000000000E+00 -0.00000000000E+00 -0.45178446467E+03  0.45178446467E+03  0.00000000000E+00 0. -1.
         25    2    1    2    0    0 -0.91860177199E+01 -0.35007140028E+02 -0.37576164440E+03  0.39765720714E+03  0.12499823282E+03 0.  0.
          2    1    1    2  501    0  0.20634762710E+02 -0.19402369297E+02 -0.61571475213E+02  0.67773829214E+02  0.00000000000E+00 0. -1.
          1    1    1    2  502    0 -0.11448744990E+02  0.54409509325E+02  0.19203050667E+04  0.19211098401E+04  0.00000000000E+00 0. -1.
         22    1    3    3    0    0 -0.46785832157E+02 -0.66291959546E+02 -0.22761053873E+03  0.24164042570E+03  0.00000000000E+00 0. -1.
         22    1    3    3    0    0  0.37599814438E+02  0.31284819518E+02 -0.14815110567E+03  0.15601678143E+03  0.00000000000E+00 0. -1.
</event>
<event>
 7    1  0.6510186E-006  0.5719068E+02  0.7818608E-02  0.1556709E+00
          2   -1    0    0  502    0  0.00000000000E+00  0.00000000000E+00  0.18833435118E+03  0.18833435118E+03  0.00000000000E+00 0. -1.
          1   -1    0    0  501    0 -0.00000000000E+00 -0.00000000000E+00 -0.23327121356E+04  0.23327121356E+04  0.00000000000E+00 0. -1.
         25    2    1    2    0    0 -0.42235822765E+02 -0.63984052364E+02 -0.34363848466E+03  0.37361863068E+03  0.12500259745E+03 0.  0.
          2    1    1    2  501    0  0.33803605119E+02  0.45478264447E+02 -0.19730789605E+04  0.19738924846E+04  0.00000000000E+00 0. -1.
          1    1    1    2  502    0  0.84322176461E+01  0.18505787918E+02  0.17233966078E+03  0.17353537149E+03  0.00000000000E+00 0. -1.
         22    1    3    3    0    0 -0.46201750368E+02 -0.42966513762E+02 -0.34635830752E+03  0.35205795010E+03  0.00000000000E+00 0.  1.
         22    1    3    3    0    0  0.39659276022E+01 -0.21017538602E+02  0.27198228588E+01  0.21560680579E+02  0.00000000000E+00 0.  1.
</event>
<event>
 7    1  0.6510186E-006  0.5196098E+02  0.7818608E-02  0.1486139E+00
          2   -1    0    0  502    0  0.00000000000E+00  0.00000000000E+00  0.13670816915E+03  0.13670816915E+03  0.00000000000E+00 0. -1.
          1   -1    0    0  501    0 -0.00000000000E+00 -0.00000000000E+00 -0.30725700763E+03  0.30725700763E+03  0.00000000000E+00 0. -1.
         25    2    1    2    0    0  0.63763115835E+01 -0.24343229762E+02 -0.13001708276E+03  0.18210605309E+03  0.12499969031E+03 0.  0.
          2    1    1    2  501    0 -0.33995975303E+02  0.47209293249E+02 -0.14242099925E+03  0.15384467729E+03  0.00000000000E+00 0. -1.
          1    1    1    2  502    0  0.27619663719E+02 -0.22866063487E+02  0.10188924353E+03  0.10801444640E+03  0.00000000000E+00 0. -1.
         22    1    3    3    0    0 -0.42636461811E+02  0.24172420335E+02 -0.21479651130E+02  0.53512140616E+02  0.00000000000E+00 0. -1.
         22    1    3    3    0    0  0.49012773394E+02 -0.48515650098E+02 -0.10853743163E+03  0.12859391247E+03  0.00000000000E+00 0. -1.
</event>
<event>
 7    1  0.6510186E-006  0.9680034E+02  0.7818608E-02  0.1341030E+00
          2   -1    0    0  502    0  0.00000000000E+00  0.00000000000E+00  0.21678010521E+04  0.21678010521E+04  0.00000000000E+00 0. -1.
          1   -1    0    0  501    0 -0.00000000000E+00 -0.00000000000E+00 -0.63044123742E+02  0.63044123742E+02  0.00000000000E+00 0. -1.
         25    2    1    2    0    0 -0.11815453247E+02  0.10427686255E+03  0.69178239180E+03  0.71077476026E+03  0.12499845282E+03 0.  0.
          2    1    1    2  501    0 -0.51682207466E+02 -0.29586724079E+02 -0.34804135925E+02  0.68976464739E+02  0.00000000000E+00 0. -1.
          1    1    1    2  502    0  0.63497660713E+02 -0.74690138472E+02  0.14477786725E+04  0.14510939508E+04  0.00000000000E+00 0. -1.
         22    1    3    3    0    0  0.18896611658E+02 -0.22454178349E+02  0.79083901484E+02  0.84353633778E+02  0.00000000000E+00 0. -1.
         22    1    3    3    0    0 -0.30712064905E+02  0.12673104090E+03  0.61269849032E+03  0.62642112648E+03  0.00000000000E+00 0. -1.
</event>
<event>
 7    1  0.6510186E-006  0.5223922E+02  0.7818608E-02  0.1534569E+00
          2   -1    0    0  502    0  0.00000000000E+00  0.00000000000E+00  0.32925713570E+03  0.32925713570E+03  0.00000000000E+00 0. -1.
          1   -1    0    0  501    0 -0.00000000000E+00 -0.00000000000E+00 -0.13627459377E+03  0.13627459377E+03  0.00000000000E+00 0. -1.
         25    2    1    2    0    0 -0.28560170421E+02  0.18879762137E+01  0.19839774790E+02  0.12976478539E+03  0.12500414024E+03 0.  0.
          2    1    1    2  501    0 -0.23481949410E+02  0.10413807830E+02 -0.76377043093E+02  0.80581027874E+02  0.00000000000E+00 0. -1.
          1    1    1    2  502    0  0.52042119831E+02 -0.12301784044E+02  0.24951981024E+03  0.25518591620E+03  0.00000000000E+00 0. -1.
         22    1    3    3    0    0 -0.75515235435E+02  0.45333212168E+01  0.30456477396E+02  0.81551816653E+02  0.00000000000E+00 0.  1.
         22    1    3    3    0    0  0.46955065013E+02 -0.26453450031E+01 -0.10616702606E+02  0.48212968741E+02  0.00000000000E+00 0.  1.
</event>
<event>
 7    1  0.6510186E-006  0.2142195E+03  0.7818608E-02  0.1326106E+00
          2   -1    0    0  502    0  0.00000000000E+00  0.00000000000E+00  0.21438057347E+04  0.21438057347E+04  0.00000000000E+00 0. -1.
          1   -1    0    0  501    0 -0.00000000000E+00 -0.00000000000E+00 -0.15028272874E+04  0.15028272874E+04  0.00000000000E+00 0. -1.
         25    2    1    2    0    0 -0.18546779059E+03  0.10997626576E+03  0.49394846303E+03  0.55326530859E+03  0.12499734868E+03 0.  0.
          2    1    1    2  501    0 -0.12533645958E+02 -0.27984537536E+02 -0.14659211705E+04  0.14662418302E+04  0.00000000000E+00 0. -1.
          1    1    1    2  502    0  0.19800143655E+03 -0.81991728222E+02  0.16129511547E+04  0.16271258832E+04  0.00000000000E+00 0. -1.
         22    1    3    3    0    0 -0.17772768149E+03  0.44669851847E+02  0.37342758118E+03  0.41596956958E+03  0.00000000000E+00 0.  1.
         22    1    3    3    0    0 -0.77401091050E+01  0.65306413911E+02  0.12052088185E+03  0.13729573900E+03  0.00000000000E+00 0.  1.
</event>
<event>
 7    1  0.6510186E-006  0.1320256E+03  0.7818608E-02  0.1400478E+00
          2   -1    0    0  502    0  0.00000000000E+00  0.00000000000E+00  0.11564359173E+04  0.11564359173E+04  0.00000000000E+00 0. -1.
          1   -1    0    0  501    0 -0.00000000000E+00 -0.00000000000E+00 -0.37008318288E+03  0.37008318288E+03  0.00000000000E+00 0. -1.
         25    2    1    2    0    0 -0.19247785979E+02 -0.14838422054E+03  0.55109329177E+02  0.20260868803E+03  0.12499955254E+03 0.  0.
          2    1    1    2  501    0  0.20350363773E+02  0.17286667924E+02 -0.29153928551E+03  0.29275949377E+03  0.00000000000E+00 0. -1.
          1    1    1    2  502    0 -0.11025777940E+01  0.13109755261E+03  0.10227826908E+04  0.10311509184E+04  0.00000000000E+00 0. -1.
         22    1    3    3    0    0  0.28090274899E+02 -0.12635200575E+03  0.71513240145E+02  0.14787845150E+03  0.00000000000E+00 0.  1.
         22    1    3    3    0    0 -0.47338060878E+02 -0.22032214786E+02 -0.16403910968E+02  0.54730236535E+02  0.00000000000E+00 0.  1.
</event>
<event>
 7    1  0.6510186E-006  0.8402000E+02  0.7818608E-02  0.1366785E+00
          2   -1    0    0  502    0  0.00000000000E+00  0.00000000000E+00  0.11930270761E+03  0.11930270761E+03  0.00000000000E+00 0. -1.
          1   -1    0    0  501    0 -0.00000000000E+00 -0.00000000000E+00 -0.45204956636E+03  0.45204956636E+03  0.00000000000E+00 0. -1.
         25    2    1    2    0    0 -0.69843395471E+02 -0.75168218450E+02 -0.26170444936E+03  0.30764045729E+03  0.12500028476E+03 0.  0.
          2    1    1    2  501    0  0.54672018718E+02 -0.72166738816E+01 -0.14300914098E+03  0.15327336499E+03  0.00000000000E+00 0. -1.
          1    1    1    2  502    0  0.15171376754E+02  0.82384892332E+02  0.71966731584E+02  0.11043845169E+03  0.00000000000E+00 0. -1.
         22    1    3    3    0    0 -0.50642471221E+02  0.19478563157E+02 -0.45369809039E+02  0.70728310359E+02  0.00000000000E+00 0.  1.
         22    1    3    3    0    0 -0.19200924251E+02 -0.94646781607E+02 -0.21633464032E+03  0.23691214693E+03  0.00000000000E+00 0.  1.
</event>
<event>
 7    1  0.6510186E-006  0.1043504E+03  0.7818608E-02  0.1288375E+00
          2   -1    0    0  502    0  0.00000000000E+00  0.00000000000E+00  0.22821248626E+04  0.22821248626E+04  0.00000000000E+00 0. -1.
          1   -1    0    0  501    0 -0.00000000000E+00 -0.00000000000E+00 -0.11166873900E+03  0.11166873900E+03  0.00000000000E+00 0. -1.
         25    2    1    2    0    0 -0.36422774146E+02 -0.13214941563E+03  0.64696325575E+03  0.67303516836E+03  0.12499918809E+03 0.  0.
          2    1    1    2  501    0 -0.44005896686E+02  0.94542055379E+02 -0.69483074866E+02  0.12531008288E+03  0.00000000000E+00 0. -1.
          1    1    1    2  502    0  0.80428670831E+02  0.37607360253E+02  0.15929759427E+04  0.15954483503E+04  0.00000000000E+00 0. -1.
         22    1    3    3    0    0 -0.11111922403E+02  0.22537570255E+02  0.14523527137E+03  0.14739301524E+03  0.00000000000E+00 0. -1.
         22    1    3    3    0    0 -0.25310851742E+02 -0.15468698589E+03  0.50172798438E+03  0.52564215312E+03  0.00000000000E+00 0. -1.
</event>
<event>
 7    1  0.6510186E-006  0.4377447E+02  0.7818608E-02  0.1506000E+00
          2   -1    0    0  502    0  0.00000000000E+00  0.00000000000E+00  0.12838397323E+03  0.12838397323E+03  0.00000000000E+00 0. -1.
          1   -1    0    0  501    0 -0.00000000000E+00 -0.00000000000E+00 -0.11502124520E+04  0.11502124520E+04  0.00000000000E+00 0. -1.
         25    2    1    2    0    0 -0.63912057101E+02 -0.15685868639E+02 -0.27773953256E+03  0.31160106253E+03  0.12500070684E+03 0.  0.
          2    1    1    2  501    0  0.30181038836E+02  0.31146108011E+02 -0.85188685441E+03  0.85299014523E+03  0.00000000000E+00 0. -1.
          1    1    1    2  502    0  0.33731018265E+02 -0.15460239372E+02  0.10779790820E+03  0.11400521746E+03  0.00000000000E+00 0. -1.
         22    1    3    3    0    0 -0.99634813746E+02 -0.35483227252E+01 -0.16571340790E+03  0.19339239970E+03  0.00000000000E+00 0. -1.
         22    1    3    3    0    0  0.35722756645E+02 -0.12137545913E+02 -0.11202612465E+03  0.11820866283E+03  0.00000000000E+00 0. -1.
</event>
<event>
 7    1  0.6510186E-006  0.5933069E+02  0.7818608E-02  0.1475478E+00
          2   -1    0    0  502    0  0.00000000000E+00  0.00000000000E+00  0.10880729448E+04  0.10880729448E+04  0.00000000000E+00 0. -1.
          1   -1    0    0  501    0 -0.00000000000E+00 -0.00000000000E+00 -0.40471572272E+02  0.40471572272E+02  0.00000000000E+00 0. -1.
         25    2    1    2    0    0 -0.40707362665E+02 -0.81728256353E+02  0.29413686795E+03  0.33238419296E+03  0.12500462945E+03 0.  0.
          2    1    1    2  501    0  0.13576186314E+02  0.31014661070E+02 -0.61173161391E+01  0.34404121742E+02  0.00000000000E+00 0. -1.
          1    1    1    2  502    0  0.27131176351E+02  0.50713595283E+02  0.75958182071E+03  0.76175620236E+03  0.00000000000E+00 0. -1.
         22    1    3    3    0    0  0.24459782486E+02  0.10650914626E+02  0.13641729184E+02  0.29963639912E+02  0.00000000000E+00 0. -1.
         22    1    3    3    0    0 -0.65167145151E+02 -0.92379170980E+02  0.28049513876E+03  0.30242055305E+03  0.00000000000E+00 0. -1.
</event>
<event>
 7    1  0.6510186E-006  0.8064266E+02  0.7818608E-02  0.1400404E+00
          2   -1    0    0  502    0  0.00000000000E+00  0.00000000000E+00  0.19466619152E+02  0.19466619152E+02  0.00000000000E+00 0. -1.
          1   -1    0    0  501    0 -0.00000000000E+00 -0.00000000000E+00 -0.15295811569E+04  0.15295811569E+04  0.00000000000E+00 0. -1.
         25    2    1    2    0    0 -0.83629498553E+02  0.16801121738E+02 -0.52271354321E+03  0.54418164995E+03  0.12501219608E+03 0.  0.
          2    1    1    2  501    0  0.77124478959E+02  0.26452781699E+02 -0.92542242578E+03  0.92900732023E+03  0.00000000000E+00 0. -1.
          1    1    1    2  502    0  0.65050195938E+01 -0.43253903437E+02 -0.61978568772E+02  0.75858805879E+02  0.00000000000E+00 0. -1.
         22    1    3    3    0    0 -0.96861297740E+02 -0.20712731953E+02 -0.45492675872E+03  0.46558509863E+03  0.00000000000E+00 0.  1.
         22    1    3    3    0    0  0.13231799187E+02  0.37513853690E+02 -0.67786784495E+02  0.78596551328E+02  0.00000000000E+00 0.  1.
</event>
<event>
 7    1  0.6510186E-006  0.1653973E+03  0.7818608E-02  0.1194573E+00
          2   -1    0    0  502    0  0.00000000000E+00  0.00000000000E+00  0.14389510895E+04  0.14389510895E+04  0.00000000000E+00 0. -1.
          1   -1    0    0  501    0 -0.00000000000E+00 -0.00000000000E+00 -0.13385674636E+03  0.13385674636E+03  0.00000000000E+00 0. -1.
         25    2    1    2    0    0  0.99457010270E+02 -0.19318417853E+02  0.10760465479E+03  0.19356861036E+03  0.12500058809E+03 0.  0.
          2    1    1    2  501    0 -0.23809186335E+03 -0.23432688770E+02  0.79839567911E+02  0.25221257483E+03  0.00000000000E+00 0. -1.
          1    1    1    2  502    0  0.13863485308E+03  0.42751106623E+02  0.11176501204E+04  0.11270266507E+04  0.00000000000E+00 0. -1.
         22    1    3    3    0    0 -0.21252027406E+02  0.21564691559E+02  0.66871573154E+01  0.31006493898E+02  0.00000000000E+00 0.  1.
         22    1    3    3    0    0  0.12070903768E+03 -0.40883109412E+02  0.10091749748E+03  0.16256211646E+03  0.00000000000E+00 0.  1.
</event>
<event>
 7    1  0.6510186E-006  0.1483497E+03  0.7818608E-02  0.1405381E+00
          2   -1    0    0  502    0  0.00000000000E+00  0.00000000000E+00  0.13795469354E+04  0.13795469354E+04  0.00000000000E+00 0. -1.
          1   -1    0    0  501    0 -0.00000000000E+00 -0.00000000000E+00 -0.34110235195E+03  0.34110235195E+03  0.00000000000E+00 0. -1.
         25    2    1    2    0    0 -0.14638866180E+03  0.88000997326E+00  0.49415305658E+02  0.19874184167E+03  0.12500412983E+03 0.  0.
          2    1    1    2  501    0 -0.26420378481E+00  0.22860558346E+02 -0.26154377364E+03  0.26254108338E+03  0.00000000000E+00 0. -1.
          1    1    1    2  502    0  0.14665286559E+03 -0.23740568319E+02  0.12505730514E+04  0.12593663623E+04  0.00000000000E+00 0. -1.
         22    1    3    3    0    0 -0.12594557392E+03 -0.39612634749E+02  0.49690756267E+00  0.13202914579E+03  0.00000000000E+00 0. -1.
         22    1    3    3    0    0 -0.20443087884E+02  0.40492644722E+02  0.48918398095E+02  0.66712695876E+02  0.00000000000E+00 0. -1.
</event>
<event>
 7    1  0.6510186E-006  0.2621339E+03  0.7818608E-02  0.1183481E+00
          2   -1    0    0  502    0  0.00000000000E+00  0.00000000000E+00  0.26919364649E+04  0.26919364649E+04  0.00000000000E+00 0. -1.
          1   -1    0    0  501    0 -0.00000000000E+00 -0.00000000000E+00 -0.16052553091E+03  0.16052553091E+03  0.00000000000E+00 0. -1.
         25    2    1    2    0    0  0.21226153760E+03 -0.62126679246E+02  0.21014651741E+03  0.32969915266E+03  0.12500115146E+03 0.  0.
          2    1    1    2  501    0 -0.25703622969E+03  0.15543177670E+03  0.12710333786E+03  0.32616241212E+03  0.00000000000E+00 0. -1.
          1    1    1    2  502    0  0.44774692089E+02 -0.93305097458E+02  0.21941610788E+04  0.21966004311E+04  0.00000000000E+00 0. -1.
         22    1    3    3    0    0  0.19654723293E+03 -0.30497492887E+02  0.11859653975E+03  0.23157299300E+03  0.00000000000E+00 0. -1.
         22    1    3    3    0    0  0.15714304671E+02 -0.31629186359E+02  0.91549977653E+02  0.98126159658E+02  0.00000000000E+00 0. -1.
</event>
<event>
 7    1  0.6510186E-006  0.6405210E+02  0.7818608E-02  0.1466099E+00
          2   -1    0    0  502    0  0.00000000000E+00  0.00000000000E+00  0.54233486036E+02  0.54233486036E+02  0.00000000000E+00 0. -1.
          1   -1    0    0  501    0 -0.00000000000E+00 -0.00000000000E+00 -0.22650733511E+04  0.22650733511E+04  0.00000000000E+00 0. -1.
         25    2    1    2    0    0  0.74391951410E+02  0.21735489646E+02 -0.40973955818E+03  0.43533760226E+03  0.12500291380E+03 0.  0.
          2    1    1    2  501    0 -0.63013122294E+02  0.98122211682E+01 -0.18351027125E+04  0.18362104724E+04  0.00000000000E+00 0. -1.
          1    1    1    2  502    0 -0.11378829116E+02 -0.31547710814E+02  0.34002405633E+02  0.47758762531E+02  0.00000000000E+00 0. -1.
         22    1    3    3    0    0  0.16832305064E+02 -0.41881032694E+02 -0.24976392475E+03  0.25380970332E+03  0.00000000000E+00 0.  1.
         22    1    3    3    0    0  0.57559646346E+02  0.63616522339E+02 -0.15997563343E+03  0.18152789894E+03  0.00000000000E+00 0.  1.
</event>
<event>
 7    1  0.6510186E-006  0.1717837E+03  0.7818608E-02  0.1321060E+00
          2   -1    0    0  502    0  0.00000000000E+00  0.00000000000E+00  0.19415261571E+04  0.19415261571E+04  0.00000000000E+00 0. -1.
          1   -1    0    0  501    0 -0.00000000000E+00 -0.00000000000E+00 -0.49962898020E+02  0.49962898020E+02  0.00000000000E+00 0. -1.
         25    2    1    2    0    0 -0.18832972565E+03 -0.24973193347E+02  0.90913001981E+03  0.93714093698E+03  0.12499598750E+03 0.  0.
          2    1    1    2  501    0  0.15985606888E+03  0.53053899889E+02  0.16448554278E+03  0.23542339059E+03  0.00000000000E+00 0. -1.
          1    1    1    2  502    0  0.28473656766E+02 -0.28080706542E+02  0.81794769646E+03  0.81892472753E+03  0.00000000000E+00 0. -1.
         22    1    3    3    0    0 -0.36982104810E+02 -0.44896225425E+02  0.43928670058E+03  0.44312092304E+03  0.00000000000E+00 0. -1.
         22    1    3    3    0    0 -0.15134762084E+03  0.19923032079E+02  0.46984331923E+03  0.49402001393E+03  0.00000000000E+00 0. -1.
</event>
<event>
 7    1  0.6510186E-006  0.8356037E+02  0.7818608E-02  0.1323964E+00
          2   -1    0    0  502    0  0.00000000000E+00  0.00000000000E+00  0.20580514366E+04  0.20580514366E+04  0.00000000000E+00 0. -1.
          1   -1    0    0  501    0 -0.00000000000E+00 -0.00000000000E+00 -0.21044102456E+02  0.21044102456E+02  0.00000000000E+00 0. -1.
         25    2    1    2    0    0  0.54173899557E+02 -0.48390411711E+02  0.11090340667E+04  0.11184180881E+04  0.12500406174E+03 0.  0.
          2    1    1    2  501    0 -0.66676025928E+02 -0.50365104092E+02  0.11788654929E+03  0.14449766312E+03  0.00000000000E+00 0. -1.
          1    1    1    2  502    0  0.12502126371E+02  0.98755515804E+02  0.81008671820E+03  0.81617978783E+03  0.00000000000E+00 0. -1.
         22    1    3    3    0    0  0.80097237182E+02  0.50315908878E+01  0.48840409027E+03  0.49495397736E+03  0.00000000000E+00 0. -1.
         22    1    3    3    0    0 -0.25923337625E+02 -0.53422002599E+02  0.62062997639E+03  0.62346411075E+03  0.00000000000E+00 0. -1.
</event>
<event>
 7    1  0.6510186E-006  0.5543115E+02  0.7818608E-02  0.1456232E+00
          2   -1    0    0  502    0  0.00000000000E+00  0.00000000000E+00  0.23739638900E+03  0.23739638900E+03  0.00000000000E+00 0. -1.
          1   -1    0    0  501    0 -0.00000000000E+00 -0.00000000000E+00 -0.38532431031E+03  0.38532431031E+03  0.00000000000E+00 0. -1.
         25    2    1    2    0    0  0.73631841224E+02 -0.57372721529E+02  0.46680926630E+02  0.16284219607E+03  0.12500077877E+03 0.  0.
          2    1    1    2  501    0 -0.49277293428E+02  0.23613116514E+02 -0.32161525666E+03  0.32622416255E+03  0.00000000000E+00 0. -1.
          1    1    1    2  502    0 -0.24354547796E+02  0.33759605015E+02  0.12700640871E+03  0.13365434068E+03  0.00000000000E+00 0. -1.
         22    1    3    3    0    0  0.79603534762E+02 -0.47116337194E+02 -0.20395367235E+02  0.94724035924E+02  0.00000000000E+00 0.  1.
         22    1    3    3    0    0 -0.59716935377E+01 -0.10256384336E+02  0.67076293865E+02  0.68118160149E+02  0.00000000000E+00 0.  1.
</event>
<event>
 7    1  0.6510186E-006  0.4324866E+02  0.7818608E-02  0.1541013E+00
          2   -1    0    0  502    0  0.00000000000E+00  0.00000000000E+00  0.28086501166E+03  0.28086501166E+03  0.00000000000E+00 0. -1.
          1   -1    0    0  501    0 -0.00000000000E+00 -0.00000000000E+00 -0.26957209527E+03  0.26957209527E+03  0.00000000000E+00 0. -1.
         25    2    1    2    0    0  0.37805040384E+02  0.59248460219E+01 -0.19254286836E+03  0.23272770727E+03  0.12500041878E+03 0.  0.
          2    1    1    2  501    0 -0.33766603056E+02 -0.35398682880E+02 -0.45377925094E+02  0.66726353995E+02  0.00000000000E+00 0. -1.
          1    1    1    2  502    0 -0.40384373279E+01  0.29473836859E+02  0.24921370984E+03  0.25098304566E+03  0.00000000000E+00 0. -1.
         22    1    3    3    0    0 -0.44070727218E+02 -0.13979333772E+02 -0.61696398045E+02  0.77097965616E+02  0.00000000000E+00 0. -1.
         22    1    3    3    0    0  0.81875767602E+02  0.19904179794E+02 -0.13084647032E+03  0.15562974166E+03  0.00000000000E+00 0. -1.
</event>
<event>
 7    1  0.6510186E-006  0.8758772E+02  0.7818608E-02  0.1377023E+00
          2   -1    0    0  502    0  0.00000000000E+00  0.00000000000E+00  0.72928225359E+03  0.72928225359E+03  0.00000000000E+00 0. -1.
          1   -1    0    0  501    0 -0.00000000000E+00 -0.00000000000E+00 -0.23287519367E+04  0.23287519367E+04  0.00000000000E+00 0. -1.
         25    2    1    2    0    0  0.40491470314E+02 -0.20482981672E+02  0.21792876387E+03  0.25529802309E+03  0.12500009106E+03 0.  0.
          2    1    1    2  501    0 -0.87405602213E+02  0.77422307224E+01 -0.23080323518E+04  0.23096997680E+04  0.00000000000E+00 0. -1.
          1    1    1    2  502    0  0.46914131899E+02  0.12740750949E+02  0.49063390475E+03  0.49303639926E+03  0.00000000000E+00 0. -1.
         22    1    3    3    0    0  0.21246445754E+02 -0.69326446357E+02  0.16742106847E+03  0.18244829895E+03  0.00000000000E+00 0.  1.
         22    1    3    3    0    0  0.19245024560E+02  0.48843464685E+02  0.50507695394E+02  0.72849724137E+02  0.00000000000E+00 0.  1.
</event>
<event>
 7    1  0.6510186E-006  0.1451064E+03  0.7818608E-02  0.1259883E+00
          2   -1    0    0  502    0  0.00000000000E+00  0.00000000000E+00  0.10047361110E+04  0.10047361110E+04  0.00000000000E+00 0. -1.
          1   -1    0    0  501    0 -0.00000000000E+00 -0.00000000000E+00 -0.39942133733E+03  0.39942133733E+03  0.00000000000E+00 0. -1.
         25    2    1    2    0    0  0.18233338462E+03  0.13398051903E+03 -0.71638283637E+02  0.26824074785E+03  0.12499924998E+03 0.  0.
          2    1    1    2  501    0 -0.65683504416E+02 -0.52283654867E+02 -0.21596742381E+03  0.23171066325E+03  0.00000000000E+00 0. -1.
          1    1    1    2  502    0 -0.11664988020E+03 -0.81696864167E+02  0.89292048114E+03  0.90420603725E+03  0.00000000000E+00 0. -1.
         22    1    3    3    0    0  0.14918679915E+03  0.59498666302E+02 -0.90788091962E+02  0.18449734409E+03  0.00000000000E+00 0.  1.
         22    1    3    3    0    0  0.33146585467E+02  0.74481852733E+02  0.19149808324E+02  0.83743403761E+02  0.00000000000E+00 0.  1.
</event>
<event>
 7    1  0.6510186E-006  0.5328946E+02  0.7818608E-02  0.1435637E+00
          2   -1    0    0  502    0  0.00000000000E+00  0.00000000000E+00  0.23535070441E+04  0.23535070441E+04  0.00000000000E+00 0. -1.
          1   -1    0    0  501    0 -0.00000000000E+00 -0.00000000000E+00 -0.31900262708E+03  0.31900262708E+03  0.00000000000E+00 0. -1.
         25    2    1    2    0    0  0.61965743759E+02  0.47854941908E+02  0.46927207640E+03  0.49190541973E+03  0.12499924563E+03 0.  0.
          2    1    1    2  501    0 -0.89647393670E+01 -0.49636590673E+02 -0.30524045390E+03  0.30937985129E+03  0.00000000000E+00 0. -1.
          1    1    1    2  502    0 -0.53001004392E+02  0.17816487656E+01  0.18704727945E+04  0.18712244002E+04  0.00000000000E+00 0. -1.
         22    1    3    3    0    0 -0.13690020015E+02 -0.28897001697E+02  0.18787635608E+03  0.19057801167E+03  0.00000000000E+00 0. -1.
         22    1    3    3    0    0  0.75655763775E+02  0.76751943605E+02  0.28139572031E+03  0.30132740806E+03  0.00000000000E+00 0. -1.
</event>
<event>
 7    1  0.6510186E-006  0.5149611E+02  0.7818608E-02  0.1442701E+00
          2   -1    0    0  502    0  0.00000000000E+00  0.00000000000E+00  0.56292072089E+03  0.56292072089E+03  0.00000000000E+00 0. -1.
          1   -1    0    0  501    0 -0.00000000000E+00 -0.00000000000E+00 -0.74900834433E+03  0.74900834433E+03  0.00000000000E+00 0. -1.
         25    2    1    2    0    0  0.54424734157E+02  0.38545584535E+02 -0.22814287211E+01  0.14170458321E+03  0.12500868054E+03 0.  0.
          2    1    1    2  501    0 -0.65503214450E+01 -0.51163577372E+02 -0.67478610171E+03  0.67675468334E+03  0.00000000000E+00 0. -1.
          1    1    1    2  502    0 -0.47874412712E+02  0.12617992836E+02  0.49097990699E+03  0.49346979868E+03  0.00000000000E+00 0. -1.
         22    1    3    3    0    0  0.89965021059E+02  0.49188532814E+02  0.89983643824E+01  0.10292806875E+03  0.00000000000E+00 0. -1.
         22    1    3    3    0    0 -0.35540286903E+02 -0.10642948279E+02 -0.11279793103E+02  0.38776514460E+02  0.00000000000E+00 0. -1.
</event>
<event>
 7    1  0.6510186E-006  0.1618078E+03  0.7818608E-02  0.1282152E+00
          2   -1    0    0  502    0  0.00000000000E+00  0.00000000000E+00  0.25854878514E+02  0.25854878514E+02  0.00000000000E+00 0. -1.
          1   -1    0    0  501    0 -0.00000000000E+00 -0.00000000000E+00 -0.21196978633E+04  0.21196978633E+04  0.00000000000E+00 0. -1.
         25    2    1    2    0    0  0.15239786785E+03  0.61530767573E+02 -0.97005181945E+03  0.99178489083E+03  0.12500236706E+03 0.  0.
          2    1    1    2  501    0 -0.32766238027E+02  0.51122459248E+02 -0.63911407457E+03  0.64199215923E+03  0.00000000000E+00 0. -1.
          1    1    1    2  502    0 -0.11963162982E+03 -0.11265322682E+03 -0.48467709080E+03  0.51177569180E+03  0.00000000000E+00 0. -1.
         22    1    3    3    0    0  0.12311490797E+03  0.95093489014E+02 -0.63460782305E+03  0.65339661867E+03  0.00000000000E+00 0. -1.
         22    1    3    3    0    0  0.29282959879E+02 -0.33562721441E+02 -0.33544399640E+03  0.33838827216E+03  0.00000000000E+00 0. -1.
</event>
<event>
 7    1  0.6510186E-006  0.1158857E+03  0.7818608E-02  0.1309494E+00
          2   -1    0    0  502    0  0.00000000000E+00  0.00000000000E+00  0.12474886690E+04  0.12474886690E+04  0.00000000000E+00 0. -1.
          1   -1    0    0  501    0 -0.00000000000E+00 -0.00000000000E+00 -0.67309318278E+03  0.67309318278E+03  0.00000000000E+00 0. -1.
         25    2    1    2    0    0  0.34365572968E+02  0.44653348343E+02  0.14627053905E+03  0.20048776559E+03  0.12500143773E+03 0.  0.
          2    1    1    2  501    0 -0.42264994182E+02 -0.10996154211E+03 -0.63959300489E+03  0.65035150679E+03  0.00000000000E+00 0. -1.
          1    1    1    2  502    0  0.78994212135E+01  0.65308193770E+02  0.10677179520E+04  0.10697425794E+04  0.00000000000E+00 0. -1.
         22    1    3    3    0    0  0.16813940698E+02 -0.29255304945E+02  0.11232558287E+03  0.11728434693E+03  0.00000000000E+00 0. -1.
         22    1    3    3    0    0  0.17551632271E+02  0.73908653289E+02  0.33944956187E+02  0.83203418661E+02  0.00000000000E+00 0. -1.
</event>
<event>
 7    1  0.6510186E-006  0.8874024E+02  0.7818608E-02  0.1443145E+00
          2   -1    0    0  502    0  0.00000000000E+00  0.00000000000E+00  0.12984880925E+04  0.12984880925E+04  0.00000000000E+00 0. -1.
          1   -1    0    0  501    0 -0.00000000000E+00 -0.00000000000E+00 -0.10365950016E+04  0.10365950016E+04  0.00000000000E+00 0. -1.
         25    2    1    2    0    0 -0.53134256733E+02  0.52165121788E+02 -0.14476086300E+03  0.20524841529E+03  0.12500702120E+03 0.  0.
          2    1    1    2  501    0  0.11339107441E+02  0.26294927004E+02 -0.85979388126E+03  0.86027060672E+03  0.00000000000E+00 0. -1.
          1    1    1    2  502    0  0.41795149293E+02 -0.78460048791E+02  0.12664478352E+04  0.12695640720E+04  0.00000000000E+00 0. -1.
         22    1    3    3    0    0 -0.44780223067E+02 -0.19539893638E+02 -0.11893272280E+03  0.12857709117E+03  0.00000000000E+00 0. -1.
         22    1    3    3    0    0 -0.83540336660E+01  0.71705015426E+02 -0.25828140208E+02  0.76671324120E+02  0.00000000000E+00 0. -1.
</event>
<event>
 7    1  0.6510186E-006  0.1088133E+03  0.7818608E-02  0.1316256E+00
          2   -1    0    0  502    0  0.00000000000E+00  0.00000000000E+00  0.95442461300E+03  0.95442461300E+03  0.00000000000E+00 0. -1.
          1   -1    0    0  501    0 -0.00000000000E+00 -0.00000000000E+00 -0.18388762794E+04  0.18388762794E+04  0.00000000000E+00 0. -1.
         25    2    1    2    0    0  0.11637242795E+03  0.12012435057E+03 -0.17669969849E+02  0.20954910443E+03  0.12500479089E+03 0.  0.
          2    1    1    2  501    0 -0.27799190225E+02 -0.59758589458E+02 -0.17212878173E+04  0.17225491673E+04  0.00000000000E+00 0. -1.
          1    1    1    2  502    0 -0.88573237728E+02 -0.60365761109E+02  0.85450612069E+03  0.86120262067E+03  0.00000000000E+00 0. -1.
         22    1    3    3    0    0  0.91958401962E+02  0.44880197423E+02 -0.61226571819E+02  0.11924459279E+03  0.00000000000E+00 0. -1.
         22    1    3    3    0    0  0.24414025991E+02  0.75244153144E+02  0.43556601970E+02  0.90304511641E+02  0.00000000000E+00 0. -1.
</event>
<event>
 7    1  0.6510186E-006  0.8866479E+02  0.7818608E-02  0.1351983E+00
          2   -1    0    0  502    0  0.00000000000E+00  0.00000000000E+00  0.47401757680E+03  0.47401757680E+03  0.00000000000E+00 0. -1.
          1   -1    0    0  501    0 -0.00000000000E+00 -0.00000000000E+00 -0.59037352249E+03  0.59037352249E+03  0.00000000000E+00 0. -1.
         25    2    1    2    0    0  0.96950615656E+01  0.11996423365E+03  0.16203695838E+03  0.23741542566E+03  0.12499878754E+03 0.  0.
          2    1    1    2  501    0 -0.42235021044E+02 -0.41463100335E+02 -0.54446007925E+03  0.54766756668E+03  0.00000000000E+00 0. -1.
          1    1    1    2  502    0  0.32539959479E+02 -0.78501133317E+02  0.26606717519E+03  0.27930810695E+03  0.00000000000E+00 0. -1.
         22    1    3    3    0    0 -0.34947360006E+02  0.33699820032E+02  0.12388805235E+03  0.13306105875E+03  0.00000000000E+00 0.  1.
         22    1    3    3    0    0  0.44642421572E+02  0.86264413620E+02  0.38148906027E+02  0.10435436690E+03  0.00000000000E+00 0.  1.
</event>
<event>
 7    1  0.6510186E-006  0.5178094E+02  0.7818608E-02  0.1457361E+00
          2   -1    0    0  502    0  0.00000000000E+00  0.00000000000E+00  0.51223351616E+03  0.51223351616E+03  0.00000000000E+00 0. -1.
          1   -1    0    0  501    0 -0.00000000000E+00 -0.00000000000E+00 -0.39873895580E+03  0.39873895580E+03  0.00000000000E+00 0. -1.
         25    2    1    2    0    0 -0.59871302387E+01 -0.74494858679E+01  0.42537395826E+02  0.13238203663E+03  0.12499693200E+03 0.  0.
          2    1    1    2  501    0 -0.36917760458E+02 -0.24298247972E+02 -0.35074774174E+03  0.35352129246E+03  0.00000000000E+00 0. -1.
          1    1    1    2  502    0  0.42904890696E+02  0.31747733840E+02  0.42170490627E+03  0.42506914287E+03  0.00000000000E+00 0. -1.
         22    1    3    3    0    0  0.26817121991E+02 -0.28265557299E+02  0.73176480088E+02  0.82902937218E+02  0.00000000000E+00 0.  1.
         22    1    3    3    0    0 -0.32804252229E+02  0.20816071431E+02 -0.30639084262E+02  0.49479099411E+02  0.00000000000E+00 0.  1.
</event>
<event>
 7    1  0.6510186E-006  0.1111022E+03  0.7818608E-02  0.1413640E+00
          2   -1    0    0  502    0  0.00000000000E+00  0.00000000000E+00  0.13429799250E+04  0.13429799250E+04  0.00000000000E+00 0. -1.
          1   -1    0    0  501    0 -0.00000000000E+00 -0.00000000000E+00 -0.95474309936E+03  0.95474309936E+03  0.00000000000E+00 0. -1.
         25    2    1    2    0    0  0.63715179383E+02  0.52900002303E+02  0.11396147531E+04  0.11494360986E+04  0.12499409979E+03 0.  0.
          2    1    1    2  501    0 -0.88273077778E+02 -0.67598012819E+02 -0.94552610020E+03  0.95204056308E+03  0.00000000000E+00 0. -1.
          1    1    1    2  502    0  0.24557898394E+02  0.14698010516E+02  0.19414817273E+03  0.19624636267E+03  0.00000000000E+00 0. -1.
         22    1    3    3    0    0 -0.27323095914E+02  0.13047643601E+02  0.59888438766E+03  0.59964931615E+03  0.00000000000E+00 0.  1.
         22    1    3    3    0    0  0.91038275297E+02  0.39852358702E+02  0.54073036547E+03  0.54978678249E+03  0.00000000000E+00 0.  1.
</event>
<event>
 7    1  0.6510186E-006  0.5931095E+02  0.7818608E-02  0.1418386E+00
          2   -1    0    0  502    0  0.00000000000E+00  0.00000000000E+00  0.18401016662E+04  0.18401016662E+04  0.00000000000E+00 0. -1.
          1   -1    0    0  501    0 -0.00000000000E+00 -0.00000000000E+00 -0.10552627428E+04  0.10552627428E+04  0.00000000000E+00 0. -1.
         25    2    1    2    0    0  0.40787286283E+02  0.93281616854E+02  0.69243252503E+03  0.71095224467E+03  0.12500091887E+03 0.  0.
          2    1    1    2  501    0 -0.36059177582E+02 -0.37020482670E+02 -0.10446637049E+04  0.10459412205E+04  0.00000000000E+00 0. -1.
          1    1    1    2  502    0 -0.47281087011E+01 -0.56261134184E+02  0.11370701033E+04  0.11384709439E+04  0.00000000000E+00 0. -1.
         22    1    3    3    0    0  0.21612826801E+02 -0.20549073114E+02  0.31122370837E+03  0.31264928489E+03  0.00000000000E+00 0. -1.
         22    1    3    3    0    0  0.19174459482E+02  0.11383068997E+03  0.38120881666E+03  0.39830295978E+03  0.00000000000E+00 0. -1.
</event>
<event>
 7    1  0.6510186E-006  0.9038499E+02  0.7818608E-02  0.1374719E+00
          2   -1    0    0  502    0  0.00000000000E+00  0.00000000000E+00  0.18458999792E+04  0.18458999792E+04  0.00000000000E+00 0. -1.
          1   -1    0    0  501    0 -0.00000000000E+00 -0.00000000000E+00 -0.41644656473E+03  0.41644656473E+03  0.00000000000E+00 0. -1.
         25    2    1    2    0    0  0.51350461535E+02 -0.38061325449E+02  0.12868269905E+02  0.14098380943E+03  0.12500123101E+03 0.  0.
          2    1    1    2  501    0 -0.39110238446E+02  0.84482519281E+02 -0.34590754865E+03  0.35821632993E+03  0.00000000000E+00 0. -1.
          1    1    1    2  502    0 -0.12240223089E+02 -0.46421193831E+02  0.17624926932E+04  0.17631464046E+04  0.00000000000E+00 0. -1.
         22    1    3    3    0    0  0.53879519216E+02  0.29427426777E+02 -0.21700805207E+02  0.65114522069E+02  0.00000000000E+00 0.  1.
         22    1    3    3    0    0 -0.25290576808E+01 -0.67488752227E+02  0.34569075112E+02  0.75869287356E+02  0.00000000000E+00 0.  1.
</event>
<event>
 7    1  0.6510186E-006  0.5859107E+02  0.7818608E-02  0.1441170E+00
          2   -1    0    0  502    0  0.00000000000E+00  0.00000000000E+00  0.73473380576E+03  0.73473380576E+03  0.00000000000E+00 0. -1.
          1   -1    0    0  501    0 -0.00000000000E+00 -0.00000000000E+00 -0.29307497628E+03  0.29307497628E+03  0.00000000000E+00 0. -1.
         25    2    1    2    0    0 -0.16196739933E+02  0.12104888146E+02 -0.62228953757E+02  0.14109143194E+03  0.12500194710E+03 0.  0.
          2    1    1    2  501    0  0.44061911111E+02 -0.46173835958E+02 -0.18537307474E+03  0.19605267654E+03  0.00000000000E+00 0. -1.
          1    1    1    2  502    0 -0.27865171179E+02  0.34068947812E+02  0.68926085798E+03  0.69066467357E+03  0.00000000000E+00 0. -1.
         22    1    3    3    0    0  0.12341086773E+02 -0.52206871974E+02 -0.41249372830E+02  0.67671047449E+02  0.00000000000E+00 0.  1.
         22    1    3    3    0    0 -0.28537826706E+02  0.64311760119E+02 -0.20979580927E+02  0.73420384489E+02  0.00000000000E+00 0.  1.
</event>
<event>
 7    1  0.6510186E-006  0.1060848E+03  0.7818608E-02  0.1321512E+00
          2   -1    0    0  502    0  0.00000000000E+00  0.00000000000E+00  0.18658815856E+03  0.18658815856E+03  0.00000000000E+00 0. -1.
          1   -1    0    0  501    0 -0.00000000000E+00 -0.00000000000E+00 -0.20409499255E+04  0.20409499255E+04  0.00000000000E+00 0. -1.
         25    2    1    2    0    0 -0.29179891139E+02  0.11333816968E+03 -0.22870169358E+03  0.28570651970E+03  0.12500697580E+03 0.  0.
          2    1    1    2  501    0 -0.34100639256E+02 -0.10087053650E+03 -0.17755052968E+04  0.17786952459E+04  0.00000000000E+00 0. -1.
          1    1    1    2  502    0  0.63280530395E+02 -0.12467633176E+02  0.14984522347E+03  0.16313631846E+03  0.00000000000E+00 0. -1.
         22    1    3    3    0    0 -0.31874041380E+01  0.11368333685E+03 -0.23307962559E+03  0.25934566217E+03  0.00000000000E+00 0. -1.
         22    1    3    3    0    0 -0.25992487001E+02 -0.34516717222E+00  0.43779320074E+01  0.26360857526E+02  0.00000000000E+00 0. -1.
</event>
<event>
 7    1  0.6510186E-006  0.8133170E+02  0.7818608E-02  0.1349261E+00
          2   -1    0    0  502    0  0.00000000000E+00  0.00000000000E+00  0.62065122837E+03  0.62065122837E+03  0.00000000000E+00 0. -1.
          1   -1    0    0  501    0 -0.00000000000E+00 -0.00000000000E+00 -0.26977066705E+03  0.26977066705E+03  0.00000000000E+00 0. -1.
         25    2    1    2    0    0  0.41776107304E+02  0.65153839045E+01 -0.59495207232E+00  0.13195645304E+03  0.12499783263E+03 0.  0.
          2    1    1    2  501    0  0.20572316119E+02 -0.62750605307E+02 -0.19484454593E+03  0.20573102764E+03  0.00000000000E+00 0. -1.
          1    1    1    2  502    0 -0.62348423423E+02  0.56235221403E+02  0.54632005931E+03  0.55273441474E+03  0.00000000000E+00 0. -1.
         22    1    3    3    0    0  0.13375877393E+02 -0.55968641280E+02 -0.19510220770E+02  0.60762254873E+02  0.00000000000E+00 0.  1.
         22    1    3    3    0    0  0.28400229912E+02  0.62484025185E+02  0.18915268697E+02  0.71194198164E+02  0.00000000000E+00 0.  1.
</event>
<event>
 7    1  0.6510186E-006  0.7331595E+02  0.7818608E-02  0.1431117E+00
          2   -1    0    0  502    0  0.00000000000E+00  0.00000000000E+00  0.93797743628E+03  0.93797743628E+03  0.00000000000E+00 0. -1.
          1   -1    0    0  501    0 -0.00000000000E+00 -0.00000000000E+00 -0.17697696041E+03  0.17697696041E+03  0.00000000000E+00 0. -1.
         25    2    1    2    0    0 -0.86761397368E+02  0.53520695708E+02  0.64602180452E+03  0.66585400307E+03  0.12500150617E+03 0.  0.
          2    1    1    2  501    0  0.70421374025E+02 -0.19286911804E+02 -0.15770688747E+03  0.17378900207E+03  0.00000000000E+00 0. -1.
          1    1    1    2  502    0  0.16340023344E+02 -0.34233783905E+02  0.27268555882E+03  0.27531139154E+03  0.00000000000E+00 0. -1.
         22    1    3    3    0    0 -0.89032829189E+02  0.83666890542E+02  0.58655035698E+03  0.59913964526E+03  0.00000000000E+00 0.  1.
         22    1    3    3    0    0  0.22714318208E+01 -0.30146194833E+02  0.59471447537E+02  0.66714357807E+02  0.00000000000E+00 0.  1.
</event>
<event>
 7    1  0.6510186E-006  0.9772466E+02  0.7818608E-02  0.1359465E+00
          2   -1    0    0  502    0  0.00000000000E+00  0.00000000000E+00  0.49172145458E+02  0.49172145458E+02  0.00000000000E+00 0. -1.
          1   -1    0    0  501    0 -0.00000000000E+00 -0.00000000000E+00 -0.66913404882E+03  0.66913404882E+03  0.00000000000E+00 0. -1.
         25    2    1    2    0    0 -0.89898245481E+02  0.65848897830E+02 -0.46523211752E+03  0.49445286373E+03  0.12499975759E+03 0.  0.
          2    1    1    2  501    0  0.89331760166E+02 -0.15445977920E+02 -0.14721500462E+03  0.17289013620E+03  0.00000000000E+00 0. -1.
          1    1    1    2  502    0  0.56648531521E+00 -0.50402919910E+02 -0.75147812177E+01  0.50963194345E+02  0.00000000000E+00 0. -1.
         22    1    3    3    0    0  0.14549639715E+01  0.70304344244E+02 -0.14091975640E+03  0.15749030283E+03  0.00000000000E+00 0. -1.
         22    1    3    3    0    0 -0.91353209453E+02 -0.44554464141E+01 -0.32431236112E+03  0.33696256091E+03  0.00000000000E+00 0. -1.
</event>
<event>
 7    1  0.6510186E-006  0.3649266E+02  0.7818608E-02  0.1550044E+00
          2   -1    0    0  502    0  0.00000000000E+00  0.00000000000E+00  0.14670041900E+04  0.14670041900E+04  0.00000000000E+00 0. -1.
          1   -1    0    0  501    0 -0.00000000000E+00 -0.00000000000E+00 -0.77084331567E+01  0.77084331567E+01  0.00000000000E+00 0. -1.
         25    2    1    2    0    0  0.52747312694E+02  0.26153415588E+02  0.98332788378E+03  0.99298551794E+03  0.12498092530E+03 0.  0.
          2    1    1    2  501    0 -0.19539352711E+02 -0.27982586471E+02  0.13928055366E+03  0.14340112997E+03  0.00000000000E+00 0. -1.
          1    1    1    2  502    0 -0.33207959984E+02  0.18291708821E+01  0.33668731942E+03  0.33832597525E+03  0.00000000000E+00 0. -1.
         22    1    3    3    0    0 -0.35464698213E+02 -0.16186143357E+02  0.34620940221E+03  0.34839731089E+03  0.00000000000E+00 0.  1.
         22    1    3    3    0    0  0.88212010907E+02  0.42339558945E+02  0.63711848157E+03  0.64458820706E+03  0.00000000000E+00 0.  1.
</event>
<event>
 7    1  0.6510186E-006  0.6791923E+02  0.7818608E-02  0.1449008E+00
          2   -1    0    0  502    0  0.00000000000E+00  0.00000000000E+00  0.92235647586E+03  0.92235647586E+03  0.00000000000E+00 0. -1.
          1   -1    0    0  501    0 -0.00000000000E+00 -0.00000000000E+00 -0.33459396825E+03  0.33459396825E+03  0.00000000000E+00 0. -1.
         25    2    1    2    0    0 -0.25781886531E+02  0.58381710963E+02  0.18607710223E+03  0.23307980373E+03  0.12501350759E+03 0.  0.
          2    1    1    2  501    0 -0.30503875457E+02 -0.18783894293E+02 -0.30839221946E+03  0.31046591137E+03  0.00000000000E+00 0. -1.
          1    1    1    2  502    0  0.56285761987E+02 -0.39597816670E+02  0.71007762484E+03  0.71340472901E+03  0.00000000000E+00 0. -1.
         22    1    3    3    0    0 -0.70883536449E+02  0.16750342778E+02  0.13429892846E+03  0.15277844059E+03  0.00000000000E+00 0.  1.
         22    1    3    3    0    0  0.45101649919E+02  0.41631368186E+02  0.51778173773E+02  0.80301363137E+02  0.00000000000E+00 0.  1.
</event>
<event>
 7    1  0.6510186E-006  0.6296800E+02  0.7818608E-02  0.1499575E+00
          2   -1    0    0  502    0  0.00000000000E+00  0.00000000000E+00  0.23978075549E+03  0.23978075549E+03  0.00000000000E+00 0. -1.
          1   -1    0    0  501    0 -0.00000000000E+00 -0.00000000000E+00 -0.87377733747E+03  0.87377733747E+03  0.00000000000E+00 0. -1.
         25    2    1    2    0    0  0.43069183999E+02 -0.73971397984E+02 -0.22479247299E+03  0.27107633314E+03  0.12499600051E+03 0.  0.
          2    1    1    2  501    0 -0.21630623634E+02  0.57632942740E+02 -0.62348280450E+03  0.62651436335E+03  0.00000000000E+00 0. -1.
          1    1    1    2  502    0 -0.21438560365E+02  0.16338455244E+02  0.21427869551E+03  0.21596739648E+03  0.00000000000E+00 0. -1.
         22    1    3    3    0    0  0.73955371632E+02 -0.92188257308E+01 -0.14967756318E+03  0.16720573154E+03  0.00000000000E+00 0. -1.
         22    1    3    3    0    0 -0.30886187633E+02 -0.64752572253E+02 -0.75114909815E+02  0.10387060160E+03  0.00000000000E+00 0. -1.
</event>
<event>
 7    1  0.6510186E-006  0.1511282E+03  0.7818608E-02  0.1271531E+00
          2   -1    0    0  502    0  0.00000000000E+00  0.00000000000E+00  0.11058366664E+04  0.11058366664E+04  0.00000000000E+00 0. -1.
          1   -1    0    0  501    0 -0.00000000000E+00 -0.00000000000E+00 -0.11843381526E+03  0.11843381526E+03  0.00000000000E+00 0. -1.
         25    2    1    2    0    0 -0.11770202704E+03 -0.27618450650E+02  0.17325163548E+03  0.24547541784E+03  0.12500202232E+03 0.  0.
          2    1    1    2  501    0 -0.37914919586E+02  0.61165540293E+02 -0.57880399378E+02  0.92352071329E+02  0.00000000000E+00 0. -1.
          1    1    1    2  502    0  0.15561694662E+03 -0.33547089644E+02  0.87203161503E+03  0.88644299248E+03  0.00000000000E+00 0. -1.
         22    1    3    3    0    0  0.24097120387E+02  0.10849452268E+02  0.33832701517E+02  0.42930566237E+02  0.00000000000E+00 0.  1.
         22    1    3    3    0    0 -0.14179914742E+03 -0.38467902917E+02  0.13941893396E+03  0.20254485161E+03  0.00000000000E+00 0.  1.
</event>
<event>
 7    1  0.6510186E-006  0.1462773E+03  0.7818608E-02  0.1226244E+00
          2   -1    0    0  502    0  0.00000000000E+00  0.00000000000E+00  0.26649651958E+04  0.26649651958E+04  0.00000000000E+00 0. -1.
          1   -1    0    0  501    0 -0.00000000000E+00 -0.00000000000E+00 -0.11467635870E+04  0.11467635870E+04  0.00000000000E+00 0. -1.
         25    2    1    2    0    0  0.12123236320E+03 -0.21911917890E+03 -0.13556133166E+03  0.31098521432E+03  0.12499771371E+03 0.  0.
          2    1    1    2  501    0 -0.92038011765E+02  0.10582452681E+03 -0.91682724930E+03  0.92749233482E+03  0.00000000000E+00 0. -1.
          1    1    1    2  502    0 -0.29194351437E+02  0.11329465210E+03  0.25705901897E+04  0.25732512337E+04  0.00000000000E+00 0. -1.
         22    1    3    3    0    0  0.37320331486E+02 -0.69097175861E+02  0.17909970018E+02  0.80548084274E+02  0.00000000000E+00 0.  1.
         22    1    3    3    0    0  0.83912031716E+02 -0.15002200304E+03 -0.15347130168E+03  0.23043713005E+03  0.00000000000E+00 0.  1.
</event>
<event>
 7    1  0.7228793E-006  0.5649489E+02  0.7818608E-02  0.1427501E+00
          2   -1    0    0  502    0  0.00000000000E+00  0.00000000000E+00  0.62312429376E+03  0.62312429376E+03  0.00000000000E+00 0. -1.
          1   -1    0    0  501    0 -0.00000000000E+00 -0.00000000000E+00 -0.11101696246E+04  0.11101696246E+04  0.00000000000E+00 0. -1.
         25    2    1    2    0    0 -0.10956083142E+02 -0.59962776962E+02 -0.41311400467E+03  0.43589507015E+03  0.12500304374E+03 0.  0.
          2    1    1    2  501    0  0.50666481128E+02  0.28607201143E+02 -0.68338046327E+03  0.68585298850E+03  0.00000000000E+00 0. -1.
          1    1    1    2  502    0 -0.39710397986E+02  0.31355575819E+02  0.60944913709E+03  0.61154585972E+03  0.00000000000E+00 0. -1.
         22    1    3    3    0    0  0.30651345425E+02 -0.31968855025E+02 -0.36049990816E+03  0.36321026480E+03  0.00000000000E+00 0.  1.
         22    1    3    3    0    0 -0.41607428566E+02 -0.27993921937E+02 -0.52614096510E+02  0.72684805351E+02  0.00000000000E+00 0.  1.
</event>
<event>
 7    1  0.6510186E-006  0.1836006E+03  0.7818608E-02  0.1203563E+00
          2   -1    0    0  502    0  0.00000000000E+00  0.00000000000E+00  0.25366280103E+04  0.25366280103E+04  0.00000000000E+00 0. -1.
          1   -1    0    0  501    0 -0.00000000000E+00 -0.00000000000E+00 -0.39677141244E+03  0.39677141244E+03  0.00000000000E+00 0. -1.
         25    2    1    2    0    0 -0.15525698811E+03  0.53135249058E+01  0.90211872000E+03  0.92389193494E+03  0.12500062627E+03 0.  0.
          2    1    1    2  501    0 -0.19273054636E+02  0.11694101308E+03 -0.36958386212E+03  0.38812225176E+03  0.00000000000E+00 0. -1.
          1    1    1    2  502    0  0.17453004275E+03 -0.12225453798E+03  0.16073217400E+04  0.16213852361E+04  0.00000000000E+00 0. -1.
         22    1    3    3    0    0 -0.71981502929E+02  0.61441342222E+02  0.53397572455E+03  0.54229738125E+03  0.00000000000E+00 0. -1.
         22    1    3    3    0    0 -0.83275485180E+02 -0.56127817316E+02  0.36814299544E+03  0.38159455369E+03  0.00000000000E+00 0. -1.
</event>
<event>
 7    1  0.1154212E-005  0.6026390E+02  0.7818608E-02  0.1489397E+00
          2   -1    0    0  502    0  0.00000000000E+00  0.00000000000E+00  0.15023485311E+04  0.15023485311E+04  0.00000000000E+00 0. -1.
          1   -1    0    0  501    0 -0.00000000000E+00 -0.00000000000E+00 -0.93843893387E+03  0.93843893387E+03  0.00000000000E+00 0. -1.
         25    2    1    2    0    0  0.66220451691E+02 -0.34391591063E+02 -0.45049252323E+03  0.47342992415E+03  0.12499779934E+03 0.  0.
          2    1    1    2  501    0 -0.27745700978E+02 -0.11977380932E+02 -0.47538895118E+03  0.47634854516E+03  0.00000000000E+00 0. -1.
          1    1    1    2  502    0 -0.38474750713E+02  0.46368971995E+02  0.14897910716E+04  0.14910089956E+04  0.00000000000E+00 0. -1.
         22    1    3    3    0    0 -0.20830252913E+02 -0.45488446232E+02 -0.96213226966E+02  0.10844391740E+03  0.00000000000E+00 0.  1.
         22    1    3    3    0    0  0.87050704604E+02  0.11096855170E+02 -0.35427929626E+03  0.36498600676E+03  0.00000000000E+00 0.  1.
</event>
<event>
 7    1  0.6510186E-006  0.3118341E+02  0.7818608E-02  0.1639493E+00
          2   -1    0    0  502    0  0.00000000000E+00  0.00000000000E+00  0.35574020392E+02  0.35574020392E+02  0.00000000000E+00 0. -1.
          1   -1    0    0  501    0 -0.00000000000E+00 -0.00000000000E+00 -0.17349056090E+04  0.17349056090E+04  0.00000000000E+00 0. -1.
         25    2    1    2    0    0 -0.52275669852E+02 -0.11323726771E+02 -0.10878085758E+04  0.10962728938E+04  0.12500315111E+03 0.  0.
          2    1    1    2  501    0  0.21577703777E+02  0.68210904271E+01 -0.63493504886E+03  0.63533820982E+03  0.00000000000E+00 0. -1.
          1    1    1    2  502    0  0.30697966075E+02  0.45026363444E+01  0.23412036086E+02  0.38868525684E+02  0.00000000000E+00 0. -1.
         22    1    3    3    0    0  0.11172043734E+02 -0.16278981326E+02 -0.26441764052E+02  0.32999798187E+02  0.00000000000E+00 0.  1.
         22    1    3    3    0    0 -0.63447713586E+02  0.49552545548E+01 -0.10613668117E+04  0.10632730957E+04  0.00000000000E+00 0.  1.
</event>
<event>
 7    1  0.6510186E-006  0.1172641E+03  0.7818608E-02  0.1319392E+00
          2   -1    0    0  502    0  0.00000000000E+00  0.00000000000E+00  0.37154552444E+03  0.37154552444E+03  0.00000000000E+00 0. -1.
          1   -1    0    0  501    0 -0.00000000000E+00 -0.00000000000E+00 -0.14616962188E+04  0.14616962188E+04  0.00000000000E+00 0. -1.
         25    2    1    2    0    0  0.27445566074E+02  0.14202114570E+03 -0.33473384307E+03  0.38548025250E+03  0.12500005780E+03 0.  0.
          2    1    1    2  501    0  0.24245978578E+02 -0.11262996855E+03 -0.10959937789E+04  0.11020325497E+04  0.00000000000E+00 0. -1.
          1    1    1    2  502    0 -0.51691544652E+02 -0.29391177148E+02  0.34057692757E+03  0.34572894105E+03  0.00000000000E+00 0. -1.
         22    1    3    3    0    0 -0.48926523803E+02  0.63051612091E+02 -0.16513989982E+03  0.18341345925E+03  0.00000000000E+00 0. -1.
         22    1    3    3    0    0  0.76372089878E+02  0.78969533608E+02 -0.16959394325E+03  0.20206679326E+03  0.00000000000E+00 0. -1.
</event>
<event>
 7    1  0.6510186E-006  0.1487199E+03  0.7818608E-02  0.1330886E+00
          2   -1    0    0  502    0  0.00000000000E+00  0.00000000000E+00  0.44897139577E+03  0.44897139577E+03  0.00000000000E+00 0. -1.
          1   -1    0    0  501    0 -0.00000000000E+00 -0.00000000000E+00 -0.76860862868E+03  0.76860862868E+03  0.00000000000E+00 0. -1.
         25    2    1    2    0    0  0.54291473660E+02 -0.11755695057E+03 -0.33094111079E+03  0.37671844703E+03  0.12501027471E+03 0.  0.
          2    1    1    2  501    0 -0.93414059969E+02  0.13375984787E+03 -0.39759965972E+03  0.42977130303E+03  0.00000000000E+00 0. -1.
          1    1    1    2  502    0  0.39122586308E+02 -0.16202897298E+02  0.40890353759E+03  0.41109027439E+03  0.00000000000E+00 0. -1.
         22    1    3    3    0    0 -0.37965225218E+00 -0.11032855355E+01 -0.17304173154E+03  0.17304566516E+03  0.00000000000E+00 0. -1.
         22    1    3    3    0    0  0.54671125913E+02 -0.11645366504E+03 -0.15789937925E+03  0.20367278187E+03  0.00000000000E+00 0. -1.
</event>
<event>
 7    1  0.6510186E-006  0.2339653E+02  0.7818608E-02  0.1687014E+00
          2   -1    0    0  502    0  0.00000000000E+00  0.00000000000E+00  0.19438326263E+04  0.19438326263E+04  0.00000000000E+00 0. -1.
          1   -1    0    0  501    0 -0.00000000000E+00 -0.00000000000E+00 -0.16652107499E+02  0.16652107499E+02  0.00000000000E+00 0. -1.
         25    2    1    2    0    0  0.23426266162E+02 -0.37057988846E+02  0.16970576934E+04  0.17022205937E+04  0.12501220094E+03 0.  0.
          2    1    1    2  501    0 -0.18239601922E+02  0.14482455527E+02 -0.34512162203E+01  0.23544330311E+02  0.00000000000E+00 0. -1.
          1    1    1    2  502    0 -0.51866642398E+01  0.22575533319E+02  0.23357404157E+03  0.23471980975E+03  0.00000000000E+00 0. -1.
         22    1    3    3    0    0 -0.26248765032E+02 -0.66735191269E+02  0.75913280147E+03  0.76251242199E+03  0.00000000000E+00 0.  1.
         22    1    3    3    0    0  0.49675031194E+02  0.29677202423E+02  0.93792489193E+03  0.93970817170E+03  0.00000000000E+00 0.  1.
</event>
<event>
 7    1  0.6510186E-006  0.7196628E+02  0.7818608E-02  0.1396089E+00
          2   -1    0    0  502    0  0.00000000000E+00  0.00000000000E+00  0.19142270037E+04  0.19142270037E+04  0.00000000000E+00 0. -1.
          1   -1    0    0  501    0 -0.00000000000E+00 -0.00000000000E+00 -0.18841979004E+03  0.18841979004E+03  0.00000000000E+00 0. -1.
         25    2    1    2    0    0  0.50998834038E+01 -0.94735799522E+02  0.78373251122E+01  0.15712226382E+03  0.12500040640E+03 0.  0.
          2    1    1    2  501    0  0.35981474450E+02  0.35749346573E+02 -0.10738165634E+03  0.11875816773E+03  0.00000000000E+00 0. -1.
          1    1    1    2  502    0 -0.41081357853E+02  0.58986452949E+02  0.18253515449E+04  0.18267663622E+04  0.00000000000E+00 0. -1.
         22    1    3    3    0    0  0.20884486224E+02 -0.56575228726E+02 -0.55204674591E+02  0.81758634816E+02  0.00000000000E+00 0. -1.
         22    1    3    3    0    0 -0.15784602820E+02 -0.38160570796E+02  0.63041999703E+02  0.75363629001E+02  0.00000000000E+00 0. -1.
</event>
<event>
 7    1  0.6510186E-006  0.1503507E+03  0.7818608E-02  0.1297882E+00
          2   -1    0    0  502    0  0.00000000000E+00  0.00000000000E+00  0.21978715279E+04  0.21978715279E+04  0.00000000000E+00 0. -1.
          1   -1    0    0  501    0 -0.00000000000E+00 -0.00000000000E+00 -0.49006869292E+03  0.49006869292E+03  0.00000000000E+00 0. -1.
         25    2    1    2    0    0  0.12335254181E+03 -0.90731504222E+01 -0.11312359476E+02  0.17621625063E+03  0.12500410346E+03 0.  0.
          2    1    1    2  501    0 -0.15127036353E+03 -0.39930375823E+02 -0.38047007039E+03  0.41138137082E+03  0.00000000000E+00 0. -1.
          1    1    1    2  502    0  0.27917821721E+02  0.49003526246E+02  0.20995852648E+04  0.21003425993E+04  0.00000000000E+00 0. -1.
         22    1    3    3    0    0 -0.18093574110E+02  0.24484515212E+02 -0.33077883035E+01  0.30623689730E+02  0.00000000000E+00 0. -1.
         22    1    3    3    0    0  0.14144611592E+03 -0.33557665634E+02 -0.80045711725E+01  0.14559256090E+03  0.00000000000E+00 0. -1.
</event>
<event>
 7    1  0.6510186E-006  0.3134364E+02  0.7818608E-02  0.1605473E+00
          2   -1    0    0  502    0  0.00000000000E+00  0.00000000000E+00  0.23752728107E+04  0.23752728107E+04  0.00000000000E+00 0. -1.
          1   -1    0    0  501    0 -0.00000000000E+00 -0.00000000000E+00 -0.86730950437E+03  0.86730950437E+03  0.00000000000E+00 0. -1.
         25    2    1    2    0    0 -0.35993454245E+02  0.77220247174E+01  0.11118263312E+04  0.11194367600E+04  0.12500284222E+03 0.  0.
          2    1    1    2  501    0  0.99138313835E+01 -0.25617537496E+02 -0.86308720390E+03  0.86352421148E+03  0.00000000000E+00 0. -1.
          1    1    1    2  502    0  0.26079622861E+02  0.17895512778E+02  0.12592241791E+04  0.12596213436E+04  0.00000000000E+00 0. -1.
         22    1    3    3    0    0 -0.59157259369E+02 -0.20418032651E+02  0.99705622426E+03  0.99901831401E+03  0.00000000000E+00 0. -1.
         22    1    3    3    0    0  0.23163805124E+02  0.28140057368E+02  0.11477010691E+03  0.12041844600E+03  0.00000000000E+00 0. -1.
</event>
<event>
 7    1  0.6510186E-006  0.1131910E+03  0.7818608E-02  0.1448178E+00
          2   -1    0    0  502    0  0.00000000000E+00  0.00000000000E+00  0.21194525912E+04  0.21194525912E+04  0.00000000000E+00 0. -1.
          1   -1    0    0  501    0 -0.00000000000E+00 -0.00000000000E+00 -0.68102089204E+02  0.68102089204E+02  0.00000000000E+00 0. -1.
         25    2    1    2    0    0  0.25106245749E+01 -0.94532052718E+02  0.60516225154E+03  0.62513188416E+03  0.12500363865E+03 0.  0.
          2    1    1    2  501    0  0.49663407681E+01  0.11482631061E+03 -0.11337080415E+01  0.11493925110E+03  0.00000000000E+00 0. -1.
          1    1    1    2  502    0 -0.74769653430E+01 -0.20294257895E+02  0.14473219585E+04  0.14474835452E+04  0.00000000000E+00 0. -1.
         22    1    3    3    0    0 -0.10046139064E+02 -0.10615217167E+02  0.58257177299E+00  0.14626931854E+02  0.00000000000E+00 0.  1.
         22    1    3    3    0    0  0.12556763639E+02 -0.83916835551E+02  0.60457967977E+03  0.61050495231E+03  0.00000000000E+00 0.  1.
</event>
<event>
 7    1  0.6510186E-006  0.1473655E+03  0.7818608E-02  0.1349127E+00
          2   -1    0    0  502    0  0.00000000000E+00  0.00000000000E+00  0.22505971546E+04  0.22505971546E+04  0.00000000000E+00 0. -1.
          1   -1    0    0  501    0 -0.00000000000E+00 -0.00000000000E+00 -0.35232012825E+03  0.35232012825E+03  0.00000000000E+00 0. -1.
         25    2    1    2    0    0  0.15238216709E+03 -0.89736217968E+02  0.42020322041E+03  0.47272571509E+03  0.12500376635E+03 0.  0.
          2    1    1    2  501    0 -0.36241158504E+02  0.42364467758E+01 -0.32214519647E+03  0.32420502257E+03  0.00000000000E+00 0. -1.
          1    1    1    2  502    0 -0.11614100859E+03  0.85499771193E+02  0.18002190024E+04  0.18059865452E+04  0.00000000000E+00 0. -1.
         22    1    3    3    0    0  0.28341212428E+02 -0.28770007113E+02  0.25109061741E+03  0.25431758842E+03  0.00000000000E+00 0.  1.
         22    1    3    3    0    0  0.12404095467E+03 -0.60966210855E+02  0.16911260300E+03  0.21840812667E+03  0.00000000000E+00 0.  1.
</event>
<event>
 7    1  0.6510186E-006  0.1899717E+03  0.7818608E-02  0.1302695E+00
          2   -1    0    0  502    0  0.00000000000E+00  0.00000000000E+00  0.13155644953E+04  0.13155644953E+04  0.00000000000E+00 0. -1.
          1   -1    0    0  501    0 -0.00000000000E+00 -0.00000000000E+00 -0.20171143197E+04  0.20171143197E+04  0.00000000000E+00 0. -1.
         25    2    1    2    0    0 -0.17137359557E+03 -0.41402817044E+02  0.63628788872E+02  0.22530013432E+03  0.12501370018E+03 0.  0.
          2    1    1    2  501    0  0.19052186384E+03  0.32375579357E+01 -0.19311989245E+04  0.19405768082E+04  0.00000000000E+00 0. -1.
          1    1    1    2  502    0 -0.19148268269E+02  0.38165259108E+02  0.11660203113E+04  0.11668018724E+04  0.00000000000E+00 0. -1.
         22    1    3    3    0    0 -0.18799892607E+03 -0.29260544855E+02  0.71508232125E+02  0.20325649547E+03  0.00000000000E+00 0. -1.
         22    1    3    3    0    0  0.16625330495E+02 -0.12142272189E+02 -0.78794432539E+01  0.22043638855E+02  0.00000000000E+00 0. -1.
</event>
<event>
 7    1  0.6510186E-006  0.9744016E+02  0.7818608E-02  0.1353791E+00
          2   -1    0    0  502    0  0.00000000000E+00  0.00000000000E+00  0.16397883006E+04  0.16397883006E+04  0.00000000000E+00 0. -1.
          1   -1    0    0  501    0 -0.00000000000E+00 -0.00000000000E+00 -0.56633933572E+03  0.56633933572E+03  0.00000000000E+00 0. -1.
         25    2    1    2    0    0 -0.63561915102E+02 -0.23349647521E+02  0.20413552329E+02  0.14362401999E+03  0.12500329159E+03 0.  0.
          2    1    1    2  501    0 -0.33204386207E+02  0.41354569932E+02 -0.50178045204E+03  0.50457541931E+03  0.00000000000E+00 0. -1.
          1    1    1    2  502    0  0.96766301310E+02 -0.18004922411E+02  0.15548158646E+04  0.15579281970E+04  0.00000000000E+00 0. -1.
         22    1    3    3    0    0 -0.83286821334E+02  0.20444880658E+02 -0.10656894812E+02  0.86419078681E+02  0.00000000000E+00 0.  1.
         22    1    3    3    0    0  0.19724906232E+02 -0.43794528178E+02  0.31070447142E+02  0.57204941306E+02  0.00000000000E+00 0.  1.
</event>
<event>
 7    1  0.6510186E-006  0.4554701E+02  0.7818608E-02  0.1516668E+00
          2   -1    0    0  502    0  0.00000000000E+00  0.00000000000E+00  0.17796898630E+02  0.17796898630E+02  0.00000000000E+00 0. -1.
          1   -1    0    0  501    0 -0.00000000000E+00 -0.00000000000E+00 -0.17972258141E+04  0.17972258141E+04  0.00000000000E+00 0. -1.
         25    2    1    2    0    0 -0.15871380707E+02 -0.51036320405E+02 -0.91281228717E+03  0.92288014441E+03  0.12499953046E+03 0.  0.
          2    1    1    2  501    0  0.37690495690E+02  0.26042344602E+02 -0.85611851089E+03  0.85734338621E+03  0.00000000000E+00 0. -1.
          1    1    1    2  502    0 -0.21819114982E+02  0.24993975803E+02 -0.10498117375E+02  0.34799182080E+02  0.00000000000E+00 0. -1.
         22    1    3    3    0    0  0.29791403317E+01  0.14262798348E+02 -0.10374615283E+02  0.17886736318E+02  0.00000000000E+00 0. -1.
         22    1    3    3    0    0 -0.18850521039E+02 -0.65299118753E+02 -0.90243767188E+03  0.90499340809E+03  0.00000000000E+00 0. -1.
</event>
<event>
 7    1  0.6510186E-006  0.7299520E+02  0.7818608E-02  0.1416777E+00
          2   -1    0    0  502    0  0.00000000000E+00  0.00000000000E+00  0.10962541143E+04  0.10962541143E+04  0.00000000000E+00 0. -1.
          1   -1    0    0  501    0 -0.00000000000E+00 -0.00000000000E+00 -0.11344068845E+03  0.11344068845E+03  0.00000000000E+00 0. -1.
         25    2    1    2    0    0  0.34633120567E+02 -0.29614220118E+02  0.32286706059E+03  0.34920060644E+03  0.12498587781E+03 0.  0.
          2    1    1    2  501    0 -0.23396321925E+02  0.70618415433E+02 -0.85786522446E+02  0.11355032326E+03  0.00000000000E+00 0. -1.
          1    1    1    2  502    0 -0.11236798642E+02 -0.41004195315E+02  0.74573288775E+03  0.74694387309E+03  0.00000000000E+00 0. -1.
         22    1    3    3    0    0  0.20376748860E+01 -0.69881534176E+02  0.25134553762E+03  0.26088725576E+03  0.00000000000E+00 0.  1.
         22    1    3    3    0    0  0.32595445681E+02  0.40267314057E+02  0.71521522972E+02  0.88313350683E+02  0.00000000000E+00 0.  1.
</event>
<event>
 7    1  0.6510186E-006  0.6132052E+02  0.7818608E-02  0.1404285E+00
          2   -1    0    0  502    0  0.00000000000E+00  0.00000000000E+00  0.41454643279E+03  0.41454643279E+03  0.00000000000E+00 0. -1.
          1   -1    0    0  501    0 -0.00000000000E+00 -0.00000000000E+00 -0.82964845137E+03  0.82964845137E+03  0.00000000000E+00 0. -1.
         25    2    1    2    0    0  0.20986738841E+02  0.31407737114E+02  0.12813937584E+03  0.18294400573E+03  0.12498768112E+03 0.  0.
          2    1    1    2  501    0  0.46612391879E+02 -0.30652765088E+02 -0.79684288625E+03  0.79879339785E+03  0.00000000000E+00 0. -1.
          1    1    1    2  502    0 -0.67599130720E+02 -0.75497202553E+00  0.25360149182E+03  0.26245748058E+03  0.00000000000E+00 0. -1.
         22    1    3    3    0    0  0.46528226008E+02  0.70139436767E+02  0.81701007854E+02  0.11730077191E+03  0.00000000000E+00 0. -1.
         22    1    3    3    0    0 -0.25541487167E+02 -0.38731699654E+02  0.46438367989E+02  0.65643233819E+02  0.00000000000E+00 0. -1.
</event>
<event>
 7    1  0.6510186E-006  0.5462440E+02  0.7818608E-02  0.1451339E+00
          2   -1    0    0  502    0  0.00000000000E+00  0.00000000000E+00  0.39307015470E+03  0.39307015470E+03  0.00000000000E+00 0. -1.
          1   -1    0    0  501    0 -0.00000000000E+00 -0.00000000000E+00 -0.71421545838E+02  0.71421545838E+02  0.00000000000E+00 0. -1.
         25    2    1    2    0    0 -0.16374955844E+02 -0.37074908404E+02  0.22040079559E+02  0.13324544133E+03  0.12500357801E+03 0.  0.
          2    1    1    2  501    0  0.59706848018E+02  0.38157410535E+01  0.57246521256E+02  0.82804781118E+02  0.00000000000E+00 0. -1.
          1    1    1    2  502    0 -0.43331892174E+02  0.33259167351E+02  0.24236200805E+03  0.24844147809E+03  0.00000000000E+00 0. -1.
         22    1    3    3    0    0 -0.13817781605E+02 -0.71553732479E+02 -0.23042653391E+02  0.76431875520E+02  0.00000000000E+00 0. -1.
         22    1    3    3    0    0 -0.25571742390E+01  0.34478824075E+02  0.45082732950E+02  0.56813565809E+02  0.00000000000E+00 0. -1.
</event>
<event>
 7    1  0.6510186E-006  0.4875296E+02  0.7818608E-02  0.1464485E+00
          2   -1    0    0  502    0  0.00000000000E+00  0.00000000000E+00  0.14042462333E+03  0.14042462333E+03  0.00000000000E+00 0. -1.
          1   -1    0    0  501    0 -0.00000000000E+00 -0.00000000000E+00 -0.85939785559E+03  0.85939785559E+03  0.00000000000E+00 0. -1.
         25    2    1    2    0    0  0.28509935668E+02  0.61949816927E+02 -0.27696646905E+03  0.31140922408E+03  0.12495872766E+03 0.  0.
          2    1    1    2  501    0 -0.41928630257E+02 -0.15135969557E+02 -0.55947623411E+03  0.56124928877E+03  0.00000000000E+00 0. -1.
          1    1    1    2  502    0  0.13418694589E+02 -0.46813847370E+02  0.11746947091E+03  0.12716396607E+03  0.00000000000E+00 0. -1.
         22    1    3    3    0    0 -0.66043270708E+00  0.43322750059E+02 -0.13074761664E+02  0.45257554470E+02  0.00000000000E+00 0.  1.
         22    1    3    3    0    0  0.29170368375E+02  0.18627066868E+02 -0.26389170738E+03  0.26615166961E+03  0.00000000000E+00 0.  1.
</event>
<event>
 7    1  0.6510186E-006  0.6186112E+02  0.7818608E-02  0.1471693E+00
          2   -1    0    0  502    0  0.00000000000E+00  0.00000000000E+00  0.51256511302E+03  0.51256511302E+03  0.00000000000E+00 0. -1.
          1   -1    0    0  501    0 -0.00000000000E+00 -0.00000000000E+00 -0.17308551773E+04  0.17308551773E+04  0.00000000000E+00 0. -1.
         25    2    1    2    0    0 -0.23879433155E+02 -0.36055790850E+02  0.84840520543E+02  0.15713980216E+03  0.12499902445E+03 0.  0.
          2    1    1    2  501    0  0.28035192607E+01  0.61913613288E+02 -0.16934271502E+04  0.16945609072E+04  0.00000000000E+00 0. -1.
          1    1    1    2  502    0  0.21075913894E+02 -0.25857822438E+02  0.39029656539E+03  0.39171958093E+03  0.00000000000E+00 0. -1.
         22    1    3    3    0    0 -0.16174343933E+02 -0.69962508149E+02  0.96660663369E+02  0.12041447501E+03  0.00000000000E+00 0. -1.
         22    1    3    3    0    0 -0.77050892220E+01  0.33906717299E+02 -0.11820142826E+02  0.36725327151E+02  0.00000000000E+00 0. -1.
</event>
<event>
 7    1  0.6510186E-006  0.1028725E+03  0.7818608E-02  0.1301723E+00
          2   -1    0    0  502    0  0.00000000000E+00  0.00000000000E+00  0.96076036481E+03  0.96076036481E+03  0.00000000000E+00 0. -1.
          1   -1    0    0  501    0 -0.00000000000E+00 -0.00000000000E+00 -0.48543658017E+02  0.48543658017E+02  0.00000000000E+00 0. -1.
         25    2    1    2    0    0 -0.81491369804E+02 -0.49931303515E+02  0.29309592740E+03  0.33266211633E+03  0.12499953025E+03 0.  0.
          2    1    1    2  501    0  0.54734065873E+02 -0.57738498511E+02  0.43994407622E+02  0.90912375832E+02  0.00000000000E+00 0. -1.
          1    1    1    2  502    0  0.26757303930E+02  0.10766980203E+03  0.57512637178E+03  0.58572953067E+03  0.00000000000E+00 0. -1.
         22    1    3    3    0    0 -0.47352315063E+02 -0.17184673145E+02  0.27869808749E+03  0.28321401573E+03  0.00000000000E+00 0.  1.
         22    1    3    3    0    0 -0.34139054741E+02 -0.32746630369E+02  0.14397839901E+02  0.49448100600E+02  0.00000000000E+00 0.  1.
</event>
<event>
 7    1  0.6510186E-006  0.8841080E+02  0.7818608E-02  0.1331701E+00
          2   -1    0    0  502    0  0.00000000000E+00  0.00000000000E+00  0.10611113864E+04  0.10611113864E+04  0.00000000000E+00 0. -1.
          1   -1    0    0  501    0 -0.00000000000E+00 -0.00000000000E+00 -0.13370929489E+04  0.13370929489E+04  0.00000000000E+00 0. -1.
         25    2    1    2    0    0  0.75569059055E+02  0.11335289840E+03  0.18669705658E+02  0.18582673686E+03  0.12499382369E+03 0.  0.
          2    1    1    2  501    0 -0.65649358232E+02 -0.26303264950E+02 -0.12505118750E+04  0.12525101395E+04  0.00000000000E+00 0. -1.
          1    1    1    2  502    0 -0.99197008231E+01 -0.87049633450E+02  0.95586060682E+03  0.95986745899E+03  0.00000000000E+00 0. -1.
         22    1    3    3    0    0  0.14366994678E+02 -0.24434876046E+02 -0.13915418260E+02  0.31577089302E+02  0.00000000000E+00 0. -1.
         22    1    3    3    0    0  0.61202064377E+02  0.13778777445E+03  0.32585123918E+02  0.15424964756E+03  0.00000000000E+00 0. -1.
</event>
<event>
 7    1  0.6510186E-006  0.5297778E+02  0.7818608E-02  0.1448044E+00
          2   -1    0    0  502    0  0.00000000000E+00  0.00000000000E+00  0.14604896560E+04  0.14604896560E+04  0.00000000000E+00 0. -1.
          1   -1    0    0  501    0 -0.00000000000E+00 -0.00000000000E+00 -0.44532568197E+02  0.44532568197E+02  0.00000000000E+00 0. -1.
         25    2    1    2    0    0 -0.40656409346E+02 -0.56892169502E+02  0.79979187594E+03  0.81251559450E+03  0.12499953568E+03 0.  0.
          2    1    1    2  501    0 -0.10558160198E+02  0.45033766444E+02 -0.22670358791E+02  0.51511746569E+02  0.00000000000E+00 0. -1.
          1    1    1    2  502    0  0.51214569544E+02  0.11858403059E+02  0.63883557061E+03  0.64099488308E+03  0.00000000000E+00 0. -1.
         22    1    3    3    0    0 -0.20135293610E+02  0.13397932960E+02  0.58661391799E+03  0.58711227498E+03  0.00000000000E+00 0. -1.
         22    1    3    3    0    0 -0.20521115736E+02 -0.70290102463E+02  0.21317795795E+03  0.22540331952E+03  0.00000000000E+00 0. -1.
</event>
<event>
 7    1  0.6510186E-006  0.3131331E+02  0.7818608E-02  0.1647824E+00
          2   -1    0    0  502    0  0.00000000000E+00  0.00000000000E+00  0.25552954400E+04  0.25552954400E+04  0.00000000000E+00 0. -1.
          1   -1    0    0  501    0 -0.00000000000E+00 -0.00000000000E+00 -0.45343088974E+01  0.45343088974E+01  0.00000000000E+00 0. -1.
         25    2    1    2    0    0  0.31784908695E+02  0.22074158258E+02  0.14742204192E+04  0.14800165653E+04  0.12500256049E+03 0.  0.
          2    1    1    2  501    0 -0.59996800720E+00 -0.21484284979E+02  0.81579329756E+02  0.84363034002E+02  0.00000000000E+00 0. -1.
          1    1    1    2  502    0 -0.31184940688E+02 -0.58987327869E+00  0.99496138208E+03  0.99545014958E+03  0.00000000000E+00 0. -1.
         22    1    3    3    0    0  0.47886121830E+02 -0.13945658498E+02  0.13162142525E+04  0.13171588820E+04  0.00000000000E+00 0.  1.
         22    1    3    3    0    0 -0.16101213135E+02  0.36019816755E+02  0.15800616673E+03  0.16285768324E+03  0.00000000000E+00 0.  1.
</event>
<event>
 7    1  0.6510186E-006  0.2773230E+03  0.7818608E-02  0.1263125E+00
          2   -1    0    0  502    0  0.00000000000E+00  0.00000000000E+00  0.78200470237E+03  0.78200470237E+03  0.00000000000E+00 0. -1.
          1   -1    0    0  501    0 -0.00000000000E+00 -0.00000000000E+00 -0.26802405928E+03  0.26802405928E+03  0.00000000000E+00 0. -1.
         25    2    1    2    0    0 -0.10887215393E+03 -0.22700275276E+03  0.76391934294E+01  0.28118759181E+03  0.12499883539E+03 0.  0.
          2    1    1    2  501    0  0.14002455877E+02 -0.40182880624E+02 -0.94953534456E+02  0.10405242127E+03  0.00000000000E+00 0. -1.
          1    1    1    2  502    0  0.94869698056E+02  0.26718563338E+03  0.60129498412E+03  0.66478874857E+03  0.00000000000E+00 0. -1.
         22    1    3    3    0    0 -0.77501067459E+01 -0.23349412752E+02 -0.41795468430E+02  0.48498664019E+02  0.00000000000E+00 0.  1.
         22    1    3    3    0    0 -0.10112204719E+03 -0.20365334001E+03  0.49434661859E+02  0.23268892779E+03  0.00000000000E+00 0.  1.
</event>
<event>
 7    1  0.6510186E-006  0.5800497E+02  0.7818608E-02  0.1443090E+00
          2   -1    0    0  502    0  0.00000000000E+00  0.00000000000E+00  0.66072885866E+03  0.66072885866E+03  0.00000000000E+00 0. -1.
          1   -1    0    0  501    0 -0.00000000000E+00 -0.00000000000E+00 -0.75960052239E+03  0.75960052239E+03  0.00000000000E+00 0. -1.
         25    2    1    2    0    0  0.15676493423E+02  0.51159143343E+01 -0.11486873326E+03  0.17056269178E+03  0.12499952367E+03 0.  0.
          2    1    1    2  501    0 -0.58819528917E+02 -0.12826036680E+02 -0.61465372263E+03  0.61759488578E+03  0.00000000000E+00 0. -1.
          1    1    1    2  502    0  0.43143035494E+02  0.77101223453E+01  0.63065079216E+03  0.63217180351E+03  0.00000000000E+00 0. -1.
         22    1    3    3    0    0 -0.48524339463E+01  0.49676238733E+02 -0.49081225572E+01  0.50153409424E+02  0.00000000000E+00 0. -1.
         22    1    3    3    0    0  0.20528927370E+02 -0.44560324398E+02 -0.10996061071E+03  0.12040928235E+03  0.00000000000E+00 0. -1.
</event>
<event>
 7    1  0.6928291E-006  0.1961451E+03  0.7818608E-02  0.1255061E+00
          2   -1    0    0  502    0  0.00000000000E+00  0.00000000000E+00  0.14843719654E+04  0.14843719654E+04  0.00000000000E+00 0. -1.
          1   -1    0    0  501    0 -0.00000000000E+00 -0.00000000000E+00 -0.15070813272E+04  0.15070813272E+04  0.00000000000E+00 0. -1.
         25    2    1    2    0    0 -0.18630629450E+03  0.52811587248E+02 -0.22650492766E+03  0.32315042653E+03  0.12499046682E+03 0.  0.
          2    1    1    2  501    0  0.25433586302E+02  0.59962567671E+02 -0.12246646977E+04  0.12263955310E+04  0.00000000000E+00 0. -1.
          1    1    1    2  502    0  0.16087270820E+03 -0.11277415492E+03  0.14284602635E+04  0.14419073350E+04  0.00000000000E+00 0. -1.
         22    1    3    3    0    0  0.60285943939E+01 -0.18522199983E+02 -0.45809537302E+02  0.49778806238E+02  0.00000000000E+00 0. -1.
         22    1    3    3    0    0 -0.19233488890E+03  0.71333787231E+02 -0.18069539035E+03  0.27337162029E+03  0.00000000000E+00 0. -1.
</event>
<event>
 7    1  0.6510186E-006  0.1091124E+03  0.7818608E-02  0.1380160E+00
          2   -1    0    0  502    0  0.00000000000E+00  0.00000000000E+00  0.13812444921E+04  0.13812444921E+04  0.00000000000E+00 0. -1.
          1   -1    0    0  501    0 -0.00000000000E+00 -0.00000000000E+00 -0.54460665715E+02  0.54460665715E+02  0.00000000000E+00 0. -1.
         25    2    1    2    0    0 -0.72198920321E+02 -0.51027213969E+02  0.63980051895E+03  0.65786425876E+03  0.12499687290E+03 0.  0.
          2    1    1    2  501    0 -0.12477485318E+02 -0.35930951792E+02 -0.31371693059E+02  0.49304199232E+02  0.00000000000E+00 0. -1.
          1    1    1    2  502    0  0.84676405639E+02  0.86958165762E+02  0.71835500044E+03  0.72853669978E+03  0.00000000000E+00 0. -1.
         22    1    3    3    0    0 -0.79655239659E+02 -0.85655816468E+02  0.51630729050E+03  0.52939124882E+03  0.00000000000E+00 0.  1.
         22    1    3    3    0    0  0.74563193384E+01  0.34628602499E+02  0.12349322845E+03  0.12847300994E+03  0.00000000000E+00 0.  1.
</event>
<event>
 7    1  0.6510186E-006  0.1120484E+03  0.7818608E-02  0.1346817E+00
          2   -1    0    0  502    0  0.00000000000E+00  0.00000000000E+00  0.20623450155E+04  0.20623450155E+04  0.00000000000E+00 0. -1.
          1   -1    0    0  501    0 -0.00000000000E+00 -0.00000000000E+00 -0.23952999008E+03  0.23952999008E+03  0.00000000000E+00 0. -1.
         25    2    1    2    0    0  0.83802078885E+02  0.51277952498E+02  0.36727612609E+02  0.16317413674E+03  0.12499865813E+03 0.  0.
          2    1    1    2  501    0  0.28272945172E+02 -0.39955107411E+02 -0.17125872248E+03  0.17811602978E+03  0.00000000000E+00 0. -1.
          1    1    1    2  502    0 -0.11207502406E+03 -0.11322845086E+02  0.19573461352E+04  0.19605848390E+04  0.00000000000E+00 0. -1.
         22    1    3    3    0    0  0.96869384638E+01  0.17268964605E+02 -0.44110381544E+02  0.48350591261E+02  0.00000000000E+00 0.  1.
         22    1    3    3    0    0  0.74115140421E+02  0.34008987893E+02  0.80837994154E+02  0.11482354548E+03  0.00000000000E+00 0.  1.
</event>
<event>
 7    1  0.6510186E-006  0.1004580E+03  0.7818608E-02  0.1331095E+00
          2   -1    0    0  502    0  0.00000000000E+00  0.00000000000E+00  0.14672501897E+04  0.14672501897E+04  0.00000000000E+00 0. -1.
          1   -1    0    0  501    0 -0.00000000000E+00 -0.00000000000E+00 -0.80351971777E+03  0.80351971777E+03  0.00000000000E+00 0. -1.
         25    2    1    2    0    0  0.80284888826E+02  0.40503287474E+02  0.53712237621E+03  0.55875698125E+03  0.12499094925E+03 0.  0.
          2    1    1    2  501    0 -0.98765180003E+02  0.19278612176E+02 -0.78843604629E+03  0.79483182168E+03  0.00000000000E+00 0. -1.
          1    1    1    2  502    0  0.18480291178E+02 -0.59781899650E+02  0.91504414204E+03  0.91718110457E+03  0.00000000000E+00 0. -1.
         22    1    3    3    0    0 -0.82566695860E+01  0.26442926310E+01 -0.37016250009E+01  0.94269244092E+01  0.00000000000E+00 0. -1.
         22    1    3    3    0    0  0.88541558412E+02  0.37858994843E+02  0.54082400121E+03  0.54933005684E+03  0.00000000000E+00 0. -1.
</event>
<event>
 7    1  0.6510186E-006  0.1904673E+03  0.7818608E-02  0.1280414E+00
          2   -1    0    0  502    0  0.00000000000E+00  0.00000000000E+00  0.34005064393E+04  0.34005064393E+04  0.00000000000E+00 0. -1.
          1   -1    0    0  501    0 -0.00000000000E+00 -0.00000000000E+00 -0.79084079304E+03  0.79084079304E+03  0.00000000000E+00 0. -1.
         25    2    1    2    0    0 -0.67432260984E+02 -0.15048340770E+03 -0.17112055007E+03  0.26851402805E+03  0.12500069916E+03 0.  0.
          2    1    1    2  501    0 -0.52407474561E+02  0.19501114535E+01 -0.56709591547E+03  0.56951569220E+03  0.00000000000E+00 0. -1.
          1    1    1    2  502    0  0.11983973555E+03  0.14853329624E+03  0.33478821118E+04  0.33533175121E+04  0.00000000000E+00 0. -1.
         22    1    3    3    0    0 -0.10390771513E+03 -0.97509194167E+02 -0.11378803997E+03  0.18235288385E+03  0.00000000000E+00 0. -1.
         22    1    3    3    0    0  0.36475454146E+02 -0.52974213532E+02 -0.57332510108E+02  0.86161144199E+02  0.00000000000E+00 0. -1.
</event>
<event>
 7    1  0.6510186E-006  0.1272248E+03  0.7818608E-02  0.1391317E+00
          2   -1    0    0  502    0  0.00000000000E+00  0.00000000000E+00  0.22666332264E+04  0.22666332264E+04  0.00000000000E+00 0. -1.
          1   -1    0    0  501    0 -0.00000000000E+00 -0.00000000000E+00 -0.42360343713E+03  0.42360343713E+03  0.00000000000E+00 0. -1.
         25    2    1    2    0    0 -0.11846334394E+03  0.10149635779E+03  0.43750753628E+03  0.48101250934E+03  0.12500046133E+03 0.  0.
          2    1    1    2  501    0  0.93188955335E+02 -0.85696416278E+02 -0.39175291703E+03  0.41170184012E+03  0.00000000000E+00 0. -1.
          1    1    1    2  502    0  0.25274388606E+02 -0.15799941516E+02  0.17972751700E+04  0.17975223141E+04  0.00000000000E+00 0. -1.
         22    1    3    3    0    0 -0.11649143343E+03  0.96202353023E+02  0.24110688535E+03  0.28453062569E+03  0.00000000000E+00 0.  1.
         22    1    3    3    0    0 -0.19719105152E+01  0.52940047707E+01  0.19640065093E+03  0.19648188365E+03  0.00000000000E+00 0.  1.
</event>
<event>
 7    1  0.6510186E-006  0.4586111E+03  0.7818608E-02  0.1053823E+00
          2   -1    0    0  502    0  0.00000000000E+00  0.00000000000E+00  0.26077995005E+04  0.26077995005E+04  0.00000000000E+00 0. -1.
          1   -1    0    0  501    0 -0.00000000000E+00 -0.00000000000E+00 -0.49568088071E+03  0.49568088071E+03  0.00000000000E+00 0. -1.
         25    2    1    2    0    0 -0.56798089740E+03 -0.29573782947E+03  0.16583089655E+03  0.67319224821E+03  0.12499901288E+03 0.  0.
          2    1    1    2  501    0  0.39182786501E+03  0.50178039218E+02 -0.61585387539E+02  0.39979953899E+03  0.00000000000E+00 0. -1.
          1    1    1    2  502    0  0.17615303239E+03  0.24555979025E+03  0.20078731108E+04  0.20304885940E+04  0.00000000000E+00 0. -1.
         22    1    3    3    0    0 -0.57882664745E+02  0.71775973571E+01  0.51256336809E+01  0.58550772005E+02  0.00000000000E+00 0. -1.
         22    1    3    3    0    0 -0.51009823265E+03 -0.30291542682E+03  0.16070526287E+03  0.61464147621E+03  0.00000000000E+00 0. -1.
</event>
<event>
 7    1  0.6510186E-006  0.1328182E+03  0.7818608E-02  0.1348238E+00
          2   -1    0    0  502    0  0.00000000000E+00  0.00000000000E+00  0.26676582408E+03  0.26676582408E+03  0.00000000000E+00 0. -1.
          1   -1    0    0  501    0 -0.00000000000E+00 -0.00000000000E+00 -0.11107385656E+04  0.11107385656E+04  0.00000000000E+00 0. -1.
         25    2    1    2    0    0  0.16956894952E+03 -0.62457855082E+01 -0.24644232391E+03  0.32427006133E+03  0.12499846072E+03 0.  0.
          2    1    1    2  501    0 -0.39232394760E+02  0.11176314224E+02 -0.80615875412E+03  0.80719020536E+03  0.00000000000E+00 0. -1.
          1    1    1    2  502    0 -0.13033655476E+03 -0.49305287160E+01  0.20862833656E+03  0.24604412294E+03  0.00000000000E+00 0. -1.
         22    1    3    3    0    0  0.18307578770E+03 -0.34298708424E+01 -0.25012900787E+03  0.30998875566E+03  0.00000000000E+00 0.  1.
         22    1    3    3    0    0 -0.13506838184E+02 -0.28159146658E+01  0.36866839557E+01  0.14281305673E+02  0.00000000000E+00 0.  1.
</event>
<event>
 7    1  0.6510186E-006  0.5732583E+02  0.7818608E-02  0.1441611E+00
          2   -1    0    0  502    0  0.00000000000E+00  0.00000000000E+00  0.85213762186E+03  0.85213762186E+03  0.00000000000E+00 0. -1.
          1   -1    0    0  501    0 -0.00000000000E+00 -0.00000000000E+00 -0.39312440199E+02  0.39312440199E+02  0.00000000000E+00 0. -1.
         25    2    1    2    0    0  0.21221904307E+02  0.19979107545E+02  0.99010330758E+02  0.16210578971E+03  0.12500282997E+03 0.  0.
          2    1    1    2  501    0 -0.35107587132E+02 -0.75597793543E+02  0.29240029787E+03  0.30404852122E+03  0.00000000000E+00 0. -1.
          1    1    1    2  502    0  0.13885682824E+02  0.55618685998E+02  0.42141455303E+03  0.42529575112E+03  0.00000000000E+00 0. -1.
         22    1    3    3    0    0 -0.55248547058E+01  0.70449358630E+02  0.47113915958E+02  0.84931485492E+02  0.00000000000E+00 0. -1.
         22    1    3    3    0    0  0.26746759013E+02 -0.50470251085E+02  0.51896414800E+02  0.77174304217E+02  0.00000000000E+00 0. -1.
</event>
<event>
 7    1  0.6510186E-006  0.3965309E+02  0.7818608E-02  0.1525419E+00
          2   -1    0    0  502    0  0.00000000000E+00  0.00000000000E+00  0.21227653481E+04  0.21227653481E+04  0.00000000000E+00 0. -1.
          1   -1    0    0  501    0 -0.00000000000E+00 -0.00000000000E+00 -0.15702018038E+03  0.15702018038E+03  0.00000000000E+00 0. -1.
         25    2    1    2    0    0  0.54524964478E+02 -0.42667858428E+02 -0.23679538154E+02  0.14484237234E+03  0.12500029761E+03 0.  0.
          2    1    1    2  501    0 -0.16393639217E+02  0.31990683935E+02 -0.68117236017E+02  0.77020212334E+02  0.00000000000E+00 0. -1.
          1    1    1    2  502    0 -0.38131325261E+02  0.10677174494E+02  0.20575419419E+04  0.20579229438E+04  0.00000000000E+00 0. -1.
         22    1    3    3    0    0 -0.90849990279E+01  0.26027596595E+01  0.41855154332E+02  0.42908804566E+02  0.00000000000E+00 0. -1.
         22    1    3    3    0    0  0.63609963506E+02 -0.45270618088E+02 -0.65534692486E+02  0.10193356777E+03  0.00000000000E+00 0. -1.
</event>
<event>
 7    1  0.6510186E-006  0.5103557E+02  0.7818608E-02  0.1549310E+00
          2   -1    0    0  502    0  0.00000000000E+00  0.00000000000E+00  0.18449793873E+03  0.18449793873E+03  0.00000000000E+00 0. -1.
          1   -1    0    0  501    0 -0.00000000000E+00 -0.00000000000E+00 -0.24384372870E+03  0.24384372870E+03  0.00000000000E+00 0. -1.
         25    2    1    2    0    0 -0.70855076110E+02  0.18646644608E+02 -0.53407089180E+01  0.14498946754E+03  0.12500113344E+03 0.  0.
          2    1    1    2  501    0  0.49080274255E+02 -0.88097078095E+01 -0.16367879244E+03  0.17110590688E+03  0.00000000000E+00 0. -1.
          1    1    1    2  502    0  0.21774801855E+02 -0.98369367988E+01  0.10967371140E+03  0.11224629301E+03  0.00000000000E+00 0. -1.
         22    1    3    3    0    0  0.76004413028E+01  0.50715693686E+02 -0.26367378298E+02  0.57663566768E+02  0.00000000000E+00 0. -1.
         22    1    3    3    0    0 -0.78455517413E+02 -0.32069049078E+02  0.21026669380E+02  0.87325900777E+02  0.00000000000E+00 0. -1.
</event>
<event>
 7    1  0.6510186E-006  0.6498467E+02  0.7818608E-02  0.1430190E+00
          2   -1    0    0  502    0  0.00000000000E+00  0.00000000000E+00  0.27401351074E+03  0.27401351074E+03  0.00000000000E+00 0. -1.
          1   -1    0    0  501    0 -0.00000000000E+00 -0.00000000000E+00 -0.25463948846E+03  0.25463948846E+03  0.00000000000E+00 0. -1.
         25    2    1    2    0    0  0.47659818148E+02 -0.72818445156E+02 -0.49739934818E+02  0.16022745528E+03  0.12499916836E+03 0.  0.
          2    1    1    2  501    0 -0.42227090330E+02  0.86212874055E+01 -0.14163591453E+03  0.14804791805E+03  0.00000000000E+00 0. -1.
          1    1    1    2  502    0 -0.54327278184E+01  0.64197157751E+02  0.21074987163E+03  0.22037762587E+03  0.00000000000E+00 0. -1.
         22    1    3    3    0    0 -0.48363829430E+01  0.33386468472E+02 -0.85641717363E+01  0.34805055876E+02  0.00000000000E+00 0.  1.
         22    1    3    3    0    0  0.52496201091E+02 -0.10620491363E+03 -0.41175763082E+02  0.12542239941E+03  0.00000000000E+00 0.  1.
</event>
<event>
 7    1  0.6510186E-006  0.2216538E+03  0.7818608E-02  0.1143744E+00
          2   -1    0    0  502    0  0.00000000000E+00  0.00000000000E+00  0.35190366700E+04  0.35190366700E+04  0.00000000000E+00 0. -1.
          1   -1    0    0  501    0 -0.00000000000E+00 -0.00000000000E+00 -0.11681108064E+04  0.11681108064E+04  0.00000000000E+00 0. -1.
         25    2    1    2    0    0 -0.68197039996E+00 -0.86790435617E+02  0.63121379650E+02  0.16474780053E+03  0.12499793763E+03 0.  0.
          2    1    1    2  501    0 -0.18526493364E+03 -0.56966495823E+02 -0.11047949130E+04  0.11216684346E+04  0.00000000000E+00 0. -1.
          1    1    1    2  502    0  0.18594690404E+03  0.14375693144E+03  0.33925993970E+04  0.34007312412E+04  0.00000000000E+00 0. -1.
         22    1    3    3    0    0 -0.49764411405E+02 -0.18756815869E+02  0.60865790912E+02  0.80826723844E+02  0.00000000000E+00 0.  1.
         22    1    3    3    0    0  0.49082441005E+02 -0.68033619748E+02  0.22555887382E+01  0.83921076683E+02  0.00000000000E+00 0.  1.
</event>
<event>
 7    1  0.6510186E-006  0.4571988E+02  0.7818608E-02  0.1489755E+00
          2   -1    0    0  502    0  0.00000000000E+00  0.00000000000E+00  0.19889420138E+03  0.19889420138E+03  0.00000000000E+00 0. -1.
          1   -1    0    0  501    0 -0.00000000000E+00 -0.00000000000E+00 -0.16666695292E+04  0.16666695292E+04  0.00000000000E+00 0. -1.
         25    2    1    2    0    0 -0.61635004293E+02 -0.23234459105E+02 -0.80938292734E+03  0.82162325953E+03  0.12500137478E+03 0.  0.
          2    1    1    2  501    0  0.24562084367E+02  0.37532872128E+02 -0.84852020295E+03  0.84970497662E+03  0.00000000000E+00 0. -1.
          1    1    1    2  502    0  0.37072919925E+02 -0.14298413023E+02  0.19012780249E+03  0.19423549440E+03  0.00000000000E+00 0. -1.
         22    1    3    3    0    0  0.35756320931E+02 -0.21374202602E+02 -0.18076623397E+03  0.18550418423E+03  0.00000000000E+00 0. -1.
         22    1    3    3    0    0 -0.97391325224E+02 -0.18602565030E+01 -0.62861669336E+03  0.63611907530E+03  0.00000000000E+00 0. -1.
</event>
<event>
 7    1  0.6510186E-006  0.3648624E+02  0.7818608E-02  0.1577688E+00
          2   -1    0    0  502    0  0.00000000000E+00  0.00000000000E+00  0.74284061625E+02  0.74284061625E+02  0.00000000000E+00 0. -1.
          1   -1    0    0  501    0 -0.00000000000E+00 -0.00000000000E+00 -0.57827404733E+03  0.57827404733E+03  0.00000000000E+00 0. -1.
         25    2    1    2    0    0 -0.37561217051E+01  0.60693703869E+02 -0.12030630474E+02  0.13952669538E+03  0.12500051406E+03 0.  0.
          2    1    1    2  501    0  0.12317601014E+02 -0.34095473210E+02 -0.48200910162E+03  0.48337045693E+03  0.00000000000E+00 0. -1.
          1    1    1    2  502    0 -0.85614793087E+01 -0.26598230659E+02 -0.99502536141E+01  0.29660956646E+02  0.00000000000E+00 0. -1.
         22    1    3    3    0    0 -0.30704880039E+02 -0.29913238415E+02  0.60239760804E+01  0.43288333053E+02  0.00000000000E+00 0. -1.
         22    1    3    3    0    0  0.26948758334E+02  0.90606942284E+02 -0.18054606555E+02  0.96238362329E+02  0.00000000000E+00 0. -1.
</event>
<event>
 7    1  0.6510186E-006  0.5203991E+02  0.7818608E-02  0.1451144E+00
          2   -1    0    0  502    0  0.00000000000E+00  0.00000000000E+00  0.87678991974E+03  0.87678991974E+03  0.00000000000E+00 0. -1.
          1   -1    0    0  501    0 -0.00000000000E+00 -0.00000000000E+00 -0.29225974887E+02  0.29225974887E+02  0.00000000000E+00 0. -1.
         25    2    1    2    0    0 -0.47781820205E+02  0.16251965296E+01  0.33986421807E+03  0.36527034962E+03  0.12501599091E+03 0.  0.
          2    1    1    2  501    0  0.34863226170E+02  0.42549318901E+02  0.33686709133E+02  0.64503359991E+02  0.00000000000E+00 0. -1.
          1    1    1    2  502    0  0.12918594035E+02 -0.44174515431E+02  0.47401301764E+03  0.47624218501E+03  0.00000000000E+00 0. -1.
         22    1    3    3    0    0 -0.60860574418E+01  0.57447779240E+02  0.21112150153E+03  0.21888256176E+03  0.00000000000E+00 0. -1.
         22    1    3    3    0    0 -0.41695762763E+02 -0.55822582710E+02  0.12874271654E+03  0.14638778786E+03  0.00000000000E+00 0. -1.
</event>
<event>
 7    1  0.6510186E-006  0.1234411E+03  0.7818608E-02  0.1293204E+00
          2   -1    0    0  502    0  0.00000000000E+00  0.00000000000E+00  0.20139552794E+03  0.20139552794E+03  0.00000000000E+00 0. -1.
          1   -1    0    0  501    0 -0.00000000000E+00 -0.00000000000E+00 -0.64438117888E+03  0.64438117888E+03  0.00000000000E+00 0. -1.
         25    2    1    2    0    0  0.11790798087E+02  0.16054763141E+03 -0.16018966264E+03  0.25922856805E+03  0.12499663039E+03 0.  0.
          2    1    1    2  501    0  0.46211927555E+02 -0.54874614620E+02 -0.40711197974E+03  0.41338472351E+03  0.00000000000E+00 0. -1.
          1    1    1    2  502    0 -0.58002725642E+02 -0.10567301679E+03  0.12431599143E+03  0.17316341526E+03  0.00000000000E+00 0. -1.
         22    1    3    3    0    0  0.44052716104E+02  0.38714009026E+02 -0.43560845641E+01  0.58808092672E+02  0.00000000000E+00 0. -1.
         22    1    3    3    0    0 -0.32261918017E+02  0.12183362239E+03 -0.15583357807E+03  0.20042047538E+03  0.00000000000E+00 0. -1.
</event>
<event>
 7    1  0.6510186E-006  0.5255876E+02  0.7818608E-02  0.1494743E+00
          2   -1    0    0  502    0  0.00000000000E+00  0.00000000000E+00  0.90817101271E+03  0.90817101271E+03  0.00000000000E+00 0. -1.
          1   -1    0    0  501    0 -0.00000000000E+00 -0.00000000000E+00 -0.48259797634E+03  0.48259797634E+03  0.00000000000E+00 0. -1.
         25    2    1    2    0    0  0.25589518128E+02  0.29815748567E+01  0.36885971233E+02  0.13284959523E+03  0.12499890741E+03 0.  0.
          2    1    1    2  501    0 -0.42667574840E+02 -0.31670904500E+02 -0.43265155735E+03  0.43590244117E+03  0.00000000000E+00 0. -1.
          1    1    1    2  502    0  0.17078056713E+02  0.28689329643E+02  0.82133862249E+03  0.82201695265E+03  0.00000000000E+00 0. -1.
         22    1    3    3    0    0 -0.46660869065E+01  0.54119706233E+02 -0.12322354770E+02  0.55700587043E+02  0.00000000000E+00 0. -1.
         22    1    3    3    0    0  0.30255605034E+02 -0.51138131377E+02  0.49208326003E+02  0.77149008190E+02  0.00000000000E+00 0. -1.
</event>
<event>
 7    1  0.6510186E-006  0.8800162E+02  0.7818608E-02  0.1419299E+00
          2   -1    0    0  502    0  0.00000000000E+00  0.00000000000E+00  0.24401826365E+04  0.24401826365E+04  0.00000000000E+00 0. -1.
          1   -1    0    0  501    0 -0.00000000000E+00 -0.00000000000E+00 -0.67217185917E+03  0.67217185917E+03  0.00000000000E+00 0. -1.
         25    2    1    2    0    0 -0.82791934069E+02  0.69956748774E+01 -0.49681539127E+03  0.51899321816E+03  0.12499993474E+03 0.  0.
          2    1    1    2  501    0  0.50185431441E+01  0.34220612856E+02 -0.16164014249E+03  0.16529903746E+03  0.00000000000E+00 0. -1.
          1    1    1    2  502    0  0.77773390925E+02 -0.41216287733E+02  0.24264663111E+04  0.24280622400E+04  0.00000000000E+00 0. -1.
         22    1    3    3    0    0 -0.17003370574E+02  0.23705164732E+01  0.64520184774E+00  0.17179937271E+02  0.00000000000E+00 0.  1.
         22    1    3    3    0    0 -0.65788563495E+02  0.46251584042E+01 -0.49746059311E+03  0.50181328089E+03  0.00000000000E+00 0.  1.
</event>
<event>
 7    1  0.6510186E-006  0.6351971E+02  0.7818608E-02  0.1411102E+00
          2   -1    0    0  502    0  0.00000000000E+00  0.00000000000E+00  0.15606236522E+04  0.15606236522E+04  0.00000000000E+00 0. -1.
          1   -1    0    0  501    0 -0.00000000000E+00 -0.00000000000E+00 -0.72198723718E+03  0.72198723718E+03  0.00000000000E+00 0. -1.
         25    2    1    2    0    0  0.78169128107E+02 -0.77394592753E+02  0.21366040253E+03  0.27088013479E+03  0.12499977695E+03 0.  0.
          2    1    1    2  501    0 -0.32710114250E+02  0.54149557669E+02 -0.69143847676E+03  0.69432650339E+03  0.00000000000E+00 0. -1.
          1    1    1    2  502    0 -0.45459013856E+02  0.23245035084E+02  0.13164144892E+04  0.13174042512E+04  0.00000000000E+00 0. -1.
         22    1    3    3    0    0  0.10069816986E+03 -0.25226284078E+02  0.10170307807E+03  0.14532722701E+03  0.00000000000E+00 0. -1.
         22    1    3    3    0    0 -0.22529041750E+02 -0.52168308675E+02  0.11195732446E+03  0.12555290779E+03  0.00000000000E+00 0. -1.
</event>
<event>
 7    1  0.6510186E-006  0.8458893E+02  0.7818608E-02  0.1411763E+00
          2   -1    0    0  502    0  0.00000000000E+00  0.00000000000E+00  0.11437760402E+03  0.11437760402E+03  0.00000000000E+00 0. -1.
          1   -1    0    0  501    0 -0.00000000000E+00 -0.00000000000E+00 -0.43323962533E+03  0.43323962533E+03  0.00000000000E+00 0. -1.
         25    2    1    2    0    0  0.18274742539E+00  0.80477401087E+02 -0.28334317422E+03  0.31997673593E+03  0.12500044670E+03 0.  0.
          2    1    1    2  501    0 -0.38188838756E+02 -0.83710618566E+02 -0.11033316806E+03  0.14366371511E+03  0.00000000000E+00 0. -1.
          1    1    1    2  502    0  0.38006091331E+02  0.32332174791E+01  0.74814320965E+02  0.83976778308E+02  0.00000000000E+00 0. -1.
         22    1    3    3    0    0  0.16504507989E+01 -0.13258001224E+02 -0.17981571481E+03  0.18031136924E+03  0.00000000000E+00 0.  1.
         22    1    3    3    0    0 -0.14677033735E+01  0.93735402311E+02 -0.10352745940E+03  0.13966536668E+03  0.00000000000E+00 0.  1.
</event>
<event>
 7    1  0.6762642E-006  0.6100220E+02  0.7818608E-02  0.1464763E+00
          2   -1    0    0  502    0  0.00000000000E+00  0.00000000000E+00  0.12745808238E+04  0.12745808238E+04  0.00000000000E+00 0. -1.
          1   -1    0    0  501    0 -0.00000000000E+00 -0.00000000000E+00 -0.12038670513E+04  0.12038670513E+04  0.00000000000E+00 0. -1.
         25    2    1    2    0    0  0.51755843504E+02 -0.72715361666E+02 -0.13879748500E+03  0.20701688171E+03  0.12500022525E+03 0.  0.
          2    1    1    2  501    0 -0.19864868468E+02  0.56996541605E+02 -0.10298212495E+04  0.10315885927E+04  0.00000000000E+00 0. -1.
          1    1    1    2  502    0 -0.31890975036E+02  0.15718820061E+02  0.12393325070E+04  0.12398424007E+04  0.00000000000E+00 0. -1.
         22    1    3    3    0    0  0.13144531517E+02  0.31533663809E+02 -0.75002713437E+01  0.34977203036E+02  0.00000000000E+00 0.  1.
         22    1    3    3    0    0  0.38611311987E+02 -0.10424902547E+03 -0.13129721366E+03  0.17203967868E+03  0.00000000000E+00 0.  1.
</event>
<event>
 7    1  0.6510186E-006  0.7561083E+02  0.7818608E-02  0.1430676E+00
          2   -1    0    0  502    0  0.00000000000E+00  0.00000000000E+00  0.13951246089E+04  0.13951246089E+04  0.00000000000E+00 0. -1.
          1   -1    0    0  501    0 -0.00000000000E+00 -0.00000000000E+00 -0.20408620497E+02  0.20408620497E+02  0.00000000000E+00 0. -1.
         25    2    1    2    0    0  0.40347584749E+02 -0.26707534444E+02  0.31778535232E+03  0.34490013708E+03  0.12500941730E+03 0.  0.
          2    1    1    2  501    0  0.76189688797E+01 -0.36110211782E+02  0.59095346739E+02  0.69672491615E+02  0.00000000000E+00 0. -1.
          1    1    1    2  502    0 -0.47966553628E+02  0.62817746226E+02  0.99783528931E+03  0.10009606007E+04  0.00000000000E+00 0. -1.
         22    1    3    3    0    0  0.15432701651E+02 -0.21586040592E+02  0.44199681583E+00  0.26539042746E+02  0.00000000000E+00 0. -1.
         22    1    3    3    0    0  0.24914883098E+02 -0.51214938522E+01  0.31734335551E+03  0.31836109433E+03  0.00000000000E+00 0. -1.
</event>
<event>
 7    1  0.6510186E-006  0.1742906E+03  0.7818608E-02  0.1330641E+00
          2   -1    0    0  502    0  0.00000000000E+00  0.00000000000E+00  0.14541321062E+04  0.14541321062E+04  0.00000000000E+00 0. -1.
          1   -1    0    0  501    0 -0.00000000000E+00 -0.00000000000E+00 -0.46390544770E+03  0.46390544770E+03  0.00000000000E+00 0. -1.
         25    2    1    2    0    0 -0.16342454824E+03 -0.27132751391E+02  0.34957803337E+03  0.40653975334E+03  0.12500400178E+03 0.  0.
          2    1    1    2  501    0 -0.20801199523E+01 -0.36150324054E+02 -0.42735950645E+03  0.42889080263E+03  0.00000000000E+00 0. -1.
          1    1    1    2  502    0  0.16550466819E+03  0.63283075445E+02  0.10680081316E+04  0.10826069980E+04  0.00000000000E+00 0. -1.
         22    1    3    3    0    0 -0.10435572789E+03  0.45348702342E+02  0.18198260349E+03  0.21462593208E+03  0.00000000000E+00 0. -1.
         22    1    3    3    0    0 -0.59068820349E+02 -0.72481453733E+02  0.16759542988E+03  0.19191382126E+03  0.00000000000E+00 0. -1.
</event>
<event>
 7    1  0.6510186E-006  0.2096385E+03  0.7818608E-02  0.1224118E+00
          2   -1    0    0  502    0  0.00000000000E+00  0.00000000000E+00  0.12848657660E+04  0.12848657660E+04  0.00000000000E+00 0. -1.
          1   -1    0    0  501    0 -0.00000000000E+00 -0.00000000000E+00 -0.10799781540E+04  0.10799781540E+04  0.00000000000E+00 0. -1.
         25    2    1    2    0    0  0.19919011274E+02 -0.13560298306E+03  0.92065250631E+01  0.18572563354E+03  0.12499725927E+03 0.  0.
          2    1    1    2  501    0 -0.10049292188E+02  0.21847907721E+03 -0.97816048276E+03  0.10023133370E+04  0.00000000000E+00 0. -1.
          1    1    1    2  502    0 -0.98697190858E+01 -0.82876094155E+02  0.11738415697E+04  0.11768049494E+04  0.00000000000E+00 0. -1.
         22    1    3    3    0    0  0.37785298445E+02 -0.62339016262E+02 -0.51219554683E+02  0.89091663521E+02  0.00000000000E+00 0. -1.
         22    1    3    3    0    0 -0.17866287171E+02 -0.73263966794E+02  0.60426079746E+02  0.96633970016E+02  0.00000000000E+00 0. -1.
</event>
<event>
 7    1  0.6510186E-006  0.7367511E+02  0.7818608E-02  0.1443113E+00
          2   -1    0    0  502    0  0.00000000000E+00  0.00000000000E+00  0.25791566803E+04  0.25791566803E+04  0.00000000000E+00 0. -1.
          1   -1    0    0  501    0 -0.00000000000E+00 -0.00000000000E+00 -0.38876805512E+02  0.38876805512E+02  0.00000000000E+00 0. -1.
         25    2    1    2    0    0  0.74932774461E+02 -0.62598505844E+02  0.19267350342E+03  0.24956536058E+03  0.12500518654E+03 0.  0.
          2    1    1    2  501    0 -0.49325934118E+02  0.39479514359E+02  0.86592878692E+02  0.10719144775E+03  0.00000000000E+00 0. -1.
          1    1    1    2  502    0 -0.25606840343E+02  0.23118991485E+02  0.22610134927E+04  0.22612766775E+04  0.00000000000E+00 0. -1.
         22    1    3    3    0    0  0.89177590589E+02 -0.65671655906E+02  0.20331434592E+03  0.23152134310E+03  0.00000000000E+00 0. -1.
         22    1    3    3    0    0 -0.14244816128E+02  0.30731500621E+01 -0.10640842503E+02  0.18044017485E+02  0.00000000000E+00 0. -1.
</event>
<event>
 7    1  0.6510186E-006  0.1020164E+03  0.7818608E-02  0.1324976E+00
          2   -1    0    0  502    0  0.00000000000E+00  0.00000000000E+00  0.13109238770E+04  0.13109238770E+04  0.00000000000E+00 0. -1.
          1   -1    0    0  501    0 -0.00000000000E+00 -0.00000000000E+00 -0.69952926197E+03  0.69952926197E+03  0.00000000000E+00 0. -1.
         25    2    1    2    0    0  0.27099717383E+02  0.80655109132E+02  0.33770924116E+03  0.37001724321E+03  0.12500234956E+03 0.  0.
          2    1    1    2  501    0 -0.61244173715E+02  0.21880462189E+02 -0.67876517888E+03  0.68187372108E+03  0.00000000000E+00 0. -1.
          1    1    1    2  502    0  0.34144456332E+02 -0.10253557132E+03  0.95245055277E+03  0.95856217469E+03  0.00000000000E+00 0. -1.
         22    1    3    3    0    0 -0.30300704058E+02 -0.18543979699E+02  0.99973427939E+02  0.10609758783E+03  0.00000000000E+00 0.  1.
         22    1    3    3    0    0  0.57400421441E+02  0.99199088831E+02  0.23773581322E+03  0.26391965538E+03  0.00000000000E+00 0.  1.
</event>
<event>
 7    1  0.6510186E-006  0.5193829E+02  0.7818608E-02  0.1435839E+00
          2   -1    0    0  502    0  0.00000000000E+00  0.00000000000E+00  0.10213438404E+04  0.10213438404E+04  0.00000000000E+00 0. -1.
          1   -1    0    0  501    0 -0.00000000000E+00 -0.00000000000E+00 -0.31501194710E+03  0.31501194710E+03  0.00000000000E+00 0. -1.
         25    2    1    2    0    0 -0.34790943888E+02 -0.10997932992E+02  0.10586374198E+02  0.13064470439E+03  0.12499841262E+03 0.  0.
          2    1    1    2  501    0  0.49606294621E+01  0.53191232110E+02 -0.25147268416E+03  0.25708447230E+03  0.00000000000E+00 0. -1.
          1    1    1    2  502    0  0.29830314426E+02 -0.42193299117E+02  0.94721820325E+03  0.94862661080E+03  0.00000000000E+00 0. -1.
         22    1    3    3    0    0 -0.41784500008E+02  0.43302977084E+02 -0.25197852280E+02  0.65238209853E+02  0.00000000000E+00 0. -1.
         22    1    3    3    0    0  0.69935561193E+01 -0.54300910077E+02  0.35784226478E+02  0.65406494532E+02  0.00000000000E+00 0. -1.
</event>
<event>
 7    1  0.6510186E-006  0.6871504E+02  0.7818608E-02  0.1416273E+00
          2   -1    0    0  502    0  0.00000000000E+00  0.00000000000E+00  0.12650658671E+03  0.12650658671E+03  0.00000000000E+00 0. -1.
          1   -1    0    0  501    0 -0.00000000000E+00 -0.00000000000E+00 -0.24349195584E+03  0.24349195584E+03  0.00000000000E+00 0. -1.
         25    2    1    2    0    0  0.91770835731E+02  0.43351563940E+02  0.77628356633E+01  0.16120390690E+03  0.12500077438E+03 0.  0.
          2    1    1    2  501    0 -0.44794416084E+02 -0.70159234252E+01 -0.14026570641E+03  0.14741177459E+03  0.00000000000E+00 0. -1.
          1    1    1    2  502    0 -0.46976419646E+02 -0.36335640515E+02  0.15517501615E+02  0.61382861051E+02  0.00000000000E+00 0. -1.
         22    1    3    3    0    0  0.19516355485E+02 -0.43354644044E+02 -0.40744281167E+01  0.47719118350E+02  0.00000000000E+00 0.  1.
         22    1    3    3    0    0  0.72254480246E+02  0.86706207984E+02  0.11837263780E+02  0.11348478855E+03  0.00000000000E+00 0.  1.
</event>
<event>
 7    1  0.6510186E-006  0.9627145E+02  0.7818608E-02  0.1315566E+00
          2   -1    0    0  502    0  0.00000000000E+00  0.00000000000E+00  0.17201956444E+04  0.17201956444E+04  0.00000000000E+00 0. -1.
          1   -1    0    0  501    0 -0.00000000000E+00 -0.00000000000E+00 -0.85379541163E+03  0.85379541163E+03  0.00000000000E+00 0. -1.
         25    2    1    2    0    0  0.61148826865E+02 -0.11690902398E+02  0.36226331878E+03  0.38824720971E+03  0.12500130995E+03 0.  0.
          2    1    1    2  501    0  0.24726907090E+02  0.70762559782E+02 -0.83710682987E+03  0.84045618828E+03  0.00000000000E+00 0. -1.
          1    1    1    2  502    0 -0.85875733954E+02 -0.59071657384E+02  0.13412437439E+04  0.13452876580E+04  0.00000000000E+00 0. -1.
         22    1    3    3    0    0  0.71495116728E+01 -0.53746398434E+02  0.72627012505E+02  0.90633734377E+02  0.00000000000E+00 0. -1.
         22    1    3    3    0    0  0.53999315192E+02  0.42055496036E+02  0.28963630627E+03  0.29761347533E+03  0.00000000000E+00 0. -1.
</event>
<event>
 7    1  0.6510186E-006  0.9863023E+02  0.7818608E-02  0.1287357E+00
          2   -1    0    0  502    0  0.00000000000E+00  0.00000000000E+00  0.17766225467E+04  0.17766225467E+04  0.00000000000E+00 0. -1.
          1   -1    0    0  501    0 -0.00000000000E+00 -0.00000000000E+00 -0.88862892566E+03  0.88862892566E+03  0.00000000000E+00 0. -1.
         25    2    1    2    0    0 -0.33061901573E+02  0.18797054275E+03  0.10758272484E+04  0.10997521972E+04  0.12499845086E+03 0.  0.
          2    1    1    2  501    0  0.19450815598E+01 -0.98381775700E+02 -0.87061729454E+03  0.87616050509E+03  0.00000000000E+00 0. -1.
          1    1    1    2  502    0  0.31116820013E+02 -0.89588767045E+02  0.68278366716E+03  0.68933876998E+03  0.00000000000E+00 0. -1.
         22    1    3    3    0    0 -0.56798617885E+02  0.49296074594E+02  0.56206730006E+03  0.56707656957E+03  0.00000000000E+00 0. -1.
         22    1    3    3    0    0  0.23736716312E+02  0.13867446815E+03  0.51375994832E+03  0.53267562767E+03  0.00000000000E+00 0. -1.
</event>
<event>
 7    1  0.6510186E-006  0.1140507E+03  0.7818608E-02  0.1386425E+00
          2   -1    0    0  502    0  0.00000000000E+00  0.00000000000E+00  0.10818157238E+04  0.10818157238E+04  0.00000000000E+00 0. -1.
          1   -1    0    0  501    0 -0.00000000000E+00 -0.00000000000E+00 -0.24213836815E+03  0.24213836815E+03  0.00000000000E+00 0. -1.
         25    2    1    2    0    0 -0.33416561734E+02 -0.10768473593E+03  0.55828204209E+03  0.58311017071E+03  0.12500385480E+03 0.  0.
          2    1    1    2  501    0 -0.54731406724E+00  0.11420911713E+03 -0.21488991573E+03  0.24335508597E+03  0.00000000000E+00 0. -1.
          1    1    1    2  502    0  0.33963875801E+02 -0.65243811972E+01  0.49628522932E+03  0.49748883530E+03  0.00000000000E+00 0. -1.
         22    1    3    3    0    0  0.63288441858E+01  0.22163917600E+02  0.31045995954E+02  0.38667135618E+02  0.00000000000E+00 0.  1.
         22    1    3    3    0    0 -0.39745405920E+02 -0.12984865353E+03  0.52723604613E+03  0.54444303509E+03  0.00000000000E+00 0.  1.
</event>
<event>
 7    1  0.6510186E-006  0.1594881E+03  0.7818608E-02  0.1308914E+00
          2   -1    0    0  502    0  0.00000000000E+00  0.00000000000E+00  0.17730414420E+04  0.17730414420E+04  0.00000000000E+00 0. -1.
          1   -1    0    0  501    0 -0.00000000000E+00 -0.00000000000E+00 -0.14069039317E+04  0.14069039317E+04  0.00000000000E+00 0. -1.
         25    2    1    2    0    0  0.86741604724E+02 -0.75829643240E+02 -0.35426815444E+02  0.17364889618E+03  0.12499855642E+03 0.  0.
          2    1    1    2  501    0 -0.11692123539E+03  0.11322217350E+03 -0.12969400131E+04  0.13071125557E+04  0.00000000000E+00 0. -1.
          1    1    1    2  502    0  0.30179630662E+02 -0.37392530258E+02  0.16985043387E+04  0.16991839218E+04  0.00000000000E+00 0. -1.
         22    1    3    3    0    0  0.84348593288E+02 -0.38393957699E+02 -0.74926406609E+02  0.11917528093E+03  0.00000000000E+00 0. -1.
         22    1    3    3    0    0  0.23930114364E+01 -0.37435685541E+02  0.39499591165E+02  0.54473615246E+02  0.00000000000E+00 0. -1.
</event>
<event>
 7    1  0.6510186E-006  0.1929583E+03  0.7818608E-02  0.1236415E+00
          2   -1    0    0  502    0  0.00000000000E+00  0.00000000000E+00  0.26222247019E+03  0.26222247019E+03  0.00000000000E+00 0. -1.
          1   -1    0    0  501    0 -0.00000000000E+00 -0.00000000000E+00 -0.13860437104E+04  0.13860437104E+04  0.00000000000E+00 0. -1.
         25    2    1    2    0    0 -0.50690306369E+02  0.15805068332E+03 -0.33095551678E+03  0.39077738287E+03  0.12500353283E+03 0.  0.
          2    1    1    2  501    0 -0.79328550936E+02 -0.92804942233E+01 -0.98124937157E+03  0.98449452806E+03  0.00000000000E+00 0. -1.
          1    1    1    2  502    0  0.13001885730E+03 -0.14877018910E+03  0.18838364810E+03  0.27299426970E+03  0.00000000000E+00 0. -1.
         22    1    3    3    0    0 -0.31261039905E+02  0.13522538549E+03 -0.13876097789E+03  0.19625943667E+03  0.00000000000E+00 0.  1.
         22    1    3    3    0    0 -0.19429266464E+02  0.22825297830E+02 -0.19219453888E+03  0.19451794620E+03  0.00000000000E+00 0.  1.
</event>
<event>
 7    1  0.6510186E-006  0.1466088E+03  0.7818608E-02  0.1246056E+00
          2   -1    0    0  502    0  0.00000000000E+00  0.00000000000E+00  0.16905811634E+04  0.16905811634E+04  0.00000000000E+00 0. -1.
          1   -1    0    0  501    0 -0.00000000000E+00 -0.00000000000E+00 -0.16970447998E+04  0.16970447998E+04  0.00000000000E+00 0. -1.
         25    2    1    2    0    0 -0.64721379534E+02 -0.30338588145E+02  0.18329607013E+03  0.23308824222E+03  0.12499356957E+03 0.  0.
          2    1    1    2  501    0  0.14685523829E+03 -0.18064050786E+02 -0.16673363657E+04  0.16738886842E+04  0.00000000000E+00 0. -1.
          1    1    1    2  502    0 -0.82133858755E+02  0.48402638931E+02  0.14775766591E+04  0.14806490367E+04  0.00000000000E+00 0. -1.
         22    1    3    3    0    0 -0.15748916545E+01 -0.50899983588E+02  0.15077603654E+03  0.15914365148E+03  0.00000000000E+00 0.  1.
         22    1    3    3    0    0 -0.63146487879E+02  0.20561395443E+02  0.32520033593E+02  0.73944590735E+02  0.00000000000E+00 0.  1.
</event>
<event>
 7    1  0.6510186E-006  0.1022707E+03  0.7818608E-02  0.1337714E+00
          2   -1    0    0  502    0  0.00000000000E+00  0.00000000000E+00  0.17925137950E+04  0.17925137950E+04  0.00000000000E+00 0. -1.
          1   -1    0    0  501    0 -0.00000000000E+00 -0.00000000000E+00 -0.15638101587E+03  0.15638101587E+03  0.00000000000E+00 0. -1.
         25    2    1    2    0    0  0.20444583219E+02  0.41208137788E+02  0.59799249398E+03  0.61264659613E+03  0.12499894915E+03 0.  0.
          2    1    1    2  501    0 -0.49310345566E+02 -0.91527011732E+02 -0.13011746968E+03  0.16655107317E+03  0.00000000000E+00 0. -1.
          1    1    1    2  502    0  0.28865762347E+02  0.50318873944E+02  0.11682577549E+04  0.11696971416E+04  0.00000000000E+00 0. -1.
         22    1    3    3    0    0 -0.33553439040E+02 -0.29060859594E+02  0.21510089408E+03  0.21963324308E+03  0.00000000000E+00 0. -1.
         22    1    3    3    0    0  0.53998022259E+02  0.70268997382E+02  0.38289159990E+03  0.39301335305E+03  0.00000000000E+00 0. -1.
</event>
<event>
 7    1  0.1589079E-005  0.6184513E+02  0.7818608E-02  0.1501337E+00
          2   -1    0    0  502    0  0.00000000000E+00  0.00000000000E+00  0.12338837202E+04  0.12338837202E+04  0.00000000000E+00 0. -1.
          1   -1    0    0  501    0 -0.00000000000E+00 -0.00000000000E+00 -0.15356541865E+04  0.15356541865E+04  0.00000000000E+00 0. -1.
         25    2    1    2    0    0  0.13122836218E+02  0.81766217392E+02 -0.51212852633E+03  0.53362790413E+03  0.12500075780E+03 0.  0.
          2    1    1    2  501    0 -0.18139587424E+02 -0.20152763844E+02 -0.10118131748E+04  0.10121764071E+04  0.00000000000E+00 0. -1.
          1    1    1    2  502    0  0.50167512064E+01 -0.61613453548E+02  0.12221712348E+04  0.12237335954E+04  0.00000000000E+00 0. -1.
         22    1    3    3    0    0  0.27239273435E+02  0.10669068864E+03 -0.29991771218E+03  0.31949259012E+03  0.00000000000E+00 0. -1.
         22    1    3    3    0    0 -0.14116437218E+02 -0.24924471247E+02 -0.21221081415E+03  0.21413531401E+03  0.00000000000E+00 0. -1.
</event>
<event>
 7    1  0.6510186E-006  0.1924923E+03  0.7818608E-02  0.1201164E+00
          2   -1    0    0  502    0  0.00000000000E+00  0.00000000000E+00  0.88740337674E+03  0.88740337674E+03  0.00000000000E+00 0. -1.
          1   -1    0    0  501    0 -0.00000000000E+00 -0.00000000000E+00 -0.68538471530E+03  0.68538471530E+03  0.00000000000E+00 0. -1.
         25    2    1    2    0    0  0.30200268677E+03  0.10470392092E+02 -0.44328181469E+03  0.55085307966E+03  0.12500038485E+03 0.  0.
          2    1    1    2  501    0 -0.11268129827E+03 -0.27611902989E+02 -0.15824128054E+03  0.19621364640E+03  0.00000000000E+00 0. -1.
          1    1    1    2  502    0 -0.18932138850E+03  0.17141510897E+02  0.80354175667E+03  0.82572136599E+03  0.00000000000E+00 0. -1.
         22    1    3    3    0    0  0.12648095869E+03 -0.48922666884E+02 -0.13623289493E+03  0.19222450913E+03  0.00000000000E+00 0.  1.
         22    1    3    3    0    0  0.17552172808E+03  0.59393058976E+02 -0.30704891975E+03  0.35862857054E+03  0.00000000000E+00 0.  1.
</event>
<event>
 7    1  0.6510186E-006  0.5007539E+02  0.7818608E-02  0.1513362E+00
          2   -1    0    0  502    0  0.00000000000E+00  0.00000000000E+00  0.31711657446E+03  0.31711657446E+03  0.00000000000E+00 0. -1.
          1   -1    0    0  501    0 -0.00000000000E+00 -0.00000000000E+00 -0.24710944568E+03  0.24710944568E+03  0.00000000000E+00 0. -1.
         25    2    1    2    0    0  0.31499640073E+02  0.18079638219E+02  0.13132067607E+03  0.18490322195E+03  0.12499992353E+03 0.  0.
          2    1    1    2  501    0 -0.80073102823E+01  0.29799725428E+02 -0.21471189887E+03  0.21691781893E+03  0.00000000000E+00 0. -1.
          1    1    1    2  502    0 -0.23492329790E+02 -0.47879363647E+02  0.15339835158E+03  0.16240497927E+03  0.00000000000E+00 0. -1.
         22    1    3    3    0    0 -0.47761493247E+02  0.17616798115E+02  0.51440608018E+02  0.72371596405E+02  0.00000000000E+00 0. -1.
         22    1    3    3    0    0  0.79261133319E+02  0.46284010392E+00  0.79880068049E+02  0.11253162554E+03  0.00000000000E+00 0. -1.
</event>
<event>
 7    1  0.6510186E-006  0.1693585E+03  0.7818608E-02  0.1376628E+00
          2   -1    0    0  502    0  0.00000000000E+00  0.00000000000E+00  0.51789666484E+03  0.51789666484E+03  0.00000000000E+00 0. -1.
          1   -1    0    0  501    0 -0.00000000000E+00 -0.00000000000E+00 -0.36182098513E+03  0.36182098513E+03  0.00000000000E+00 0. -1.
         25    2    1    2    0    0 -0.21066029765E+01 -0.16959713879E+03  0.25720227480E+03  0.33248500343E+03  0.12500256031E+03 0.  0.
          2    1    1    2  501    0 -0.25159648394E+02  0.17880858983E+01 -0.29115986135E+03  0.29225035504E+03  0.00000000000E+00 0. -1.
          1    1    1    2  502    0  0.27266251371E+02  0.16780905289E+03  0.19003326626E+03  0.25498229151E+03  0.00000000000E+00 0. -1.
         22    1    3    3    0    0  0.33843983463E+02 -0.16797450850E+03  0.18724371217E+03  0.25381303842E+03  0.00000000000E+00 0.  1.
         22    1    3    3    0    0 -0.35950586439E+02 -0.16226302906E+01  0.69958562628E+02  0.78671965015E+02  0.00000000000E+00 0.  1.
</event>
<event>
 7    1  0.6510186E-006  0.7305312E+02  0.7818608E-02  0.1464796E+00
          2   -1    0    0  502    0  0.00000000000E+00  0.00000000000E+00  0.28024642201E+04  0.28024642201E+04  0.00000000000E+00 0. -1.
          1   -1    0    0  501    0 -0.00000000000E+00 -0.00000000000E+00 -0.27547862796E+02  0.27547862796E+02  0.00000000000E+00 0. -1.
         25    2    1    2    0    0  0.92529022036E+02 -0.29280982682E+01  0.56458039132E+03  0.58561580652E+03  0.12499864359E+03 0.  0.
          2    1    1    2  501    0 -0.69165975393E+02 -0.15380757844E+02  0.57217652579E+02  0.91073374982E+02  0.00000000000E+00 0. -1.
          1    1    1    2  502    0 -0.23363046643E+02  0.18308856112E+02  0.21531183134E+04  0.21533229014E+04  0.00000000000E+00 0. -1.
         22    1    3    3    0    0 -0.56785593273E+01  0.24487529844E+02  0.31513582785E+03  0.31613679815E+03  0.00000000000E+00 0. -1.
         22    1    3    3    0    0  0.98207581364E+02 -0.27415628112E+02  0.24944456347E+03  0.26947900836E+03  0.00000000000E+00 0. -1.
</event>
<event>
 7    1  0.6510186E-006  0.1186012E+03  0.7818608E-02  0.1299368E+00
          2   -1    0    0  502    0  0.00000000000E+00  0.00000000000E+00  0.16848586788E+04  0.16848586788E+04  0.00000000000E+00 0. -1.
          1   -1    0    0  501    0 -0.00000000000E+00 -0.00000000000E+00 -0.31586722822E+04  0.31586722822E+04  0.00000000000E+00 0. -1.
         25    2    1    2    0    0  0.83634519160E+02 -0.48737321870E+02  0.73276587931E+02  0.17425523544E+03  0.12500147760E+03 0.  0.
          2    1    1    2  501    0 -0.34800227592E+02 -0.61336559433E+02 -0.31054597936E+04  0.31062604139E+04  0.00000000000E+00 0. -1.
          1    1    1    2  502    0 -0.48834291568E+02  0.11007388130E+03  0.15583696022E+04  0.15630153117E+04  0.00000000000E+00 0. -1.
         22    1    3    3    0    0  0.11636872599E+03 -0.45526325484E+02  0.61928152735E+02  0.13946118744E+03  0.00000000000E+00 0. -1.
         22    1    3    3    0    0 -0.32734206834E+02 -0.32109963868E+01  0.11348435196E+02  0.34794048000E+02  0.00000000000E+00 0. -1.
</event>
<event>
 7    1  0.6510186E-006  0.4876341E+02  0.7818608E-02  0.1492065E+00
          2   -1    0    0  502    0  0.00000000000E+00  0.00000000000E+00  0.34375524540E+03  0.34375524540E+03  0.00000000000E+00 0. -1.
          1   -1    0    0  501    0 -0.00000000000E+00 -0.00000000000E+00 -0.64136356135E+03  0.64136356135E+03  0.00000000000E+00 0. -1.
         25    2    1    2    0    0  0.16121095105E+02  0.17816005520E+02 -0.37292409934E+02  0.13263844840E+03  0.12499973758E+03 0.  0.
          2    1    1    2  501    0  0.24292678182E+01 -0.49437081207E+02 -0.55415600604E+03  0.55636211713E+03  0.00000000000E+00 0. -1.
          1    1    1    2  502    0 -0.18550362923E+02  0.31621075688E+02  0.29384010003E+03  0.29611824122E+03  0.00000000000E+00 0. -1.
         22    1    3    3    0    0  0.35091103683E+02  0.33904724662E+02 -0.73794085761E+02  0.88467412110E+02  0.00000000000E+00 0.  1.
         22    1    3    3    0    0 -0.18970008579E+02 -0.16088719142E+02  0.36501675827E+02  0.44171036294E+02  0.00000000000E+00 0.  1.
</event>
<event>
 7    1  0.6510186E-006  0.1127636E+03  0.7818608E-02  0.1321420E+00
          2   -1    0    0  502    0  0.00000000000E+00  0.00000000000E+00  0.94582999933E+03  0.94582999933E+03  0.00000000000E+00 0. -1.
          1   -1    0    0  501    0 -0.00000000000E+00 -0.00000000000E+00 -0.11382608759E+04  0.11382608759E+04  0.00000000000E+00 0. -1.
         25    2    1    2    0    0 -0.52406855190E+02  0.13335159629E+02 -0.15052223025E+03  0.20299418450E+03  0.12500156874E+03 0.  0.
          2    1    1    2  501    0 -0.60726260552E+02  0.24869940185E+00 -0.95700686976E+03  0.95893163955E+03  0.00000000000E+00 0. -1.
          1    1    1    2  502    0  0.11313311574E+03 -0.13583859031E+02  0.91509822343E+03  0.92216505119E+03  0.00000000000E+00 0. -1.
         22    1    3    3    0    0  0.35109823903E+02 -0.76001137568E+01 -0.12123864598E+02  0.37913711985E+02  0.00000000000E+00 0. -1.
         22    1    3    3    0    0 -0.87516679094E+02  0.20935273386E+02 -0.13839836565E+03  0.16508047252E+03  0.00000000000E+00 0. -1.
</event>
<event>
 7    1  0.6510186E-006  0.3564060E+02  0.7818608E-02  0.1565366E+00
          2   -1    0    0  502    0  0.00000000000E+00  0.00000000000E+00  0.10908577604E+04  0.10908577604E+04  0.00000000000E+00 0. -1.
          1   -1    0    0  501    0 -0.00000000000E+00 -0.00000000000E+00 -0.25482807079E+02  0.25482807079E+02  0.00000000000E+00 0. -1.
         25    2    1    2    0    0 -0.17382565335E+02  0.16533792439E+02  0.30217033566E+03  0.32788382101E+03  0.12500147383E+03 0.  0.
          2    1    1    2  501    0 -0.56032773337E+01 -0.37173618645E+02  0.16402684039E+02  0.41016127117E+02  0.00000000000E+00 0. -1.
          1    1    1    2  502    0  0.22985842668E+02  0.20639826206E+02  0.74680193360E+03  0.74744061932E+03  0.00000000000E+00 0. -1.
         22    1    3    3    0    0 -0.67336532749E+02 -0.64220623442E+01  0.20932582341E+03  0.21998352637E+03  0.00000000000E+00 0. -1.
         22    1    3    3    0    0  0.49953967414E+02  0.22955854783E+02  0.92844512246E+02  0.10790029464E+03  0.00000000000E+00 0. -1.
</event>
<event>
 7    1  0.6510186E-006  0.6535466E+02  0.7818608E-02  0.1450720E+00
          2   -1    0    0  502    0  0.00000000000E+00  0.00000000000E+00  0.57494318676E+03  0.57494318676E+03  0.00000000000E+00 0. -1.
          1   -1    0    0  501    0 -0.00000000000E+00 -0.00000000000E+00 -0.16212375026E+04  0.16212375026E+04  0.00000000000E+00 0. -1.
         25    2    1    2    0    0 -0.27047832998E+02  0.57239763248E+02  0.30975121175E+03  0.33997079464E+03  0.12500540891E+03 0.  0.
          2    1    1    2  501    0 -0.89360377728E+01 -0.64766378195E+02 -0.16041071495E+04  0.16054389691E+04  0.00000000000E+00 0. -1.
          1    1    1    2  502    0  0.35983870771E+02  0.75266149470E+01  0.24806162189E+03  0.25077092563E+03  0.00000000000E+00 0. -1.
         22    1    3    3    0    0  0.49665854879E+02  0.12152747924E+02  0.11115717386E+03  0.12235319254E+03  0.00000000000E+00 0.  1.
         22    1    3    3    0    0 -0.76713687877E+02  0.45087015324E+02  0.19859403789E+03  0.21761760210E+03  0.00000000000E+00 0.  1.
</event>
<event>
 7    1  0.6510186E-006  0.8263932E+02  0.7818608E-02  0.1344690E+00
          2   -1    0    0  502    0  0.00000000000E+00  0.00000000000E+00  0.52319193139E+03  0.52319193139E+03  0.00000000000E+00 0. -1.
          1   -1    0    0  501    0 -0.00000000000E+00 -0.00000000000E+00 -0.96713239078E+03  0.96713239078E+03  0.00000000000E+00 0. -1.
         25    2    1    2    0    0  0.15127984694E+02 -0.14539610046E+03 -0.21950848073E+03  0.29185136175E+03  0.12499744915E+03 0.  0.
          2    1    1    2  501    0 -0.12038245561E+02  0.77878166507E+02 -0.70690751851E+03  0.71128627704E+03  0.00000000000E+00 0. -1.
          1    1    1    2  502    0 -0.30897391331E+01  0.67517933955E+02  0.48247553986E+03  0.48718668337E+03  0.00000000000E+00 0. -1.
         22    1    3    3    0    0  0.49242281212E+02 -0.77637828583E+01 -0.46638394683E+02  0.68265792619E+02  0.00000000000E+00 0. -1.
         22    1    3    3    0    0 -0.34114296519E+02 -0.13763231760E+03 -0.17287008605E+03  0.22358556914E+03  0.00000000000E+00 0. -1.
</event>
<event>
 7    1  0.6510186E-006  0.7570485E+02  0.7818608E-02  0.1400917E+00
          2   -1    0    0  502    0  0.00000000000E+00  0.00000000000E+00  0.18574522993E+04  0.18574522993E+04  0.00000000000E+00 0. -1.
          1   -1    0    0  501    0 -0.00000000000E+00 -0.00000000000E+00 -0.74504263678E+03  0.74504263678E+03  0.00000000000E+00 0. -1.
         25    2    1    2    0    0  0.30739581820E+02 -0.12461214603E+01 -0.34920170640E+02  0.13336885657E+03  0.12498543465E+03 0.  0.
          2    1    1    2  501    0  0.44417906854E+02  0.13432166990E+02 -0.65928071296E+03  0.66091181866E+03  0.00000000000E+00 0. -1.
          1    1    1    2  502    0 -0.75157488674E+02 -0.12186045530E+02  0.18066105461E+04  0.18082142608E+04  0.00000000000E+00 0. -1.
         22    1    3    3    0    0 -0.89921756771E+01 -0.49174389605E+02  0.16480337987E+02  0.52636312148E+02  0.00000000000E+00 0. -1.
         22    1    3    3    0    0  0.39731757497E+02  0.47928268144E+02 -0.51400508627E+02  0.80732544418E+02  0.00000000000E+00 0. -1.
</event>
<event>
 7    1  0.6510186E-006  0.1495795E+03  0.7818608E-02  0.1297841E+00
          2   -1    0    0  502    0  0.00000000000E+00  0.00000000000E+00  0.42283038301E+03  0.42283038301E+03  0.00000000000E+00 0. -1.
          1   -1    0    0  501    0 -0.00000000000E+00 -0.00000000000E+00 -0.32309454735E+03  0.32309454735E+03  0.00000000000E+00 0. -1.
         25    2    1    2    0    0 -0.16005150798E+03 -0.11587289215E+03 -0.32380465627E+02  0.23604437520E+03  0.12500176066E+03 0.  0.
          2    1    1    2  501    0  0.53247371350E+02  0.19513177375E+02 -0.16786897762E+03  0.17718927816E+03  0.00000000000E+00 0. -1.
          1    1    1    2  502    0  0.10680413663E+03  0.96359714777E+02  0.29998527891E+03  0.33269127700E+03  0.00000000000E+00 0. -1.
         22    1    3    3    0    0 -0.14647995578E+03 -0.44334160324E+02 -0.50229038768E+02  0.16107405611E+03  0.00000000000E+00 0.  1.
         22    1    3    3    0    0 -0.13571552197E+02 -0.71538731827E+02  0.17848573140E+02  0.74970319084E+02  0.00000000000E+00 0.  1.
</event>
<event>
 7    1  0.6510186E-006  0.5099707E+02  0.7818608E-02  0.1561559E+00
          2   -1    0    0  502    0  0.00000000000E+00  0.00000000000E+00  0.64187807561E+02  0.64187807561E+02  0.00000000000E+00 0. -1.
          1   -1    0    0  501    0 -0.00000000000E+00 -0.00000000000E+00 -0.69421455872E+03  0.69421455872E+03  0.00000000000E+00 0. -1.
         25    2    1    2    0    0  0.95055764288E+01  0.49192311449E+02 -0.33478798726E+03  0.36085539064E+03  0.12499350804E+03 0.  0.
          2    1    1    2  501    0 -0.30380287693E+02 -0.41890337159E+02 -0.34196155847E+03  0.34585469449E+03  0.00000000000E+00 0. -1.
          1    1    1    2  502    0  0.20874711264E+02 -0.73019742894E+01  0.46722794568E+02  0.51692281157E+02  0.00000000000E+00 0. -1.
         22    1    3    3    0    0 -0.48571832780E+01  0.48396816211E+01  0.10441891478E+02  0.12491911192E+02  0.00000000000E+00 0. -1.
         22    1    3    3    0    0  0.14362759707E+02  0.44352629828E+02 -0.34522987873E+03  0.34836347944E+03  0.00000000000E+00 0. -1.
</event>
<event>
 7    1  0.6510186E-006  0.1067618E+03  0.7818608E-02  0.1341863E+00
          2   -1    0    0  502    0  0.00000000000E+00  0.00000000000E+00  0.53419060628E+03  0.53419060628E+03  0.00000000000E+00 0. -1.
          1   -1    0    0  501    0 -0.00000000000E+00 -0.00000000000E+00 -0.95767433898E+02  0.95767433898E+02  0.00000000000E+00 0. -1.
         25    2    1    2    0    0 -0.27169806368E+02  0.96914039414E+02  0.31466489974E+03  0.35322706104E+03  0.12499931242E+03 0.  0.
          2    1    1    2  501    0  0.49987883619E+02  0.19364451317E+02 -0.45365146816E+02  0.70226540775E+02  0.00000000000E+00 0. -1.
          1    1    1    2  502    0 -0.22818077252E+02 -0.11627849073E+03  0.16912341945E+03  0.20650443836E+03  0.00000000000E+00 0. -1.
         22    1    3    3    0    0 -0.94684771926E+01 -0.29102319873E+02  0.38724291125E+02  0.49357550643E+02  0.00000000000E+00 0. -1.
         22    1    3    3    0    0 -0.17701329175E+02  0.12601635929E+03  0.27594060862E+03  0.30386951040E+03  0.00000000000E+00 0. -1.
</event>
<event>
 7    1  0.6510186E-006  0.3652385E+02  0.7818608E-02  0.1541867E+00
          2   -1    0    0  502    0  0.00000000000E+00  0.00000000000E+00  0.79893860742E+03  0.79893860742E+03  0.00000000000E+00 0. -1.
          1   -1    0    0  501    0 -0.00000000000E+00 -0.00000000000E+00 -0.37904554215E+02  0.37904554215E+02  0.00000000000E+00 0. -1.
         25    2    1    2    0    0 -0.64650342905E+02  0.10182568780E+02  0.53908511178E+03  0.55725004642E+03  0.12502601707E+03 0.  0.
          2    1    1    2  501    0  0.30699013165E+02 -0.18815749152E+02 -0.15768799322E+02  0.39307974478E+02  0.00000000000E+00 0. -1.
          1    1    1    2  502    0  0.33951329740E+02  0.86331803720E+01  0.23771774075E+03  0.24028514074E+03  0.00000000000E+00 0. -1.
         22    1    3    3    0    0 -0.86176237813E+01  0.36251165981E+02  0.41225126963E+02  0.55569070243E+02  0.00000000000E+00 0. -1.
         22    1    3    3    0    0 -0.56032719123E+02 -0.26068597201E+02  0.49785998482E+03  0.50168097618E+03  0.00000000000E+00 0. -1.
</event>
<event>
 7    1  0.6510186E-006  0.8021508E+02  0.7818608E-02  0.1481779E+00
          2   -1    0    0  502    0  0.00000000000E+00  0.00000000000E+00  0.12526612173E+03  0.12526612173E+03  0.00000000000E+00 0. -1.
          1   -1    0    0  501    0 -0.00000000000E+00 -0.00000000000E+00 -0.56556968332E+03  0.56556968332E+03  0.00000000000E+00 0. -1.
         25    2    1    2    0    0  0.40600832131E+02  0.52749529407E+02 -0.25175984466E+03  0.28886343363E+03  0.12501249330E+03 0.  0.
          2    1    1    2  501    0 -0.92786988546E+01  0.22078822161E+02 -0.27925527953E+03  0.28028035926E+03  0.00000000000E+00 0. -1.
          1    1    1    2  502    0 -0.31322133277E+02 -0.74828351568E+02  0.90711562608E+02  0.12169201215E+03  0.00000000000E+00 0. -1.
         22    1    3    3    0    0 -0.40562153288E+01  0.66406482111E+02 -0.54065218349E+02  0.85728184305E+02  0.00000000000E+00 0.  1.
         22    1    3    3    0    0  0.44657047460E+02 -0.13656952704E+02 -0.19769462631E+03  0.20313524932E+03  0.00000000000E+00 0.  1.
</event>
<event>
 7    1  0.6510186E-006  0.1217375E+03  0.7818608E-02  0.1250039E+00
          2   -1    0    0  502    0  0.00000000000E+00  0.00000000000E+00  0.70592038433E+03  0.70592038433E+03  0.00000000000E+00 0. -1.
          1   -1    0    0  501    0 -0.00000000000E+00 -0.00000000000E+00 -0.17703360025E+03  0.17703360025E+03  0.00000000000E+00 0. -1.
         25    2    1    2    0    0 -0.76071348832E+02 -0.23601384857E+02  0.15627978221E+03  0.21538823437E+03  0.12499938279E+03 0.  0.
          2    1    1    2  501    0  0.72347399795E+02 -0.98079125474E+02 -0.11344305103E+03  0.16650221301E+03  0.00000000000E+00 0. -1.
          1    1    1    2  502    0  0.37239490372E+01  0.12168051033E+03  0.48605005290E+03  0.50106353720E+03  0.00000000000E+00 0. -1.
         22    1    3    3    0    0  0.12328519677E+01  0.16200372687E+02 -0.15753385785E+02  0.22630536071E+02  0.00000000000E+00 0.  1.
         22    1    3    3    0    0 -0.77304200800E+02 -0.39801757543E+02  0.17203316799E+03  0.19275769830E+03  0.00000000000E+00 0.  1.
</event>
<event>
 7    1  0.6510186E-006  0.2635049E+03  0.7818608E-02  0.1110893E+00
          2   -1    0    0  502    0  0.00000000000E+00  0.00000000000E+00  0.23554897810E+04  0.23554897810E+04  0.00000000000E+00 0. -1.
          1   -1    0    0  501    0 -0.00000000000E+00 -0.00000000000E+00 -0.61839485995E+03  0.61839485995E+03  0.00000000000E+00 0. -1.
         25    2    1    2    0    0  0.24350707738E+03 -0.30707879829E+02  0.10993250610E+04  0.11333039496E+04  0.12499432714E+03 0.  0.
          2    1    1    2  501    0 -0.11694537862E+03  0.23996967711E+03 -0.55879241371E+03  0.61928235009E+03  0.00000000000E+00 0. -1.
          1    1    1    2  502    0 -0.12656169876E+03 -0.20926179728E+03  0.11965622737E+04  0.12212983412E+04  0.00000000000E+00 0. -1.
         22    1    3    3    0    0  0.13914937687E+03 -0.51729729335E+01  0.35614597462E+03  0.38239935142E+03  0.00000000000E+00 0.  1.
         22    1    3    3    0    0  0.10435770051E+03 -0.25534906895E+02  0.74317908642E+03  0.75090459822E+03  0.00000000000E+00 0.  1.
</event>
<event>
 7    1  0.6510186E-006  0.9425025E+02  0.7818608E-02  0.1438568E+00
          2   -1    0    0  502    0  0.00000000000E+00  0.00000000000E+00  0.13406986254E+03  0.13406986254E+03  0.00000000000E+00 0. -1.
          1   -1    0    0  501    0 -0.00000000000E+00 -0.00000000000E+00 -0.49958855608E+03  0.49958855608E+03  0.00000000000E+00 0. -1.
         25    2    1    2    0    0  0.58225806469E+02 -0.72707748058E+02  0.11453066167E+02  0.15631493388E+03  0.12500609850E+03 0.  0.
          2    1    1    2  501    0 -0.34835451016E+02  0.87913383318E+02 -0.41753662719E+03  0.42811109149E+03  0.00000000000E+00 0. -1.
          1    1    1    2  502    0 -0.23390355453E+02 -0.15205635260E+02  0.40564867480E+02  0.49232393254E+02  0.00000000000E+00 0. -1.
         22    1    3    3    0    0  0.50699865147E+02  0.22808696190E+02  0.22280349912E+02  0.59892628428E+02  0.00000000000E+00 0. -1.
         22    1    3    3    0    0  0.75259413224E+01 -0.95516444248E+02 -0.10827283745E+02  0.96422305448E+02  0.00000000000E+00 0. -1.
</event>
<event>
 7    1  0.6510186E-006  0.3773073E+02  0.7818608E-02  0.1565472E+00
          2   -1    0    0  502    0  0.00000000000E+00  0.00000000000E+00  0.17929607833E+04  0.17929607833E+04  0.00000000000E+00 0. -1.
          1   -1    0    0  501    0 -0.00000000000E+00 -0.00000000000E+00 -0.65752496932E+03  0.65752496932E+03  0.00000000000E+00 0. -1.
         25    2    1    2    0    0 -0.38987317756E+01 -0.23257435156E+02  0.13374630105E+03  0.18458004611E+03  0.12500244788E+03 0.  0.
          2    1    1    2  501    0  0.32736434133E+02  0.18921615232E+02 -0.63141235726E+03  0.63254348985E+03  0.00000000000E+00 0. -1.
          1    1    1    2  502    0 -0.28837702357E+02  0.43358199240E+01  0.16331018702E+04  0.16333622167E+04  0.00000000000E+00 0. -1.
         22    1    3    3    0    0 -0.47022241054E+02 -0.41764187164E+02  0.12032784712E+03  0.13577234356E+03  0.00000000000E+00 0. -1.
         22    1    3    3    0    0  0.43123509278E+02  0.18506752007E+02  0.13418453933E+02  0.48807702551E+02  0.00000000000E+00 0. -1.
</event>
<event>
 7    1  0.6510186E-006  0.5392917E+02  0.7818608E-02  0.1517160E+00
          2   -1    0    0  502    0  0.00000000000E+00  0.00000000000E+00  0.44753728687E+03  0.44753728687E+03  0.00000000000E+00 0. -1.
          1   -1    0    0  501    0 -0.00000000000E+00 -0.00000000000E+00 -0.66653570451E+03  0.66653570451E+03  0.00000000000E+00 0. -1.
         25    2    1    2    0    0  0.59181997405E+01  0.39960880113E+02  0.19969756851E+03  0.23903131041E+03  0.12499980584E+03 0.  0.
          2    1    1    2  501    0  0.27137710800E+02  0.65996425399E+01 -0.64298846440E+03  0.64359472961E+03  0.00000000000E+00 0. -1.
          1    1    1    2  502    0 -0.33055910540E+02 -0.46560522653E+02  0.22429247826E+03  0.23144695136E+03  0.00000000000E+00 0. -1.
         22    1    3    3    0    0  0.34294469193E+02  0.75874965572E+02  0.10637149290E+03  0.13508521577E+03  0.00000000000E+00 0. -1.
         22    1    3    3    0    0 -0.28376269453E+02 -0.35914085460E+02  0.93326075607E+02  0.10394609464E+03  0.00000000000E+00 0. -1.
</event>
<event>
 7    1  0.6510186E-006  0.5146086E+02  0.7818608E-02  0.1455992E+00
          2   -1    0    0  502    0  0.00000000000E+00  0.00000000000E+00  0.63944410583E+03  0.63944410583E+03  0.00000000000E+00 0. -1.
          1   -1    0    0  501    0 -0.00000000000E+00 -0.00000000000E+00 -0.22741535908E+04  0.22741535908E+04  0.00000000000E+00 0. -1.
         25    2    1    2    0    0  0.62921260945E+01  0.48881381449E+01  0.49065199879E+02  0.13452535497E+03  0.12500477009E+03 0.  0.
          2    1    1    2  501    0  0.29479632159E+02  0.33890447395E+02 -0.22299262019E+04  0.22303785501E+04  0.00000000000E+00 0. -1.
          1    1    1    2  502    0 -0.35771758253E+02 -0.38778585540E+02  0.54615151698E+03  0.54869379155E+03  0.00000000000E+00 0. -1.
         22    1    3    3    0    0 -0.26690971216E+02 -0.51766104282E+02  0.33340550264E+02  0.67109833772E+02  0.00000000000E+00 0.  1.
         22    1    3    3    0    0  0.32983097310E+02  0.56654242427E+02  0.15724649614E+02  0.67415521200E+02  0.00000000000E+00 0.  1.
</event>
<event>
 7    1  0.6510186E-006  0.3186642E+02  0.7818608E-02  0.1582211E+00
          2   -1    0    0  502    0  0.00000000000E+00  0.00000000000E+00  0.13303369139E+03  0.13303369139E+03  0.00000000000E+00 0. -1.
          1   -1    0    0  501    0 -0.00000000000E+00 -0.00000000000E+00 -0.86923921799E+02  0.86923921799E+02  0.00000000000E+00 0. -1.
         25    2    1    2    0    0  0.28530832324E+01 -0.14192168000E+02  0.52457686184E+02  0.13632892573E+03  0.12499683770E+03 0.  0.
          2    1    1    2  501    0  0.31852957771E+02  0.92609860989E+00 -0.26423829741E+02  0.41396707062E+02  0.00000000000E+00 0. -1.
          1    1    1    2  502    0 -0.34706041004E+02  0.13266069390E+02  0.20075913149E+02  0.42231980394E+02  0.00000000000E+00 0. -1.
         22    1    3    3    0    0 -0.14179035209E+02 -0.57951527952E+02  0.64490361478E+02  0.87854603494E+02  0.00000000000E+00 0. -1.
         22    1    3    3    0    0  0.17032118442E+02  0.43759359952E+02 -0.12032675294E+02  0.48474322241E+02  0.00000000000E+00 0. -1.
</event>
<event>
 7    1  0.6510186E-006  0.9253580E+02  0.7818608E-02  0.1393166E+00
          2   -1    0    0  502    0  0.00000000000E+00  0.00000000000E+00  0.27357809991E+03  0.27357809991E+03  0.00000000000E+00 0. -1.
          1   -1    0    0  501    0 -0.00000000000E+00 -0.00000000000E+00 -0.37689037354E+03  0.37689037354E+03  0.00000000000E+00 0. -1.
         25    2    1    2    0    0  0.67262293662E+02 -0.98131418945E+02 -0.69048636680E+01  0.17269724860E+03  0.12499068366E+03 0.  0.
          2    1    1    2  501    0 -0.28781157369E+02  0.85901375060E+02 -0.27766503464E+03  0.29207066392E+03  0.00000000000E+00 0. -1.
          1    1    1    2  502    0 -0.38481136292E+02  0.12230043884E+02  0.18125762468E+03  0.18570056093E+03  0.00000000000E+00 0. -1.
         22    1    3    3    0    0  0.10368831015E+03 -0.83680892594E+02 -0.81236888097E+01  0.13349064299E+03  0.00000000000E+00 0. -1.
         22    1    3    3    0    0 -0.36426016487E+02 -0.14450526351E+02  0.12188251418E+01  0.39206605612E+02  0.00000000000E+00 0. -1.
</event>
<event>
 7    1  0.6510186E-006  0.1102991E+03  0.7818608E-02  0.1284816E+00
          2   -1    0    0  502    0  0.00000000000E+00  0.00000000000E+00  0.13397190389E+04  0.13397190389E+04  0.00000000000E+00 0. -1.
          1   -1    0    0  501    0 -0.00000000000E+00 -0.00000000000E+00 -0.19086103640E+03  0.19086103640E+03  0.00000000000E+00 0. -1.
         25    2    1    2    0    0 -0.13427662915E+03  0.91181298859E+02  0.20527584875E+03  0.29001083862E+03  0.12499548009E+03 0.  0.
          2    1    1    2  501    0  0.86653632215E+02  0.59991554117E+01 -0.13284154136E+03  0.15871898737E+03  0.00000000000E+00 0. -1.
          1    1    1    2  502    0  0.47622996935E+02 -0.97180454270E+02  0.10764236952E+04  0.10818502494E+04  0.00000000000E+00 0. -1.
         22    1    3    3    0    0 -0.15808374882E+03  0.75444071575E+02  0.16492522441E+03  0.24058804880E+03  0.00000000000E+00 0.  1.
         22    1    3    3    0    0  0.23807119671E+02  0.15737227284E+02  0.40350624341E+02  0.49422789827E+02  0.00000000000E+00 0.  1.
</event>
<event>
 7    1  0.6510186E-006  0.1237924E+03  0.7818608E-02  0.1252351E+00
          2   -1    0    0  502    0  0.00000000000E+00  0.00000000000E+00  0.94402955723E+03  0.94402955723E+03  0.00000000000E+00 0. -1.
          1   -1    0    0  501    0 -0.00000000000E+00 -0.00000000000E+00 -0.19010027586E+03  0.19010027586E+03  0.00000000000E+00 0. -1.
         25    2    1    2    0    0 -0.83320426056E+02 -0.13766431901E+03  0.54494414168E+03  0.58179340563E+03  0.12500276457E+03 0.  0.
          2    1    1    2  501    0  0.10363993472E+03  0.22318650886E+02 -0.14491787493E+03  0.17955653349E+03  0.00000000000E+00 0. -1.
          1    1    1    2  502    0 -0.20319508660E+02  0.11534566813E+03  0.35390301462E+03  0.37277989397E+03  0.00000000000E+00 0. -1.
         22    1    3    3    0    0  0.48723538483E+01 -0.70753162257E+02  0.95722608162E+02  0.11913256278E+03  0.00000000000E+00 0.  1.
         22    1    3    3    0    0 -0.88192779904E+02 -0.66911156754E+02  0.44922153352E+03  0.46266084285E+03  0.00000000000E+00 0.  1.
</event>
<event>
 7    1  0.6510186E-006  0.8845961E+02  0.7818608E-02  0.1453382E+00
          2   -1    0    0  502    0  0.00000000000E+00  0.00000000000E+00  0.26757598816E+04  0.26757598816E+04  0.00000000000E+00 0. -1.
          1   -1    0    0  501    0 -0.00000000000E+00 -0.00000000000E+00 -0.19340123476E+03  0.19340123476E+03  0.00000000000E+00 0. -1.
         25    2    1    2    0    0  0.63439545284E+02 -0.68161949709E+02  0.26497119676E+03  0.30741864834E+03  0.12500345172E+03 0.  0.
          2    1    1    2  501    0  0.12794595009E+02  0.23360226434E+02 -0.17032417192E+03  0.17239409903E+03  0.00000000000E+00 0. -1.
          1    1    1    2  502    0 -0.76234140293E+02  0.44801723275E+02  0.23877116220E+04  0.23893483690E+04  0.00000000000E+00 0. -1.
         22    1    3    3    0    0  0.52812120765E+01 -0.34566924445E+02  0.22816833582E+03  0.23083230479E+03  0.00000000000E+00 0. -1.
         22    1    3    3    0    0  0.58158333207E+02 -0.33595025264E+02  0.36802860938E+02  0.76586343542E+02  0.00000000000E+00 0. -1.
</event>
<event>
 7    1  0.6510186E-006  0.8374040E+02  0.7818608E-02  0.1356498E+00
          2   -1    0    0  502    0  0.00000000000E+00  0.00000000000E+00  0.68909500164E+03  0.68909500164E+03  0.00000000000E+00 0. -1.
          1   -1    0    0  501    0 -0.00000000000E+00 -0.00000000000E+00 -0.70354472866E+03  0.70354472866E+03  0.00000000000E+00 0. -1.
         25    2    1    2    0    0  0.25790931239E+02  0.81794178516E+02  0.49582706143E+02  0.15949574693E+03  0.12499995507E+03 0.  0.
          2    1    1    2  501    0  0.46811686293E+02 -0.38031312183E+02 -0.64409850993E+03  0.64691622732E+03  0.00000000000E+00 0. -1.
          1    1    1    2  502    0 -0.72602617532E+02 -0.43762866332E+02  0.58006607677E+03  0.58622775604E+03  0.00000000000E+00 0. -1.
         22    1    3    3    0    0 -0.12272156717E+02  0.97344829798E+02  0.41262113326E+01  0.98202074005E+02  0.00000000000E+00 0. -1.
         22    1    3    3    0    0  0.38063087956E+02 -0.15550651282E+02  0.45456494810E+02  0.61293672924E+02  0.00000000000E+00 0. -1.
</event>
<event>
 7    1  0.6510186E-006  0.8740729E+02  0.7818608E-02  0.1357501E+00
          2   -1    0    0  502    0  0.00000000000E+00  0.00000000000E+00  0.51269347030E+03  0.51269347030E+03  0.00000000000E+00 0. -1.
          1   -1    0    0  501    0 -0.00000000000E+00 -0.00000000000E+00 -0.25090957449E+03  0.25090957449E+03  0.00000000000E+00 0. -1.
         25    2    1    2    0    0  0.51866247669E+02 -0.10129959732E+03 -0.42376856082E+02  0.17426714058E+03  0.12498608839E+03 0.  0.
          2    1    1    2  501    0 -0.70250363297E+02  0.47033121471E+02 -0.12799705642E+03  0.15339646186E+03  0.00000000000E+00 0. -1.
          1    1    1    2  502    0  0.18384115628E+02  0.54266475853E+02  0.43215780831E+03  0.43593944234E+03  0.00000000000E+00 0. -1.
         22    1    3    3    0    0  0.73756950404E+01  0.23351165450E+02 -0.33663183769E+02  0.41627968323E+02  0.00000000000E+00 0.  1.
         22    1    3    3    0    0  0.44490552628E+02 -0.12465076277E+03 -0.87136723126E+01  0.13263917226E+03  0.00000000000E+00 0.  1.
</event>
<event>
 7    1  0.6510186E-006  0.9475047E+02  0.7818608E-02  0.1378666E+00
          2   -1    0    0  502    0  0.00000000000E+00  0.00000000000E+00  0.19150832450E+04  0.19150832450E+04  0.00000000000E+00 0. -1.
          1   -1    0    0  501    0 -0.00000000000E+00 -0.00000000000E+00 -0.73610926439E+03  0.73610926439E+03  0.00000000000E+00 0. -1.
         25    2    1    2    0    0  0.47874742452E+02 -0.18513726942E+02  0.12365299212E+03  0.18316638071E+03  0.12500044605E+03 0.  0.
          2    1    1    2  501    0 -0.89131069440E+02  0.34755666416E+02 -0.70283251081E+03  0.70931364159E+03  0.00000000000E+00 0. -1.
          1    1    1    2  502    0  0.41256326989E+02 -0.16241939474E+02  0.17581534993E+04  0.17587124871E+04  0.00000000000E+00 0. -1.
         22    1    3    3    0    0 -0.98110127066E+01 -0.48386900278E+02  0.73018309220E+01  0.49908564633E+02  0.00000000000E+00 0.  1.
         22    1    3    3    0    0  0.57685755158E+02  0.29873173337E+02  0.11635116119E+03  0.13325781607E+03  0.00000000000E+00 0.  1.
</event>
<event>
 7    1  0.6510186E-006  0.4643443E+02  0.7818608E-02  0.1490087E+00
          2   -1    0    0  502    0  0.00000000000E+00  0.00000000000E+00  0.50334007862E+03  0.50334007862E+03  0.00000000000E+00 0. -1.
          1   -1    0    0  501    0 -0.00000000000E+00 -0.00000000000E+00 -0.28464592200E+04  0.28464592200E+04  0.00000000000E+00 0. -1.
         25    2    1    2    0    0 -0.70986053048E+01  0.28592058548E+02 -0.11989006658E+04  0.12057591592E+04  0.12499779030E+03 0.  0.
          2    1    1    2  501    0 -0.36736309843E+02 -0.13191366382E+02 -0.16428174533E+04  0.16432810939E+04  0.00000000000E+00 0. -1.
          1    1    1    2  502    0  0.43834915147E+02 -0.15400692166E+02  0.49859897772E+03  0.50075904553E+03  0.00000000000E+00 0. -1.
         22    1    3    3    0    0  0.22086291060E+02  0.35080787167E+02 -0.13019325274E+03  0.13663363034E+03  0.00000000000E+00 0.  1.
         22    1    3    3    0    0 -0.29184896365E+02 -0.64887286188E+01 -0.10687074131E+04  0.10691255289E+04  0.00000000000E+00 0.  1.
</event>
<event>
 7    1  0.6510186E-006  0.9616197E+02  0.7818608E-02  0.1377197E+00
          2   -1    0    0  502    0  0.00000000000E+00  0.00000000000E+00  0.16775104817E+03  0.16775104817E+03  0.00000000000E+00 0. -1.
          1   -1    0    0  501    0 -0.00000000000E+00 -0.00000000000E+00 -0.17469993419E+04  0.17469993419E+04  0.00000000000E+00 0. -1.
         25    2    1    2    0    0  0.61616211173E+02  0.21127510450E+02 -0.11827040674E+03  0.18401182566E+03  0.12501813347E+03 0.  0.
          2    1    1    2  501    0 -0.74392473279E+02 -0.63457231295E+02 -0.15906925469E+04  0.15936950270E+04  0.00000000000E+00 0. -1.
          1    1    1    2  502    0  0.12776262105E+02  0.42329720845E+02  0.12971465994E+03  0.13704353740E+03  0.00000000000E+00 0. -1.
         22    1    3    3    0    0  0.56313384889E+02  0.45315362874E+02 -0.13568633959E+03  0.15373829120E+03  0.00000000000E+00 0.  1.
         22    1    3    3    0    0  0.53028262844E+01 -0.24187852425E+02  0.17415932851E+02  0.30273534458E+02  0.00000000000E+00 0.  1.
</event>
<event>
 7    1  0.6510186E-006  0.1202991E+03  0.7818608E-02  0.1332111E+00
          2   -1    0    0  502    0  0.00000000000E+00  0.00000000000E+00  0.83595199281E+03  0.83595199281E+03  0.00000000000E+00 0. -1.
          1   -1    0    0  501    0 -0.00000000000E+00 -0.00000000000E+00 -0.50900313006E+03  0.50900313006E+03  0.00000000000E+00 0. -1.
         25    2    1    2    0    0 -0.88339142432E+02 -0.66178432117E+02 -0.22342880195E+03  0.27879907354E+03  0.12500041961E+03 0.  0.
          2    1    1    2  501    0 -0.29933758821E+02  0.42262170071E+02 -0.25072435201E+03  0.25601722916E+03  0.00000000000E+00 0. -1.
          1    1    1    2  502    0  0.11827290125E+03  0.23916262046E+02  0.80110201671E+03  0.81013882017E+03  0.00000000000E+00 0. -1.
         22    1    3    3    0    0 -0.41297647321E+02 -0.99077564487E+02 -0.16537423151E+03  0.19715601920E+03  0.00000000000E+00 0.  1.
         22    1    3    3    0    0 -0.47041495111E+02  0.32899132370E+02 -0.58054570442E+02  0.81643054341E+02  0.00000000000E+00 0.  1.
</event>
<event>
 7    1  0.6510186E-006  0.2996466E+02  0.7818608E-02  0.1619372E+00
          2   -1    0    0  502    0  0.00000000000E+00  0.00000000000E+00  0.80846552829E+02  0.80846552829E+02  0.00000000000E+00 0. -1.
          1   -1    0    0  501    0 -0.00000000000E+00 -0.00000000000E+00 -0.62812497613E+03  0.62812497613E+03  0.00000000000E+00 0. -1.
         25    2    1    2    0    0  0.80547598812E+01 -0.54118574947E+02 -0.19380901650E+03  0.23702560965E+03  0.12500202175E+03 0.  0.
          2    1    1    2  501    0  0.21421971939E+01  0.26376184781E+02 -0.40856588655E+03  0.40942200208E+03  0.00000000000E+00 0. -1.
          1    1    1    2  502    0 -0.10196957075E+02  0.27742390166E+02  0.55096479747E+02  0.62523917234E+02  0.00000000000E+00 0. -1.
         22    1    3    3    0    0 -0.11796080989E+02 -0.61898004230E+02 -0.20391660450E+03  0.21343029786E+03  0.00000000000E+00 0. -1.
         22    1    3    3    0    0  0.19850840870E+02  0.77794292829E+01  0.10107588000E+02  0.23595311789E+02  0.00000000000E+00 0. -1.
</event>
<event>
 7    1  0.6510186E-006  0.2847511E+03  0.7818608E-02  0.1218133E+00
          2   -1    0    0  502    0  0.00000000000E+00  0.00000000000E+00  0.61596394468E+03  0.61596394468E+03  0.00000000000E+00 0. -1.
          1   -1    0    0  501    0 -0.00000000000E+00 -0.00000000000E+00 -0.10719946070E+04  0.10719946070E+04  0.00000000000E+00 0. -1.
         25    2    1    2    0    0 -0.16508000963E+03  0.29827820947E+03 -0.11780948499E+03  0.38174000750E+03  0.12500023499E+03 0.  0.
          2    1    1    2  501    0  0.25775947218E+02 -0.60130766273E+02 -0.78142336244E+03  0.78415724180E+03  0.00000000000E+00 0. -1.
          1    1    1    2  502    0  0.13930406242E+03 -0.23814744320E+03  0.44320218512E+03  0.52206130235E+03  0.00000000000E+00 0. -1.
         22    1    3    3    0    0 -0.16124631380E+02  0.54341249400E+02  0.25325022690E+02  0.62083265843E+02  0.00000000000E+00 0. -1.
         22    1    3    3    0    0 -0.14895537825E+03  0.24393696007E+03 -0.14313450768E+03  0.31965674166E+03  0.00000000000E+00 0. -1.
</event>
<event>
 7    1  0.6510186E-006  0.1384312E+03  0.7818608E-02  0.1220173E+00
          2   -1    0    0  502    0  0.00000000000E+00  0.00000000000E+00  0.29886416037E+04  0.29886416037E+04  0.00000000000E+00 0. -1.
          1   -1    0    0  501    0 -0.00000000000E+00 -0.00000000000E+00 -0.11797125491E+03  0.11797125491E+03  0.00000000000E+00 0. -1.
         25    2    1    2    0    0 -0.65411124059E+02 -0.90456266590E+02  0.50333669418E+03  0.53050389046E+03  0.12500239504E+03 0.  0.
          2    1    1    2  501    0 -0.69693905819E+02  0.12061982557E+03 -0.55038009601E+02  0.14978506377E+03  0.00000000000E+00 0. -1.
          1    1    1    2  502    0  0.13510502988E+03 -0.30163558982E+02  0.24223716642E+04  0.24263239044E+04  0.00000000000E+00 0. -1.
         22    1    3    3    0    0 -0.90906153278E+02 -0.21606765775E+02  0.25698955025E+03  0.27344909942E+03  0.00000000000E+00 0. -1.
         22    1    3    3    0    0  0.25495029218E+02 -0.68849500815E+02  0.24634714392E+03  0.25705479104E+03  0.00000000000E+00 0. -1.
</event>
<event>
 7    1  0.6510186E-006  0.1459256E+03  0.7818608E-02  0.1264672E+00
          2   -1    0    0  502    0  0.00000000000E+00  0.00000000000E+00  0.49990168470E+03  0.49990168470E+03  0.00000000000E+00 0. -1.
          1   -1    0    0  501    0 -0.00000000000E+00 -0.00000000000E+00 -0.20308071135E+03  0.20308071135E+03  0.00000000000E+00 0. -1.
         25    2    1    2    0    0 -0.20527862409E+02  0.15925969036E+03  0.15643523083E+03  0.25667410105E+03  0.12499828237E+03 0.  0.
          2    1    1    2  501    0  0.75923424621E+02 -0.24098453822E+02 -0.12217560161E+03  0.14584916699E+03  0.00000000000E+00 0. -1.
          1    1    1    2  502    0 -0.55395562212E+02 -0.13516123654E+03  0.26256134412E+03  0.30045912801E+03  0.00000000000E+00 0. -1.
         22    1    3    3    0    0 -0.54165950208E+02  0.18313423720E+02  0.58343355475E+02  0.81690138808E+02  0.00000000000E+00 0. -1.
         22    1    3    3    0    0  0.33638087799E+02  0.14094626664E+03  0.98091875357E+02  0.17498396224E+03  0.00000000000E+00 0. -1.
</event>
<event>
 7    1  0.6510186E-006  0.2761417E+02  0.7818608E-02  0.1670087E+00
          2   -1    0    0  502    0  0.00000000000E+00  0.00000000000E+00  0.20132740078E+03  0.20132740078E+03  0.00000000000E+00 0. -1.
          1   -1    0    0  501    0 -0.00000000000E+00 -0.00000000000E+00 -0.98155637867E+02  0.98155637867E+02  0.00000000000E+00 0. -1.
         25    2    1    2    0    0  0.21785171141E+02  0.11395396115E+02  0.27806134591E+02  0.13036827180E+03  0.12497302284E+03 0.  0.
          2    1    1    2  501    0 -0.26515667327E+02  0.96009634002E+01 -0.41560200841E+02  0.50224589654E+02  0.00000000000E+00 0. -1.
          1    1    1    2  502    0  0.47304961858E+01 -0.20996359515E+02  0.11692582916E+03  0.11889017719E+03  0.00000000000E+00 0. -1.
         22    1    3    3    0    0  0.33043446547E+02 -0.49458716413E+02  0.33420612309E+02  0.68227350206E+02  0.00000000000E+00 0. -1.
         22    1    3    3    0    0 -0.11258275406E+02  0.60854112528E+02 -0.56144777185E+01  0.62140921596E+02  0.00000000000E+00 0. -1.
</event>
<event>
 7    1  0.6510186E-006  0.6530621E+02  0.7818608E-02  0.1440406E+00
          2   -1    0    0  502    0  0.00000000000E+00  0.00000000000E+00  0.10525316095E+04  0.10525316095E+04  0.00000000000E+00 0. -1.
          1   -1    0    0  501    0 -0.00000000000E+00 -0.00000000000E+00 -0.32721574959E+03  0.32721574959E+03  0.00000000000E+00 0. -1.
         25    2    1    2    0    0 -0.42481361484E+02 -0.24060095231E+02 -0.74250609496E+02  0.15336214584E+03  0.12499296184E+03 0.  0.
          2    1    1    2  501    0 -0.22494876437E+02  0.32728440654E+02 -0.21049009033E+03  0.21420375445E+03  0.00000000000E+00 0. -1.
          1    1    1    2  502    0  0.64976237920E+02 -0.86683454228E+01  0.10100565598E+04  0.10121814588E+04  0.00000000000E+00 0. -1.
         22    1    3    3    0    0 -0.78252006095E+02 -0.14011249093E+02 -0.83273704711E+02  0.11512689284E+03  0.00000000000E+00 0. -1.
         22    1    3    3    0    0  0.35770644611E+02 -0.10048846138E+02  0.90230952149E+01  0.38235252998E+02  0.00000000000E+00 0. -1.
</event>
<event>
 7    1  0.6510186E-006  0.7969019E+02  0.7818608E-02  0.1334046E+00
          2   -1    0    0  502    0  0.00000000000E+00  0.00000000000E+00  0.10499515410E+03  0.10499515410E+03  0.00000000000E+00 0. -1.
          1   -1    0    0  501    0 -0.00000000000E+00 -0.00000000000E+00 -0.24868412494E+04  0.24868412494E+04  0.00000000000E+00 0. -1.
         25    2    1    2    0    0 -0.70677236030E+01 -0.11786970200E+03 -0.81026558639E+02  0.19008897931E+03  0.12500118992E+03 0.  0.
          2    1    1    2  501    0 -0.47547260920E+02  0.63779506561E+02 -0.23209301708E+04  0.23222931394E+04  0.00000000000E+00 0. -1.
          1    1    1    2  502    0  0.54614984523E+02  0.54090195442E+02  0.20110634093E+02  0.79454284850E+02  0.00000000000E+00 0. -1.
         22    1    3    3    0    0  0.32330714273E+02  0.19009616708E+01  0.10767280955E+02  0.34129504535E+02  0.00000000000E+00 0.  1.
         22    1    3    3    0    0 -0.39398437876E+02 -0.11977066367E+03 -0.91793839594E+02  0.15595947477E+03  0.00000000000E+00 0.  1.
</event>
<event>
 7    1  0.6510186E-006  0.3812732E+02  0.7818608E-02  0.1538192E+00
          2   -1    0    0  502    0  0.00000000000E+00  0.00000000000E+00  0.15610828929E+04  0.15610828929E+04  0.00000000000E+00 0. -1.
          1   -1    0    0  501    0 -0.00000000000E+00 -0.00000000000E+00 -0.28923000121E+03  0.28923000121E+03  0.00000000000E+00 0. -1.
         25    2    1    2    0    0 -0.31848684104E+00 -0.22510286222E+02 -0.22790441798E+03  0.26090745311E+03  0.12500184371E+03 0.  0.
          2    1    1    2  501    0  0.18084307083E+02  0.51933497691E+02 -0.27691007615E+02  0.61570465711E+02  0.00000000000E+00 0. -1.
          1    1    1    2  502    0 -0.17765820242E+02 -0.29423211469E+02  0.15274483172E+04  0.15278349753E+04  0.00000000000E+00 0. -1.
         22    1    3    3    0    0  0.54228002062E+02  0.87493792385E+01 -0.58658476183E+02  0.80361960360E+02  0.00000000000E+00 0.  1.
         22    1    3    3    0    0 -0.54546488903E+02 -0.31259665461E+02 -0.16924594180E+03  0.18054549275E+03  0.00000000000E+00 0.  1.
</event>
<event>
 7    1  0.6510186E-006  0.1054565E+03  0.7818608E-02  0.1463920E+00
          2   -1    0    0  502    0  0.00000000000E+00  0.00000000000E+00  0.85731652356E+03  0.85731652356E+03  0.00000000000E+00 0. -1.
          1   -1    0    0  501    0 -0.00000000000E+00 -0.00000000000E+00 -0.24578442773E+04  0.24578442773E+04  0.00000000000E+00 0. -1.
         25    2    1    2    0    0  0.12283853129E+03  0.24186741880E+02 -0.14384801404E+03  0.22801507424E+03  0.12499727872E+03 0.  0.
          2    1    1    2  501    0 -0.10214932683E+03 -0.23823832951E+02 -0.22705705029E+04  0.22729919640E+04  0.00000000000E+00 0. -1.
          1    1    1    2  502    0 -0.20689204461E+02 -0.36290892887E+00  0.81389076314E+03  0.81415376263E+03  0.00000000000E+00 0. -1.
         22    1    3    3    0    0  0.50869775108E+02  0.52061425614E+02 -0.13087435262E+03  0.14975387217E+03  0.00000000000E+00 0.  1.
         22    1    3    3    0    0  0.71968756183E+02 -0.27874683734E+02 -0.12973661426E+02  0.78261202077E+02  0.00000000000E+00 0.  1.
</event>
<event>
 7    1  0.6510186E-006  0.6568201E+02  0.7818608E-02  0.1385906E+00
          2   -1    0    0  502    0  0.00000000000E+00  0.00000000000E+00  0.57909818153E+03  0.57909818153E+03  0.00000000000E+00 0. -1.
          1   -1    0    0  501    0 -0.00000000000E+00 -0.00000000000E+00 -0.85229242484E+03  0.85229242484E+03  0.00000000000E+00 0. -1.
         25    2    1    2    0    0  0.80237591496E+02  0.67272010822E+02  0.20432970568E+03  0.26141583512E+03  0.12499606274E+03 0.  0.
          2    1    1    2  501    0 -0.64939882936E+02 -0.89385836444E+01 -0.81980504712E+03  0.82242166919E+03  0.00000000000E+00 0. -1.
          1    1    1    2  502    0 -0.15297708560E+02 -0.58333427178E+02  0.34228109813E+03  0.34755310206E+03  0.00000000000E+00 0. -1.
         22    1    3    3    0    0  0.86635466161E+01  0.41892997609E+02 -0.68861730221E+00  0.42784979636E+02  0.00000000000E+00 0. -1.
         22    1    3    3    0    0  0.71574044880E+02  0.25379013213E+02  0.20501832298E+03  0.21863085548E+03  0.00000000000E+00 0. -1.
</event>
<event>
 7    1  0.6510186E-006  0.2227230E+03  0.7818608E-02  0.1177049E+00
          2   -1    0    0  502    0  0.00000000000E+00  0.00000000000E+00  0.20266578717E+04  0.20266578717E+04  0.00000000000E+00 0. -1.
          1   -1    0    0  501    0 -0.00000000000E+00 -0.00000000000E+00 -0.12300601579E+04  0.12300601579E+04  0.00000000000E+00 0. -1.
         25    2    1    2    0    0  0.13307678221E+03  0.57084162731E+02 -0.56727456388E+03  0.59865996311E+03  0.12500115606E+03 0.  0.
          2    1    1    2  501    0  0.86996394710E+02 -0.97852785089E+02 -0.63415660124E+03  0.64753234293E+03  0.00000000000E+00 0. -1.
          1    1    1    2  502    0 -0.22007317692E+03  0.40768622358E+02  0.19980288790E+04  0.20105257236E+04  0.00000000000E+00 0. -1.
         22    1    3    3    0    0  0.73135826802E+02  0.46106444219E+01 -0.96384973559E+02  0.12107919033E+03  0.00000000000E+00 0.  1.
         22    1    3    3    0    0  0.59940955409E+02  0.52473518309E+02 -0.47088959032E+03  0.47758077278E+03  0.00000000000E+00 0.  1.
</event>
<event>
 7    1  0.6510186E-006  0.6402295E+02  0.7818608E-02  0.1463535E+00
          2   -1    0    0  502    0  0.00000000000E+00  0.00000000000E+00  0.68063779648E+02  0.68063779648E+02  0.00000000000E+00 0. -1.
          1   -1    0    0  501    0 -0.00000000000E+00 -0.00000000000E+00 -0.33824407226E+03  0.33824407226E+03  0.00000000000E+00 0. -1.
         25    2    1    2    0    0 -0.24970263619E+02 -0.29522686512E+02 -0.94418423706E+02  0.16135330938E+03  0.12499979452E+03 0.  0.
          2    1    1    2  501    0  0.58478836539E+02  0.36257162981E+02 -0.19426390562E+03  0.20608935251E+03  0.00000000000E+00 0. -1.
          1    1    1    2  502    0 -0.33508572920E+02 -0.67344764689E+01  0.18502036714E+02  0.38865190017E+02  0.00000000000E+00 0. -1.
         22    1    3    3    0    0 -0.74033078211E+02 -0.33732584661E+02 -0.53994079014E+02  0.97642943964E+02  0.00000000000E+00 0. -1.
         22    1    3    3    0    0  0.49062814592E+02  0.42098981492E+01 -0.40424344692E+02  0.63710365420E+02  0.00000000000E+00 0. -1.
</event>
<event>
 7    1  0.6510186E-006  0.1267030E+03  0.7818608E-02  0.1280306E+00
          2   -1    0    0  502    0  0.00000000000E+00  0.00000000000E+00  0.19479862452E+04  0.19479862452E+04  0.00000000000E+00 0. -1.
          1   -1    0    0  501    0 -0.00000000000E+00 -0.00000000000E+00 -0.17245196246E+03  0.17245196246E+03  0.00000000000E+00 0. -1.
         25    2    1    2    0    0 -0.18983694540E+02  0.16975545373E+03  0.63487381983E+03  0.66923005712E+03  0.12500722984E+03 0.  0.
          2    1    1    2  501    0 -0.43697347198E+02 -0.65715247915E+02 -0.14218904897E+03  0.16262127046E+03  0.00000000000E+00 0. -1.
          1    1    1    2  502    0  0.62681041739E+02 -0.10404020581E+03  0.12828495119E+04  0.12885868801E+04  0.00000000000E+00 0. -1.
         22    1    3    3    0    0 -0.20911734653E+02  0.18703349103E+03  0.61328294164E+03  0.64150977694E+03  0.00000000000E+00 0. -1.
         22    1    3    3    0    0  0.19280401131E+01 -0.17278037301E+02  0.21590878198E+02  0.27720280175E+02  0.00000000000E+00 0. -1.
</event>
<event>
 7    1  0.6510186E-006  0.1711654E+03  0.7818608E-02  0.1317319E+00
          2   -1    0    0  502    0  0.00000000000E+00  0.00000000000E+00  0.39055286430E+03  0.39055286430E+03  0.00000000000E+00 0. -1.
          1   -1    0    0  501    0 -0.00000000000E+00 -0.00000000000E+00 -0.24142089236E+04  0.24142089236E+04  0.00000000000E+00 0. -1.
         25    2    1    2    0    0  0.90917184641E+02  0.11889525343E+03  0.52349308128E+02  0.20190868219E+03  0.12499860052E+03 0.  0.
          2    1    1    2  501    0 -0.66190044564E+01  0.40969958560E+02 -0.23082221557E+04  0.23085952155E+04  0.00000000000E+00 0. -1.
          1    1    1    2  502    0 -0.84298180185E+02 -0.15986521199E+03  0.23221678831E+03  0.29425789023E+03  0.00000000000E+00 0. -1.
         22    1    3    3    0    0  0.35968588088E+02  0.11834325171E+03  0.72510145057E+02  0.14337568027E+03  0.00000000000E+00 0.  1.
         22    1    3    3    0    0  0.54948596553E+02  0.55200171322E+00 -0.20160836929E+02  0.58533001928E+02  0.00000000000E+00 0.  1.
</event>
<event>
 7    1  0.6510186E-006  0.5815079E+02  0.7818608E-02  0.1423912E+00
          2   -1    0    0  502    0  0.00000000000E+00  0.00000000000E+00  0.72457371711E+03  0.72457371711E+03  0.00000000000E+00 0. -1.
          1   -1    0    0  501    0 -0.00000000000E+00 -0.00000000000E+00 -0.73350951245E+02  0.73350951245E+02  0.00000000000E+00 0. -1.
         25    2    1    2    0    0  0.16600126793E+02 -0.62148310889E+02  0.73006916914E+02  0.15840726604E+03  0.12499950105E+03 0.  0.
          2    1    1    2  501    0  0.32775701793E+02  0.51453180732E+02  0.19453082200E+01  0.61036551832E+02  0.00000000000E+00 0. -1.
          1    1    1    2  502    0 -0.49375828586E+02  0.10695130157E+02  0.57627054073E+03  0.57848085048E+03  0.00000000000E+00 0. -1.
         22    1    3    3    0    0  0.49257478935E+02 -0.85818178399E+02  0.61341650434E+02  0.11642103355E+03  0.00000000000E+00 0. -1.
         22    1    3    3    0    0 -0.32657352143E+02  0.23669867510E+02  0.11665266480E+02  0.41986232493E+02  0.00000000000E+00 0. -1.
</event>
<event>
 7    1  0.6510186E-006  0.3106601E+02  0.7818608E-02  0.1646361E+00
          2   -1    0    0  502    0  0.00000000000E+00  0.00000000000E+00  0.15552797842E+03  0.15552797842E+03  0.00000000000E+00 0. -1.
          1   -1    0    0  501    0 -0.00000000000E+00 -0.00000000000E+00 -0.27671964684E+03  0.27671964684E+03  0.00000000000E+00 0. -1.
         25    2    1    2    0    0  0.21777128033E+02 -0.15583877490E+02 -0.15012982234E+02  0.12871697158E+03  0.12500227436E+03 0.  0.
          2    1    1    2  501    0 -0.31024946338E+02 -0.42060373578E+01 -0.20242738068E+03  0.20483428056E+03  0.00000000000E+00 0. -1.
          1    1    1    2  502    0  0.92478183049E+01  0.19789914848E+02  0.96248694491E+02  0.98696373106E+02  0.00000000000E+00 0. -1.
         22    1    3    3    0    0  0.25334065115E+02 -0.19659406374E+02 -0.68143575751E+02  0.75311712438E+02  0.00000000000E+00 0.  1.
         22    1    3    3    0    0 -0.35569370819E+01  0.40755288834E+01  0.53130593517E+02  0.53405259147E+02  0.00000000000E+00 0.  1.
</event>
<event>
 7    1  0.6510186E-006  0.1766117E+03  0.7818608E-02  0.1269393E+00
          2   -1    0    0  502    0  0.00000000000E+00  0.00000000000E+00  0.80585470191E+03  0.80585470191E+03  0.00000000000E+00 0. -1.
          1   -1    0    0  501    0 -0.00000000000E+00 -0.00000000000E+00 -0.16979534213E+04  0.16979534213E+04  0.00000000000E+00 0. -1.
         25    2    1    2    0    0  0.23761520954E+02  0.14925085393E+03 -0.17021049716E+02  0.19687584557E+03  0.12501981907E+03 0.  0.
          2    1    1    2  501    0 -0.86230379736E+02 -0.15630109400E+03 -0.15846036496E+04  0.15946267390E+04  0.00000000000E+00 0. -1.
          1    1    1    2  502    0  0.62468858782E+02  0.70502400714E+01  0.70952597992E+03  0.71230553865E+03  0.00000000000E+00 0. -1.
         22    1    3    3    0    0 -0.31282566593E+02  0.89171480634E+02 -0.52387672909E+02  0.10804915642E+03  0.00000000000E+00 0.  1.
         22    1    3    3    0    0  0.55044087547E+02  0.60079373293E+02  0.35366623193E+02  0.88826689150E+02  0.00000000000E+00 0.  1.
</event>
<event>
 7    1  0.6510186E-006  0.1363080E+03  0.7818608E-02  0.1349824E+00
          2   -1    0    0  502    0  0.00000000000E+00  0.00000000000E+00  0.37676729103E+03  0.37676729103E+03  0.00000000000E+00 0. -1.
          1   -1    0    0  501    0 -0.00000000000E+00 -0.00000000000E+00 -0.84520068492E+03  0.84520068492E+03  0.00000000000E+00 0. -1.
         25    2    1    2    0    0 -0.44345103295E+02 -0.10239585201E+03 -0.13915478298E+03  0.21780789527E+03  0.12499930767E+03 0.  0.
          2    1    1    2  501    0  0.28878542678E+02  0.13843070399E+03 -0.65804273189E+03  0.67306557409E+03  0.00000000000E+00 0. -1.
          1    1    1    2  502    0  0.15466560617E+02 -0.36034851983E+02  0.32876412098E+03  0.33109450659E+03  0.00000000000E+00 0. -1.
         22    1    3    3    0    0  0.66747703029E+01 -0.69683893031E+02 -0.45054602697E+01  0.70147677643E+02  0.00000000000E+00 0.  1.
         22    1    3    3    0    0 -0.51019873598E+02 -0.32711958981E+02 -0.13464932271E+03  0.14766021762E+03  0.00000000000E+00 0.  1.
</event>
<event>
 7    1  0.6510186E-006  0.8853676E+02  0.7818608E-02  0.1472654E+00
          2   -1    0    0  502    0  0.00000000000E+00  0.00000000000E+00  0.38750047658E+03  0.38750047658E+03  0.00000000000E+00 0. -1.
          1   -1    0    0  501    0 -0.00000000000E+00 -0.00000000000E+00 -0.15773182589E+03  0.15773182589E+03  0.00000000000E+00 0. -1.
         25    2    1    2    0    0  0.41010972846E+02  0.65085089083E+02 -0.56548900893E+02  0.15729370527E+03  0.12500225122E+03 0.  0.
          2    1    1    2  501    0 -0.55230716002E+02 -0.83351378495E+02 -0.69720395669E+00  0.99991851571E+02  0.00000000000E+00 0. -1.
          1    1    1    2  502    0  0.14219743155E+02  0.18266289413E+02  0.28701475554E+03  0.28794674564E+03  0.00000000000E+00 0. -1.
         22    1    3    3    0    0  0.32634838756E+02  0.85723314404E+02  0.49771212615E+01  0.91860171288E+02  0.00000000000E+00 0.  1.
         22    1    3    3    0    0  0.83761340903E+01 -0.20638225322E+02 -0.61526022155E+02  0.65433533978E+02  0.00000000000E+00 0.  1.
</event>
<event>
 7    1  0.6510186E-006  0.5002137E+02  0.7818608E-02  0.1478657E+00
          2   -1    0    0  502    0  0.00000000000E+00  0.00000000000E+00  0.20644469711E+04  0.20644469711E+04  0.00000000000E+00 0. -1.
          1   -1    0    0  501    0 -0.00000000000E+00 -0.00000000000E+00 -0.11017236929E+03  0.11017236929E+03  0.00000000000E+00 0. -1.
         25    2    1    2    0    0 -0.12189434409E+02 -0.23439612123E+02  0.11892451380E+03  0.17456388680E+03  0.12502604875E+03 0.  0.
          2    1    1    2  501    0 -0.37101367552E+02  0.12843113808E+02 -0.77322110369E+02  0.86718889513E+02  0.00000000000E+00 0. -1.
          1    1    1    2  502    0  0.49290801961E+02  0.10596498315E+02  0.19126721983E+04  0.19133365640E+04  0.00000000000E+00 0. -1.
         22    1    3    3    0    0 -0.26820200408E+02  0.26457676109E+02 -0.70064213880E+01  0.38319991071E+02  0.00000000000E+00 0.  1.
         22    1    3    3    0    0  0.14630765999E+02 -0.49897288232E+02  0.12593093519E+03  0.13624389573E+03  0.00000000000E+00 0.  1.
</event>
<event>
 7    1  0.6510186E-006  0.5132596E+02  0.7818608E-02  0.1546079E+00
          2   -1    0    0  502    0  0.00000000000E+00  0.00000000000E+00  0.54909075703E+02  0.54909075703E+02  0.00000000000E+00 0. -1.
          1   -1    0    0  501    0 -0.00000000000E+00 -0.00000000000E+00 -0.62460572054E+03  0.62460572054E+03  0.00000000000E+00 0. -1.
         25    2    1    2    0    0  0.41496889863E+02 -0.19887886103E+02 -0.12467703916E+03  0.18244169279E+03  0.12499234894E+03 0.  0.
          2    1    1    2  501    0 -0.30839420336E+02  0.41679535846E+02 -0.46361652179E+03  0.46650673396E+03  0.00000000000E+00 0. -1.
          1    1    1    2  502    0 -0.10657469528E+02 -0.21791649744E+02  0.18596916106E+02  0.30566369492E+02  0.00000000000E+00 0. -1.
         22    1    3    3    0    0  0.66765839303E+02  0.10876893975E+02 -0.20140361040E+02  0.70580579930E+02  0.00000000000E+00 0. -1.
         22    1    3    3    0    0 -0.25268949440E+02 -0.30764780077E+02 -0.10453667812E+03  0.11186111286E+03  0.00000000000E+00 0. -1.
</event>
<event>
 7    1  0.6510186E-006  0.1353642E+03  0.7818608E-02  0.1293644E+00
          2   -1    0    0  502    0  0.00000000000E+00  0.00000000000E+00  0.35234156094E+02  0.35234156094E+02  0.00000000000E+00 0. -1.
          1   -1    0    0  501    0 -0.00000000000E+00 -0.00000000000E+00 -0.33064312455E+04  0.33064312455E+04  0.00000000000E+00 0. -1.
         25    2    1    2    0    0  0.95651406232E+02  0.15654843318E+01 -0.43093920887E+03  0.45878675056E+03  0.12500015398E+03 0.  0.
          2    1    1    2  501    0 -0.13094101521E+03  0.53204248386E+02 -0.28054526228E+04  0.28090106194E+04  0.00000000000E+00 0. -1.
          1    1    1    2  502    0  0.35289608981E+02 -0.54769732718E+02 -0.34805257774E+02  0.73868031602E+02  0.00000000000E+00 0. -1.
         22    1    3    3    0    0  0.13359737035E+02  0.55744537839E+02 -0.19069367238E+03  0.19912310955E+03  0.00000000000E+00 0. -1.
         22    1    3    3    0    0  0.82291669197E+02 -0.54179053508E+02 -0.24024553649E+03  0.25966364101E+03  0.00000000000E+00 0. -1.
</event>
<event>
 7    1  0.6510186E-006  0.2692344E+03  0.7818608E-02  0.1157138E+00
          2   -1    0    0  502    0  0.00000000000E+00  0.00000000000E+00  0.66175153635E+03  0.66175153635E+03  0.00000000000E+00 0. -1.
          1   -1    0    0  501    0 -0.00000000000E+00 -0.00000000000E+00 -0.17821156488E+04  0.17821156488E+04  0.00000000000E+00 0. -1.
         25    2    1    2    0    0  0.31411285991E+03 -0.50378879760E+02  0.69173624763E+02  0.34873351930E+03  0.12500062735E+03 0.  0.
          2    1    1    2  501    0 -0.25783998911E+03 -0.73623101296E+02 -0.16208269082E+04  0.16428577806E+04  0.00000000000E+00 0. -1.
          1    1    1    2  502    0 -0.56272870796E+02  0.12400198106E+03  0.43128917101E+03  0.45227588519E+03  0.00000000000E+00 0. -1.
         22    1    3    3    0    0  0.18998251778E+03 -0.91026673387E+02  0.52059386226E+02  0.21700090328E+03  0.00000000000E+00 0. -1.
         22    1    3    3    0    0  0.12413034213E+03  0.40647793627E+02  0.17114238537E+02  0.13173261602E+03  0.00000000000E+00 0. -1.
</event>
<event>
 7    1  0.6510186E-006  0.5879553E+02  0.7818608E-02  0.1455791E+00
          2   -1    0    0  502    0  0.00000000000E+00  0.00000000000E+00  0.35481627578E+02  0.35481627578E+02  0.00000000000E+00 0. -1.
          1   -1    0    0  501    0 -0.00000000000E+00 -0.00000000000E+00 -0.52512464452E+03  0.52512464452E+03  0.00000000000E+00 0. -1.
         25    2    1    2    0    0  0.31034723239E+02 -0.13307023418E+02 -0.37826495221E+03  0.39981317285E+03  0.12500387272E+03 0.  0.
          2    1    1    2  501    0  0.28936926581E+01 -0.39265708407E+02 -0.83452525686E+02  0.92274012362E+02  0.00000000000E+00 0. -1.
          1    1    1    2  502    0 -0.33928415897E+02  0.52572731824E+02 -0.27925539045E+02  0.68519086886E+02  0.00000000000E+00 0. -1.
         22    1    3    3    0    0  0.55718533708E+02 -0.15524850336E+02 -0.71126078649E+02  0.91676033076E+02  0.00000000000E+00 0.  1.
         22    1    3    3    0    0 -0.24683810470E+02  0.22178269187E+01 -0.30713887356E+03  0.30813713977E+03  0.00000000000E+00 0.  1.
</event>
<event>
 7    1  0.6510186E-006  0.9619133E+02  0.7818608E-02  0.1390999E+00
          2   -1    0    0  502    0  0.00000000000E+00  0.00000000000E+00  0.24571987121E+03  0.24571987121E+03  0.00000000000E+00 0. -1.
          1   -1    0    0  501    0 -0.00000000000E+00 -0.00000000000E+00 -0.30004356989E+03  0.30004356989E+03  0.00000000000E+00 0. -1.
         25    2    1    2    0    0  0.47336917470E+02  0.48982394958E+02 -0.22609096869E+02  0.14414026653E+03  0.12500074561E+03 0.  0.
          2    1    1    2  501    0  0.39387527168E+02  0.32769199760E+01 -0.20073832383E+03  0.20459225341E+03  0.00000000000E+00 0. -1.
          1    1    1    2  502    0 -0.86724444638E+02 -0.52259314934E+02  0.16902372201E+03  0.19703092117E+03  0.00000000000E+00 0. -1.
         22    1    3    3    0    0 -0.29671270091E+02 -0.19223557872E+02 -0.21273442282E+02  0.41261226262E+02  0.00000000000E+00 0. -1.
         22    1    3    3    0    0  0.77008187561E+02  0.68205952830E+02 -0.13356545873E+01  0.10287904027E+03  0.00000000000E+00 0. -1.
</event>
<event>
 7    1  0.6510186E-006  0.1170954E+03  0.7818608E-02  0.1399589E+00
          2   -1    0    0  502    0  0.00000000000E+00  0.00000000000E+00  0.12296675239E+04  0.12296675239E+04  0.00000000000E+00 0. -1.
          1   -1    0    0  501    0 -0.00000000000E+00 -0.00000000000E+00 -0.28843671488E+04  0.28843671488E+04  0.00000000000E+00 0. -1.
         25    2    1    2    0    0 -0.99958194017E+02  0.10665211557E+03  0.93069955274E+01  0.19255652085E+03  0.12500031699E+03 0.  0.
          2    1    1    2  501    0  0.84472057317E+02 -0.80586829212E+02 -0.27913183760E+04  0.27937587658E+04  0.00000000000E+00 0. -1.
          1    1    1    2  502    0  0.15486136699E+02 -0.26065286358E+02  0.11273117555E+04  0.11277193860E+04  0.00000000000E+00 0. -1.
         22    1    3    3    0    0  0.13802433898E+02 -0.12741174492E+02  0.19822350533E+02  0.27308795096E+02  0.00000000000E+00 0. -1.
         22    1    3    3    0    0 -0.11376062791E+03  0.11939329006E+03 -0.10515355006E+02  0.16524772575E+03  0.00000000000E+00 0. -1.
</event>
<event>
 7    1  0.6510186E-006  0.3525620E+02  0.7818608E-02  0.1564080E+00
          2   -1    0    0  502    0  0.00000000000E+00  0.00000000000E+00  0.37125005891E+03  0.37125005891E+03  0.00000000000E+00 0. -1.
          1   -1    0    0  501    0 -0.00000000000E+00 -0.00000000000E+00 -0.11942153927E+03  0.11942153927E+03  0.00000000000E+00 0. -1.
         25    2    1    2    0    0  0.72317474502E+01 -0.26076056564E+02  0.12937250717E+03  0.18191852790E+03  0.12499938515E+03 0.  0.
          2    1    1    2  501    0 -0.31462126917E+02 -0.11598848263E+01 -0.88882414527E+02  0.94293660313E+02  0.00000000000E+00 0. -1.
          1    1    1    2  502    0  0.24230379467E+02  0.27235941391E+02  0.21133842700E+03  0.21445940996E+03  0.00000000000E+00 0. -1.
         22    1    3    3    0    0 -0.35566675751E+01  0.36424391091E+02 -0.13494909097E+01  0.36622496860E+02  0.00000000000E+00 0.  1.
         22    1    3    3    0    0  0.10788415025E+02 -0.62500447655E+02  0.13072199808E+03  0.14529603104E+03  0.00000000000E+00 0.  1.
</event>
<event>
 7    1  0.6510186E-006  0.4042543E+02  0.7818608E-02  0.1585473E+00
          2   -1    0    0  502    0  0.00000000000E+00  0.00000000000E+00  0.36751492351E+03  0.36751492351E+03  0.00000000000E+00 0. -1.
          1   -1    0    0  501    0 -0.00000000000E+00 -0.00000000000E+00 -0.13038819421E+03  0.13038819421E+03  0.00000000000E+00 0. -1.
         25    2    1    2    0    0  0.35020185901E+02 -0.36151309472E+02 -0.79675588601E+02  0.15654384593E+03  0.12499778271E+03 0.  0.
          2    1    1    2  501    0 -0.23889951990E+02 -0.26656355241E+01  0.21586439688E+01  0.24134936557E+02  0.00000000000E+00 0. -1.
          1    1    1    2  502    0 -0.11130233911E+02  0.38816944996E+02  0.31464367393E+03  0.31722433524E+03  0.00000000000E+00 0. -1.
         22    1    3    3    0    0  0.51245012490E+02  0.22954934214E+02 -0.76860241558E+02  0.95186538136E+02  0.00000000000E+00 0.  1.
         22    1    3    3    0    0 -0.16224826589E+02 -0.59106243686E+02 -0.28153470426E+01  0.61357307792E+02  0.00000000000E+00 0.  1.
</event>
<event>
 7    1  0.6510186E-006  0.7789453E+02  0.7818608E-02  0.1388251E+00
          2   -1    0    0  502    0  0.00000000000E+00  0.00000000000E+00  0.31779692641E+04  0.31779692641E+04  0.00000000000E+00 0. -1.
          1   -1    0    0  501    0 -0.00000000000E+00 -0.00000000000E+00 -0.38367858624E+03  0.38367858624E+03  0.00000000000E+00 0. -1.
         25    2    1    2    0    0  0.53197892605E+02  0.89357704423E+02  0.20153238027E+03  0.25895030513E+03  0.12500058046E+03 0.  0.
          2    1    1    2  501    0 -0.65852763499E+02 -0.41091475031E+02 -0.35051224102E+03  0.35900407642E+03  0.00000000000E+00 0. -1.
          1    1    1    2  502    0  0.12654870893E+02 -0.48266229392E+02  0.29432705386E+04  0.29436934687E+04  0.00000000000E+00 0. -1.
         22    1    3    3    0    0  0.62206588508E+01  0.90671580824E+02  0.57745309013E+02  0.10767800555E+03  0.00000000000E+00 0.  1.
         22    1    3    3    0    0  0.46977233755E+02 -0.13138764014E+01  0.14378707125E+03  0.15127229959E+03  0.00000000000E+00 0.  1.
</event>
<event>
 7    1  0.6510186E-006  0.1252903E+03  0.7818608E-02  0.1352629E+00
          2   -1    0    0  502    0  0.00000000000E+00  0.00000000000E+00  0.17444175383E+02  0.17444175383E+02  0.00000000000E+00 0. -1.
          1   -1    0    0  501    0 -0.00000000000E+00 -0.00000000000E+00 -0.22992298620E+04  0.22992298620E+04  0.00000000000E+00 0. -1.
         25    2    1    2    0    0  0.21555217005E+02  0.10648462946E+03 -0.95423151883E+03  0.96849662522E+03  0.12499727130E+03 0.  0.
          2    1    1    2  501    0  0.39375099042E+02  0.13592316795E+02 -0.87562309175E+03  0.87661334025E+03  0.00000000000E+00 0. -1.
          1    1    1    2  502    0 -0.60930316047E+02 -0.12007694626E+03 -0.45193107606E+03  0.47156407194E+03  0.00000000000E+00 0. -1.
         22    1    3    3    0    0  0.16646027615E+02  0.54331568170E+02 -0.12163443563E+03  0.13425328848E+03  0.00000000000E+00 0. -1.
         22    1    3    3    0    0  0.49091893900E+01  0.52153061293E+02 -0.83259708320E+03  0.83424333674E+03  0.00000000000E+00 0. -1.
</event>
<event>
 7    1  0.6510186E-006  0.5464712E+02  0.7818608E-02  0.1429232E+00
          2   -1    0    0  502    0  0.00000000000E+00  0.00000000000E+00  0.59648230696E+02  0.59648230696E+02  0.00000000000E+00 0. -1.
          1   -1    0    0  501    0 -0.00000000000E+00 -0.00000000000E+00 -0.13616583727E+04  0.13616583727E+04  0.00000000000E+00 0. -1.
         25    2    1    2    0    0 -0.49862035422E+01 -0.60904629371E+02 -0.30271538345E+03  0.33315932991E+03  0.12499719848E+03 0.  0.
          2    1    1    2  501    0  0.45993655681E+02  0.23445677557E+02 -0.10254551924E+04  0.10267538496E+04  0.00000000000E+00 0. -1.
          1    1    1    2  502    0 -0.41007452139E+02  0.37458951814E+02  0.26160433779E+02  0.61393423894E+02  0.00000000000E+00 0. -1.
         22    1    3    3    0    0  0.70785795395E+01 -0.96430862706E+02 -0.17368781625E+03  0.19878751240E+03  0.00000000000E+00 0.  1.
         22    1    3    3    0    0 -0.12064783082E+02  0.35526233335E+02 -0.12902756719E+03  0.13437181751E+03  0.00000000000E+00 0.  1.
</event>
<event>
 7    1  0.6510186E-006  0.4788764E+02  0.7818608E-02  0.1500801E+00
          2   -1    0    0  502    0  0.00000000000E+00  0.00000000000E+00  0.10137615952E+03  0.10137615952E+03  0.00000000000E+00 0. -1.
          1   -1    0    0  501    0 -0.00000000000E+00 -0.00000000000E+00 -0.34601549068E+03  0.34601549068E+03  0.00000000000E+00 0. -1.
         25    2    1    2    0    0 -0.21681529794E+02 -0.28126217673E+02 -0.23237294098E+03  0.26624027376E+03  0.12500210724E+03 0.  0.
          2    1    1    2  501    0  0.54691584645E+02  0.16060837136E+02 -0.83858792245E+02  0.10139732224E+03  0.00000000000E+00 0. -1.
          1    1    1    2  502    0 -0.33010054851E+02  0.12065380537E+02  0.71592402062E+02  0.79754054203E+02  0.00000000000E+00 0. -1.
         22    1    3    3    0    0 -0.36953463011E+02  0.13988002579E+02 -0.21433624519E+03  0.21794781175E+03  0.00000000000E+00 0.  1.
         22    1    3    3    0    0  0.15271933217E+02 -0.42114220252E+02 -0.18036695794E+02  0.48292462008E+02  0.00000000000E+00 0.  1.
</event>
<event>
 7    1  0.6510186E-006  0.1300518E+03  0.7818608E-02  0.1414464E+00
          2   -1    0    0  502    0  0.00000000000E+00  0.00000000000E+00  0.16186290958E+04  0.16186290958E+04  0.00000000000E+00 0. -1.
          1   -1    0    0  501    0 -0.00000000000E+00 -0.00000000000E+00 -0.54954678724E+02  0.54954678724E+02  0.00000000000E+00 0. -1.
         25    2    1    2    0    0 -0.98286681051E+02  0.47517850136E+02  0.12858150719E+03  0.20993542797E+03  0.12498584789E+03 0.  0.
          2    1    1    2  501    0 -0.24290455562E+02  0.43397182621E+00  0.18395278256E+01  0.24363875422E+02  0.00000000000E+00 0. -1.
          1    1    1    2  502    0  0.12257713661E+03 -0.47951821963E+02  0.14332533821E+04  0.14392844711E+04  0.00000000000E+00 0. -1.
         22    1    3    3    0    0 -0.24893463109E+02  0.16962393889E+02 -0.23581822530E+02  0.38255844859E+02  0.00000000000E+00 0. -1.
         22    1    3    3    0    0 -0.73393217941E+02  0.30555456247E+02  0.15216332972E+03  0.17167958311E+03  0.00000000000E+00 0. -1.
</event>
<event>
 7    1  0.6510186E-006  0.1409383E+03  0.7818608E-02  0.1415373E+00
          2   -1    0    0  502    0  0.00000000000E+00  0.00000000000E+00  0.55108014756E+03  0.55108014756E+03  0.00000000000E+00 0. -1.
          1   -1    0    0  501    0 -0.00000000000E+00 -0.00000000000E+00 -0.12123301746E+04  0.12123301746E+04  0.00000000000E+00 0. -1.
         25    2    1    2    0    0 -0.83929377345E+01  0.14929448905E+03  0.22025448104E+03  0.29410132392E+03  0.12499706576E+03 0.  0.
          2    1    1    2  501    0  0.27625051264E+02 -0.13808514836E+03 -0.11707597475E+04  0.11791984727E+04  0.00000000000E+00 0. -1.
          1    1    1    2  502    0 -0.19232113529E+02 -0.11209340694E+02  0.28925523942E+03  0.29011052556E+03  0.00000000000E+00 0. -1.
         22    1    3    3    0    0  0.41522897818E+02  0.37995321755E+02  0.20212322530E+02  0.59802453967E+02  0.00000000000E+00 0. -1.
         22    1    3    3    0    0 -0.49915835553E+02  0.11129916729E+03  0.20004215850E+03  0.23429886995E+03  0.00000000000E+00 0. -1.
</event>
<event>
 7    1  0.6510186E-006  0.6382719E+02  0.7818608E-02  0.1479372E+00
          2   -1    0    0  502    0  0.00000000000E+00  0.00000000000E+00  0.39991781505E+03  0.39991781505E+03  0.00000000000E+00 0. -1.
          1   -1    0    0  501    0 -0.00000000000E+00 -0.00000000000E+00 -0.54225178743E+03  0.54225178743E+03  0.00000000000E+00 0. -1.
         25    2    1    2    0    0  0.73389156954E+02 -0.11629955450E+02 -0.50652721367E+03  0.52698770780E+03  0.12500000705E+03 0.  0.
          2    1    1    2  501    0 -0.42812845633E+02  0.10110917436E+02 -0.54019209902E+01  0.44321001263E+02  0.00000000000E+00 0. -1.
          1    1    1    2  502    0 -0.30576311321E+02  0.15190380141E+01  0.36959516228E+03  0.37086089342E+03  0.00000000000E+00 0. -1.
         22    1    3    3    0    0  0.42537476414E+01 -0.20243927403E+02 -0.58651741877E+01  0.21501423999E+02  0.00000000000E+00 0.  1.
         22    1    3    3    0    0  0.69135409312E+02  0.86139719531E+01 -0.50066203948E+03  0.50548628380E+03  0.00000000000E+00 0.  1.
</event>
<event>
 7    1  0.6510186E-006  0.9890548E+02  0.7818608E-02  0.1358223E+00
          2   -1    0    0  502    0  0.00000000000E+00  0.00000000000E+00  0.49717757189E+03  0.49717757189E+03  0.00000000000E+00 0. -1.
          1   -1    0    0  501    0 -0.00000000000E+00 -0.00000000000E+00 -0.20277229869E+03  0.20277229869E+03  0.00000000000E+00 0. -1.
         25    2    1    2    0    0  0.75094187018E+02  0.81676755440E+02 -0.12978423668E+03  0.21161345512E+03  0.12500430790E+03 0.  0.
          2    1    1    2  501    0 -0.24783292521E+02 -0.82987135638E+02  0.31077188320E+02  0.92015585112E+02  0.00000000000E+00 0. -1.
          1    1    1    2  502    0 -0.50310894497E+02  0.13103801975E+01  0.39311232156E+03  0.39632083035E+03  0.00000000000E+00 0. -1.
         22    1    3    3    0    0  0.70411845406E+02  0.98662096648E+02 -0.14453640285E+03  0.18863406118E+03  0.00000000000E+00 0.  1.
         22    1    3    3    0    0  0.46823416116E+01 -0.16985341208E+02  0.14752166171E+02  0.22979393936E+02  0.00000000000E+00 0.  1.
</event>
<event>
 7    1  0.6510186E-006  0.3797762E+02  0.7818608E-02  0.1525610E+00
          2   -1    0    0  502    0  0.00000000000E+00  0.00000000000E+00  0.44411449678E+03  0.44411449678E+03  0.00000000000E+00 0. -1.
          1   -1    0    0  501    0 -0.00000000000E+00 -0.00000000000E+00 -0.30457475361E+03  0.30457475361E+03  0.00000000000E+00 0. -1.
         25    2    1    2    0    0 -0.54419971944E+02 -0.12333569052E+02  0.13768906669E+02  0.13757247070E+03  0.12499180626E+03 0.  0.
          2    1    1    2  501    0  0.32529269447E+02 -0.18626696298E+02 -0.24024016104E+03  0.24314695590E+03  0.00000000000E+00 0. -1.
          1    1    1    2  502    0  0.21890702498E+02  0.30960265351E+02  0.36601099755E+03  0.36796982378E+03  0.00000000000E+00 0. -1.
         22    1    3    3    0    0 -0.82418192703E+02 -0.23245551717E+02  0.42849210436E+02  0.95755777883E+02  0.00000000000E+00 0. -1.
         22    1    3    3    0    0  0.27998220758E+02  0.10911982665E+02 -0.29080303767E+02  0.41816692821E+02  0.00000000000E+00 0. -1.
</event>
<event>
 7    1  0.6510186E-006  0.6705856E+02  0.7818608E-02  0.1500678E+00
          2   -1    0    0  502    0  0.00000000000E+00  0.00000000000E+00  0.23608188014E+04  0.23608188014E+04  0.00000000000E+00 0. -1.
          1   -1    0    0  501    0 -0.00000000000E+00 -0.00000000000E+00 -0.12733552508E+02  0.12733552508E+02  0.00000000000E+00 0. -1.
         25    2    1    2    0    0 -0.42041026908E+02 -0.43738634925E+02  0.68965360408E+03  0.70350995053E+03  0.12499456289E+03 0.  0.
          2    1    1    2  501    0  0.16133719854E+02 -0.19253376335E+02  0.25864253923E+02  0.36054806165E+02  0.00000000000E+00 0. -1.
          1    1    1    2  502    0  0.25907307054E+02  0.62992011259E+02  0.16325673909E+04  0.16339875972E+04  0.00000000000E+00 0. -1.
         22    1    3    3    0    0  0.26026062170E+02 -0.62757384012E+02  0.36210475071E+03  0.36842325612E+03  0.00000000000E+00 0.  1.
         22    1    3    3    0    0 -0.68067089077E+02  0.19018749087E+02  0.32754885337E+03  0.33508669442E+03  0.00000000000E+00 0.  1.
</event>
<event>
 7    1  0.6510186E-006  0.5478732E+02  0.7818608E-02  0.1482669E+00
          2   -1    0    0  502    0  0.00000000000E+00  0.00000000000E+00  0.24392160711E+03  0.24392160711E+03  0.00000000000E+00 0. -1.
          1   -1    0    0  501    0 -0.00000000000E+00 -0.00000000000E+00 -0.30016614082E+03  0.30016614082E+03  0.00000000000E+00 0. -1.
         25    2    1    2    0    0  0.10374916845E+02  0.25821188450E+02 -0.16555080453E+03  0.20930076611E+03  0.12500147656E+03 0.  0.
          2    1    1    2  501    0 -0.19677343330E+02  0.28757892253E+02 -0.10646666283E+03  0.11202394610E+03  0.00000000000E+00 0. -1.
          1    1    1    2  502    0  0.93024264848E+01 -0.54579080703E+02  0.21577293364E+03  0.22276303571E+03  0.00000000000E+00 0. -1.
         22    1    3    3    0    0 -0.41583956635E+02 -0.97377448909E+01 -0.13034727778E+03  0.13716581917E+03  0.00000000000E+00 0. -1.
         22    1    3    3    0    0  0.51958873480E+02  0.35558933341E+02 -0.35203526746E+02  0.72134946932E+02  0.00000000000E+00 0. -1.
</event>
<event>
 7    1  0.6510186E-006  0.6286703E+02  0.7818608E-02  0.1469212E+00
          2   -1    0    0  502    0  0.00000000000E+00  0.00000000000E+00  0.30304979333E+02  0.30304979333E+02  0.00000000000E+00 0. -1.
          1   -1    0    0  501    0 -0.00000000000E+00 -0.00000000000E+00 -0.51537867977E+03  0.51537867977E+03  0.00000000000E+00 0. -1.
         25    2    1    2    0    0 -0.43602403254E+02  0.62125255730E+02 -0.28202440061E+03  0.31768378443E+03  0.12499802951E+03 0.  0.
          2    1    1    2  501    0  0.33325169521E+02 -0.24267955609E+01 -0.12391934724E+03  0.12834508514E+03  0.00000000000E+00 0. -1.
          1    1    1    2  502    0  0.10277233733E+02 -0.59698460169E+02 -0.79129952587E+02  0.99654789530E+02  0.00000000000E+00 0. -1.
         22    1    3    3    0    0 -0.34874800195E+02  0.61629846675E+02 -0.52894814978E+02  0.88387505573E+02  0.00000000000E+00 0. -1.
         22    1    3    3    0    0 -0.87276030585E+01  0.49540905453E+00 -0.22912958563E+03  0.22929627886E+03  0.00000000000E+00 0. -1.
</event>
<event>
 7    1  0.6510186E-006  0.8765504E+02  0.7818608E-02  0.1415043E+00
          2   -1    0    0  502    0  0.00000000000E+00  0.00000000000E+00  0.39573634850E+02  0.39573634850E+02  0.00000000000E+00 0. -1.
          1   -1    0    0  501    0 -0.00000000000E+00 -0.00000000000E+00 -0.14920052017E+04  0.14920052017E+04  0.00000000000E+00 0. -1.
         25    2    1    2    0    0  0.74033920797E+02  0.90175220865E+02 -0.64768254725E+03  0.66987318184E+03  0.12499922341E+03 0.  0.
          2    1    1    2  501    0 -0.31928338170E+02 -0.16377030801E+02 -0.76848990710E+03  0.76932721467E+03  0.00000000000E+00 0. -1.
          1    1    1    2  502    0 -0.42105582627E+02 -0.73798190064E+02 -0.36259112506E+02  0.92378440043E+02  0.00000000000E+00 0. -1.
         22    1    3    3    0    0 -0.28575405892E+02  0.23465102211E+02 -0.67910557178E+02  0.77324049428E+02  0.00000000000E+00 0. -1.
         22    1    3    3    0    0  0.10260932669E+03  0.66710118654E+02 -0.57977199007E+03  0.59254913241E+03  0.00000000000E+00 0. -1.
</event>
<event>
 7    1  0.6510186E-006  0.1448072E+03  0.7818608E-02  0.1293427E+00
          2   -1    0    0  502    0  0.00000000000E+00  0.00000000000E+00  0.10573397083E+04  0.10573397083E+04  0.00000000000E+00 0. -1.
          1   -1    0    0  501    0 -0.00000000000E+00 -0.00000000000E+00 -0.85062368114E+03  0.85062368114E+03  0.00000000000E+00 0. -1.
         25    2    1    2    0    0  0.50340406562E+02  0.73704189809E+02  0.36544427969E+02  0.15788362562E+03  0.12500111957E+03 0.  0.
          2    1    1    2  501    0  0.30819484916E+02  0.52675398884E+02 -0.78288534693E+03  0.78526046936E+03  0.00000000000E+00 0. -1.
          1    1    1    2  502    0 -0.81159891478E+02 -0.12637958869E+03  0.95305694610E+03  0.96481929445E+03  0.00000000000E+00 0. -1.
         22    1    3    3    0    0 -0.17175594205E+02  0.11009271893E+02  0.59525705945E+02  0.62924675384E+02  0.00000000000E+00 0. -1.
         22    1    3    3    0    0  0.67516000766E+02  0.62694917916E+02 -0.22981277976E+02  0.94958950233E+02  0.00000000000E+00 0. -1.
</event>
<event>
 7    1  0.6510186E-006  0.9935663E+02  0.7818608E-02  0.1403984E+00
          2   -1    0    0  502    0  0.00000000000E+00  0.00000000000E+00  0.55892641491E+03  0.55892641491E+03  0.00000000000E+00 0. -1.
          1   -1    0    0  501    0 -0.00000000000E+00 -0.00000000000E+00 -0.10914103707E+04  0.10914103707E+04  0.00000000000E+00 0. -1.
         25    2    1    2    0    0 -0.74920163077E+02 -0.66640585558E+02 -0.29024648115E+02  0.16285764126E+03  0.12500473047E+03 0.  0.
          2    1    1    2  501    0 -0.17583244522E+02  0.29697700289E+02 -0.99012409266E+03  0.99072541239E+03  0.00000000000E+00 0. -1.
          1    1    1    2  502    0  0.92503407599E+02  0.36942885269E+02  0.48666478503E+03  0.49675373192E+03  0.00000000000E+00 0. -1.
         22    1    3    3    0    0 -0.62727709365E+02 -0.10026493336E+03 -0.40944558647E+02  0.12515701845E+03  0.00000000000E+00 0.  1.
         22    1    3    3    0    0 -0.12192453712E+02  0.33624347807E+02  0.11919910532E+02  0.37700622807E+02  0.00000000000E+00 0.  1.
</event>
<event>
 7    1  0.6510186E-006  0.1034599E+03  0.7818608E-02  0.1304662E+00
          2   -1    0    0  502    0  0.00000000000E+00  0.00000000000E+00  0.11180568780E+03  0.11180568780E+03  0.00000000000E+00 0. -1.
          1   -1    0    0  501    0 -0.00000000000E+00 -0.00000000000E+00 -0.49146721270E+03  0.49146721270E+03  0.00000000000E+00 0. -1.
         25    2    1    2    0    0 -0.65504066810E+02  0.12022684763E+02 -0.54700001194E+02  0.15183031626E+03  0.12500010835E+03 0.  0.
          2    1    1    2  501    0  0.96687518686E+02  0.58383832558E+02 -0.35211931300E+03  0.36979069588E+03  0.00000000000E+00 0. -1.
          1    1    1    2  502    0 -0.31183451876E+02 -0.70406517321E+02  0.27157789289E+02  0.81651888351E+02  0.00000000000E+00 0. -1.
         22    1    3    3    0    0  0.25474877351E+02  0.38550351149E+02 -0.24892652236E+02  0.52485646468E+02  0.00000000000E+00 0.  1.
         22    1    3    3    0    0 -0.90978944161E+02 -0.26527666386E+02 -0.29807348957E+02  0.99344669794E+02  0.00000000000E+00 0.  1.
</event>
<event>
 7    1  0.6510186E-006  0.3144836E+03  0.7818608E-02  0.1274377E+00
          2   -1    0    0  502    0  0.00000000000E+00  0.00000000000E+00  0.69909321354E+03  0.69909321354E+03  0.00000000000E+00 0. -1.
          1   -1    0    0  501    0 -0.00000000000E+00 -0.00000000000E+00 -0.17177866231E+04  0.17177866231E+04  0.00000000000E+00 0. -1.
         25    2    1    2    0    0  0.30543055230E+03  0.14635806938E+03 -0.19903889707E+03  0.41224898160E+03  0.12499693407E+03 0.  0.
          2    1    1    2  501    0 -0.33298268537E+02  0.48429488011E+01 -0.13710276334E+04  0.13714404838E+04  0.00000000000E+00 0. -1.
          1    1    1    2  502    0 -0.27213228377E+03 -0.15120101818E+03  0.55137312096E+03  0.63319037128E+03  0.00000000000E+00 0. -1.
         22    1    3    3    0    0  0.24150053288E+03  0.99431620139E+02 -0.87591733167E+02  0.27546590748E+03  0.00000000000E+00 0. -1.
         22    1    3    3    0    0  0.63930019425E+02  0.46926449241E+02 -0.11144716391E+03  0.13678307412E+03  0.00000000000E+00 0. -1.
</event>
<event>
 7    1  0.6510186E-006  0.1568522E+03  0.7818608E-02  0.1243714E+00
          2   -1    0    0  502    0  0.00000000000E+00  0.00000000000E+00  0.54426743408E+03  0.54426743408E+03  0.00000000000E+00 0. -1.
          1   -1    0    0  501    0 -0.00000000000E+00 -0.00000000000E+00 -0.28517442457E+03  0.28517442457E+03  0.00000000000E+00 0. -1.
         25    2    1    2    0    0  0.14026586420E+03 -0.28300174696E+02 -0.13128154999E+03  0.23094577757E+03  0.12500277701E+03 0.  0.
          2    1    1    2  501    0 -0.18886105526E+03 -0.48917275162E+02 -0.25583094140E+01  0.19511007906E+03  0.00000000000E+00 0. -1.
          1    1    1    2  502    0  0.48595191057E+02  0.77217449857E+02  0.39293286891E+03  0.40338600202E+03  0.00000000000E+00 0. -1.
         22    1    3    3    0    0  0.15875092708E+03 -0.35084383724E+02 -0.13448623466E+03  0.21099601452E+03  0.00000000000E+00 0.  1.
         22    1    3    3    0    0 -0.18485062881E+02  0.67842090282E+01  0.32046846692E+01  0.19949763048E+02  0.00000000000E+00 0.  1.
</event>
<event>
 7    1  0.6510186E-006  0.1158387E+03  0.7818608E-02  0.1336764E+00
          2   -1    0    0  502    0  0.00000000000E+00  0.00000000000E+00  0.32057049796E+04  0.32057049796E+04  0.00000000000E+00 0. -1.
          1   -1    0    0  501    0 -0.00000000000E+00 -0.00000000000E+00 -0.27436505331E+03  0.27436505331E+03  0.00000000000E+00 0. -1.
         25    2    1    2    0    0 -0.14621269519E+03 -0.75997022071E+01  0.20334290572E+04  0.20425209818E+04  0.12498928928E+03 0.  0.
          2    1    1    2  501    0  0.47954388135E+02 -0.19160742796E+02 -0.26510262888E+03  0.27008547026E+03  0.00000000000E+00 0. -1.
          1    1    1    2  502    0  0.98258307053E+02  0.26760445003E+02  0.11630134980E+04  0.11674635809E+04  0.00000000000E+00 0. -1.
         22    1    3    3    0    0  0.10522238017E+02 -0.13327857971E+02  0.65133918570E+03  0.65156049920E+03  0.00000000000E+00 0.  1.
         22    1    3    3    0    0 -0.15673493320E+03  0.57281557642E+01  0.13820898715E+04  0.13909604826E+04  0.00000000000E+00 0.  1.
</event>
<event>
 7    1  0.6510186E-006  0.1012027E+03  0.7818608E-02  0.1305015E+00
          2   -1    0    0  502    0  0.00000000000E+00  0.00000000000E+00  0.52763901227E+03  0.52763901227E+03  0.00000000000E+00 0. -1.
          1   -1    0    0  501    0 -0.00000000000E+00 -0.00000000000E+00 -0.45747833844E+03  0.45747833844E+03  0.00000000000E+00 0. -1.
         25    2    1    2    0    0 -0.52272710964E+01  0.72855216814E+02 -0.50085103017E+02  0.15319518486E+03  0.12500016055E+03 0.  0.
          2    1    1    2  501    0  0.83646494446E+02 -0.70115004300E+02 -0.34409888292E+03  0.36099430894E+03  0.00000000000E+00 0. -1.
          1    1    1    2  502    0 -0.78419223350E+02 -0.27402125139E+01  0.46434465977E+03  0.47092785691E+03  0.00000000000E+00 0. -1.
         22    1    3    3    0    0  0.38401709246E+02 -0.78612682017E+01 -0.47257629693E+02  0.61398488377E+02  0.00000000000E+00 0. -1.
         22    1    3    3    0    0 -0.43628980342E+02  0.80716485016E+02 -0.28274733233E+01  0.91796696478E+02  0.00000000000E+00 0. -1.
</event>
<event>
 7    1  0.6510186E-006  0.3472076E+03  0.7818608E-02  0.1180827E+00
          2   -1    0    0  502    0  0.00000000000E+00  0.00000000000E+00  0.22733801846E+04  0.22733801846E+04  0.00000000000E+00 0. -1.
          1   -1    0    0  501    0 -0.00000000000E+00 -0.00000000000E+00 -0.20172874870E+04  0.20172874870E+04  0.00000000000E+00 0. -1.
         25    2    1    2    0    0 -0.33491352970E+03 -0.14594649677E+03 -0.29767060918E+03  0.48754512843E+03  0.12500003357E+03 0.  0.
          2    1    1    2  501    0  0.54937763982E+02 -0.58827707710E+02 -0.16098598469E+04  0.16118708335E+04  0.00000000000E+00 0. -1.
          1    1    1    2  502    0  0.27997576571E+03  0.20477420448E+03  0.21636231537E+04  0.21912517097E+04  0.00000000000E+00 0. -1.
         22    1    3    3    0    0 -0.45340958019E+02  0.57345700698E+01 -0.40950518219E+00  0.45703998320E+02  0.00000000000E+00 0.  1.
         22    1    3    3    0    0 -0.28957257168E+03 -0.15168106684E+03 -0.29726110400E+03  0.44184113011E+03  0.00000000000E+00 0.  1.
</event>
<event>
 7    1  0.6510186E-006  0.3395704E+02  0.7818608E-02  0.1585285E+00
          2   -1    0    0  502    0  0.00000000000E+00  0.00000000000E+00  0.15740205056E+03  0.15740205056E+03  0.00000000000E+00 0. -1.
          1   -1    0    0  501    0 -0.00000000000E+00 -0.00000000000E+00 -0.17397217833E+04  0.17397217833E+04  0.00000000000E+00 0. -1.
         25    2    1    2    0    0 -0.12017394899E+02  0.50204805972E+02 -0.11923509666E+04  0.11999959912E+04  0.12499844358E+03 0.  0.
          2    1    1    2  501    0  0.22382077215E+02 -0.17885061499E+02 -0.54128958483E+03  0.54204727418E+03  0.00000000000E+00 0. -1.
          1    1    1    2  502    0 -0.10364682316E+02 -0.32319744474E+02  0.15132081876E+03  0.15508056845E+03  0.00000000000E+00 0. -1.
         22    1    3    3    0    0 -0.66440699273E+02  0.38001447120E+02 -0.56313045714E+03  0.56830835667E+03  0.00000000000E+00 0. -1.
         22    1    3    3    0    0  0.54423304374E+02  0.12203358853E+02 -0.62922050950E+03  0.63168763452E+03  0.00000000000E+00 0. -1.
</event>
<event>
 7    1  0.6510186E-006  0.1363893E+03  0.7818608E-02  0.1219272E+00
          2   -1    0    0  502    0  0.00000000000E+00  0.00000000000E+00  0.79436569697E+03  0.79436569697E+03  0.00000000000E+00 0. -1.
          1   -1    0    0  501    0 -0.00000000000E+00 -0.00000000000E+00 -0.80529095850E+03  0.80529095850E+03  0.00000000000E+00 0. -1.
         25    2    1    2    0    0  0.70071905498E+02 -0.13765567026E+03 -0.61681506285E+02  0.20805807590E+03  0.12499759693E+03 0.  0.
          2    1    1    2  501    0  0.66985710727E+02  0.11716436509E+03 -0.65683881843E+03  0.67056081550E+03  0.00000000000E+00 0. -1.
          1    1    1    2  502    0 -0.13705761623E+03  0.20491305164E+02  0.70759506319E+03  0.72103776406E+03  0.00000000000E+00 0. -1.
         22    1    3    3    0    0  0.25247279266E+02 -0.13801842940E+03 -0.11512366850E+02  0.14078013552E+03  0.00000000000E+00 0. -1.
         22    1    3    3    0    0  0.44824626231E+02  0.36275914942E+00 -0.50169139434E+02  0.67277940386E+02  0.00000000000E+00 0. -1.
</event>
<event>
 7    1  0.6510186E-006  0.8098739E+02  0.7818608E-02  0.1382629E+00
          2   -1    0    0  502    0  0.00000000000E+00  0.00000000000E+00  0.12013890687E+04  0.12013890687E+04  0.00000000000E+00 0. -1.
          1   -1    0    0  501    0 -0.00000000000E+00 -0.00000000000E+00 -0.41310687174E+03  0.41310687174E+03  0.00000000000E+00 0. -1.
         25    2    1    2    0    0  0.14350655498E+01  0.73289119208E+02  0.84368253910E+02  0.16767977170E+03  0.12500059665E+03 0.  0.
          2    1    1    2  501    0  0.48261959797E+02 -0.66024916474E+02 -0.36635344584E+03  0.37537095470E+03  0.00000000000E+00 0. -1.
          1    1    1    2  502    0 -0.49697025347E+02 -0.72642027337E+01  0.10702673888E+04  0.10714452140E+04  0.00000000000E+00 0. -1.
         22    1    3    3    0    0  0.39923450805E+02 -0.14108293018E+01 -0.10140167271E+02  0.41215232085E+02  0.00000000000E+00 0.  1.
         22    1    3    3    0    0 -0.38488385255E+02  0.74699948509E+02  0.94508421181E+02  0.12646453962E+03  0.00000000000E+00 0.  1.
</event>
<event>
 7    1  0.6510186E-006  0.5861130E+02  0.7818608E-02  0.1426938E+00
          2   -1    0    0  502    0  0.00000000000E+00  0.00000000000E+00  0.10334299724E+03  0.10334299724E+03  0.00000000000E+00 0. -1.
          1   -1    0    0  501    0 -0.00000000000E+00 -0.00000000000E+00 -0.18999356149E+04  0.18999356149E+04  0.00000000000E+00 0. -1.
         25    2    1    2    0    0 -0.27249962648E+02  0.73852867171E+02  0.14431093183E+02  0.14843349525E+03  0.12500975805E+03 0.  0.
          2    1    1    2  501    0 -0.18234897388E+02 -0.55682808998E+02 -0.18044789451E+04  0.18054299627E+04  0.00000000000E+00 0. -1.
          1    1    1    2  502    0  0.45484860035E+02 -0.18170058173E+02 -0.65447656916E+01  0.49415154198E+02  0.00000000000E+00 0. -1.
         22    1    3    3    0    0 -0.58360723409E+02  0.39590208537E+02 -0.36673653929E+02  0.79487832662E+02  0.00000000000E+00 0.  1.
         22    1    3    3    0    0  0.31110760762E+02  0.34262658634E+02  0.51104747113E+02  0.68945662585E+02  0.00000000000E+00 0.  1.
</event>
<event>
 7    1  0.6510186E-006  0.1121259E+03  0.7818608E-02  0.1332950E+00
          2   -1    0    0  502    0  0.00000000000E+00  0.00000000000E+00  0.22160102438E+04  0.22160102438E+04  0.00000000000E+00 0. -1.
          1   -1    0    0  501    0 -0.00000000000E+00 -0.00000000000E+00 -0.26226035445E+02  0.26226035445E+02  0.00000000000E+00 0. -1.
         25    2    1    2    0    0  0.85233699477E+02 -0.12291453462E+02  0.41423560941E+03  0.44117230692E+03  0.12500400369E+03 0.  0.
          2    1    1    2  501    0 -0.12789881016E+03  0.47248534619E+02  0.36819144829E+03  0.39262637743E+03  0.00000000000E+00 0. -1.
          1    1    1    2  502    0  0.42665110678E+02 -0.34957081157E+02  0.14073571507E+04  0.14084375949E+04  0.00000000000E+00 0. -1.
         22    1    3    3    0    0  0.13265139030E+02 -0.65454184062E+01 -0.51154725667E+01  0.15651660461E+02  0.00000000000E+00 0. -1.
         22    1    3    3    0    0  0.71968560447E+02 -0.57460350558E+01  0.41935108197E+03  0.42552064646E+03  0.00000000000E+00 0. -1.
</event>
<event>
 7    1  0.6510186E-006  0.8507055E+02  0.7818608E-02  0.1323653E+00
          2   -1    0    0  502    0  0.00000000000E+00  0.00000000000E+00  0.20388392030E+04  0.20388392030E+04  0.00000000000E+00 0. -1.
          1   -1    0    0  501    0 -0.00000000000E+00 -0.00000000000E+00 -0.13166367027E+03  0.13166367027E+03  0.00000000000E+00 0. -1.
         25    2    1    2    0    0  0.20859436549E+02  0.67530108331E+02  0.97889687119E+03  0.98937256247E+03  0.12499420511E+03 0.  0.
          2    1    1    2  501    0  0.73179243712E+02 -0.29527905535E+02 -0.11139908207E+03  0.13651686490E+03  0.00000000000E+00 0. -1.
          1    1    1    2  502    0 -0.94038680261E+02 -0.38002202796E+02  0.10396777436E+04  0.10446134459E+04  0.00000000000E+00 0. -1.
         22    1    3    3    0    0  0.64969450142E+02  0.46192961938E+02  0.36911150844E+03  0.37762166893E+03  0.00000000000E+00 0.  1.
         22    1    3    3    0    0 -0.44110013594E+02  0.21337146393E+02  0.60978536275E+03  0.61175089354E+03  0.00000000000E+00 0.  1.
</event>
<event>
 7    1  0.6510186E-006  0.5439661E+02  0.7818608E-02  0.1429771E+00
          2   -1    0    0  502    0  0.00000000000E+00  0.00000000000E+00  0.23231099188E+04  0.23231099188E+04  0.00000000000E+00 0. -1.
          1   -1    0    0  501    0 -0.00000000000E+00 -0.00000000000E+00 -0.20266368011E+02  0.20266368011E+02  0.00000000000E+00 0. -1.
         25    2    1    2    0    0  0.13259089258E+02  0.52792683317E+02  0.85949991056E+03  0.87024569556E+03  0.12499841411E+03 0.  0.
          2    1    1    2  501    0 -0.50640183936E+02 -0.10168846509E+02  0.32237157112E+02  0.60885695916E+02  0.00000000000E+00 0. -1.
          1    1    1    2  502    0  0.37381094678E+02 -0.42623836807E+02  0.14111064831E+04  0.14122448953E+04  0.00000000000E+00 0. -1.
         22    1    3    3    0    0 -0.18717417013E+02  0.41914440100E+02  0.80376714610E+03  0.80507688275E+03  0.00000000000E+00 0.  1.
         22    1    3    3    0    0  0.31976506271E+02  0.10878243216E+02  0.55732764460E+02  0.65168812810E+02  0.00000000000E+00 0.  1.
</event>
<event>
 7    1  0.6510186E-006  0.7497129E+02  0.7818608E-02  0.1392543E+00
          2   -1    0    0  502    0  0.00000000000E+00  0.00000000000E+00  0.25294709659E+04  0.25294709659E+04  0.00000000000E+00 0. -1.
          1   -1    0    0  501    0 -0.00000000000E+00 -0.00000000000E+00 -0.66481604375E+03  0.66481604375E+03  0.00000000000E+00 0. -1.
         25    2    1    2    0    0  0.54576037952E+02 -0.48002006084E+01  0.34095681471E+03  0.36725794945E+03  0.12500106436E+03 0.  0.
          2    1    1    2  501    0  0.77209286537E+01  0.49487982407E+02 -0.65002626075E+03  0.65195307562E+03  0.00000000000E+00 0. -1.
          1    1    1    2  502    0 -0.62296966605E+02 -0.44687781799E+02  0.21737243682E+04  0.21750759846E+04  0.00000000000E+00 0. -1.
         22    1    3    3    0    0 -0.37169601214E+02 -0.21839309522E+02  0.10294610055E+03  0.11160839714E+03  0.00000000000E+00 0. -1.
         22    1    3    3    0    0  0.91745639166E+02  0.17039108914E+02  0.23801071416E+03  0.25564955230E+03  0.00000000000E+00 0. -1.
</event>
<event>
 7    1  0.6510186E-006  0.5751731E+02  0.7818608E-02  0.1417540E+00
          2   -1    0    0  502    0  0.00000000000E+00  0.00000000000E+00  0.15626779411E+04  0.15626779411E+04  0.00000000000E+00 0. -1.
          1   -1    0    0  501    0 -0.00000000000E+00 -0.00000000000E+00 -0.56919207511E+02  0.56919207511E+02  0.00000000000E+00 0. -1.
         25    2    1    2    0    0 -0.63355165337E+02  0.40400226437E+02  0.43755751246E+03  0.46121988657E+03  0.12498460621E+03 0.  0.
          2    1    1    2  501    0  0.56240116798E+02  0.12765735665E+02 -0.25716870551E+02  0.63144850744E+02  0.00000000000E+00 0. -1.
          1    1    1    2  502    0  0.71150485396E+01 -0.53165962102E+02  0.10939180916E+04  0.10952324113E+04  0.00000000000E+00 0. -1.
         22    1    3    3    0    0 -0.61340007998E+02  0.82743778125E+02  0.29313579348E+03  0.31070520243E+03  0.00000000000E+00 0.  1.
         22    1    3    3    0    0 -0.20151573389E+01 -0.42343551688E+02  0.14442171898E+03  0.15051468414E+03  0.00000000000E+00 0.  1.
</event>
<event>
 7    1  0.6510186E-006  0.5006457E+02  0.7818608E-02  0.1464995E+00
          2   -1    0    0  502    0  0.00000000000E+00  0.00000000000E+00  0.29535409549E+03  0.29535409549E+03  0.00000000000E+00 0. -1.
          1   -1    0    0  501    0 -0.00000000000E+00 -0.00000000000E+00 -0.12025933225E+04  0.12025933225E+04  0.00000000000E+00 0. -1.
         25    2    1    2    0    0  0.42085108481E+02 -0.86535880004E+01 -0.26045353536E+02  0.13472018440E+03  0.12500050681E+03 0.  0.
          2    1    1    2  501    0 -0.20332279479E+02  0.46034593349E+02 -0.11197005734E+04  0.11208309237E+04  0.00000000000E+00 0. -1.
          1    1    1    2  502    0 -0.21752829002E+02 -0.37381005348E+02  0.23850669995E+03  0.24239630990E+03  0.00000000000E+00 0. -1.
         22    1    3    3    0    0 -0.37047501699E+02 -0.30086508602E+02  0.28062344896E+01  0.47807848038E+02  0.00000000000E+00 0. -1.
         22    1    3    3    0    0  0.79132610180E+02  0.21432920602E+02 -0.28851588026E+02  0.86912336357E+02  0.00000000000E+00 0. -1.
</event>
<event>
 7    1  0.6510186E-006  0.1804932E+03  0.7818608E-02  0.1239600E+00
          2   -1    0    0  502    0  0.00000000000E+00  0.00000000000E+00  0.83840940567E+03  0.83840940567E+03  0.00000000000E+00 0. -1.
          1   -1    0    0  501    0 -0.00000000000E+00 -0.00000000000E+00 -0.49955073864E+03  0.49955073864E+03  0.00000000000E+00 0. -1.
         25    2    1    2    0    0  0.72644369495E+02  0.90567628169E+02  0.59028591910E+02  0.18052495437E+03  0.12500073918E+03 0.  0.
          2    1    1    2  501    0 -0.85611363943E+02 -0.17220334922E+03 -0.41516457877E+03  0.45754226754E+03  0.00000000000E+00 0. -1.
          1    1    1    2  502    0  0.12966994448E+02  0.81635721048E+02  0.69499465389E+03  0.69989292241E+03  0.00000000000E+00 0. -1.
         22    1    3    3    0    0  0.51658785405E+02  0.16975765531E+02  0.83968839440E+02  0.10003785644E+03  0.00000000000E+00 0. -1.
         22    1    3    3    0    0  0.20985584090E+02  0.73591862638E+02 -0.24940247530E+02  0.80487097929E+02  0.00000000000E+00 0. -1.
</event>
<event>
 7    1  0.6510186E-006  0.2319478E+03  0.7818608E-02  0.1179609E+00
          2   -1    0    0  502    0  0.00000000000E+00  0.00000000000E+00  0.18589985246E+03  0.18589985246E+03  0.00000000000E+00 0. -1.
          1   -1    0    0  501    0 -0.00000000000E+00 -0.00000000000E+00 -0.21562266925E+04  0.21562266925E+04  0.00000000000E+00 0. -1.
         25    2    1    2    0    0  0.11539742185E+03 -0.76347564131E+02 -0.25759695835E+03  0.31800533015E+03  0.12500272609E+03 0.  0.
          2    1    1    2  501    0 -0.21982357902E+03  0.13971663349E+03 -0.18337597358E+04  0.18521657356E+04  0.00000000000E+00 0. -1.
          1    1    1    2  502    0  0.10442615716E+03 -0.63369069360E+02  0.12102985409E+03  0.17195547922E+03  0.00000000000E+00 0. -1.
         22    1    3    3    0    0  0.99531345172E+02 -0.78360968242E+02 -0.26968708048E+03  0.29795645889E+03  0.00000000000E+00 0. -1.
         22    1    3    3    0    0  0.15866076682E+02  0.20134041118E+01  0.12090122130E+02  0.20048871253E+02  0.00000000000E+00 0. -1.
</event>
<event>
 7    1  0.6510186E-006  0.1164140E+03  0.7818608E-02  0.1383399E+00
          2   -1    0    0  502    0  0.00000000000E+00  0.00000000000E+00  0.24863431545E+04  0.24863431545E+04  0.00000000000E+00 0. -1.
          1   -1    0    0  501    0 -0.00000000000E+00 -0.00000000000E+00 -0.13025706878E+03  0.13025706878E+03  0.00000000000E+00 0. -1.
         25    2    1    2    0    0  0.37829814624E+02 -0.14277694740E+03  0.34788714401E+03  0.39807729410E+03  0.12499486201E+03 0.  0.
          2    1    1    2  501    0 -0.35638557074E+02  0.10812311344E+03 -0.74163479606E+02  0.13587102751E+03  0.00000000000E+00 0. -1.
          1    1    1    2  502    0 -0.21912575499E+01  0.34653833959E+02  0.20823624213E+04  0.20826519017E+04  0.00000000000E+00 0. -1.
         22    1    3    3    0    0 -0.29914524482E+02 -0.10970933380E+03  0.16627031431E+03  0.20143692342E+03  0.00000000000E+00 0. -1.
         22    1    3    3    0    0  0.67744339106E+02 -0.33067613604E+02  0.18161682970E+03  0.19664037068E+03  0.00000000000E+00 0. -1.
</event>
<event>
 7    1  0.6510186E-006  0.2213024E+03  0.7818608E-02  0.1226033E+00
          2   -1    0    0  502    0  0.00000000000E+00  0.00000000000E+00  0.13149999203E+04  0.13149999203E+04  0.00000000000E+00 0. -1.
          1   -1    0    0  501    0 -0.00000000000E+00 -0.00000000000E+00 -0.21280540112E+03  0.21280540112E+03  0.00000000000E+00 0. -1.
         25    2    1    2    0    0  0.12266212371E+03  0.94910088075E+02  0.64474447489E+02  0.20936940725E+03  0.12499869160E+03 0.  0.
          2    1    1    2  501    0  0.68359327566E+02  0.36518812648E+02 -0.11717926380E+03  0.14049057338E+03  0.00000000000E+00 0. -1.
          1    1    1    2  502    0 -0.19102145127E+03 -0.13142890072E+03  0.11548993355E+04  0.11779453408E+04  0.00000000000E+00 0. -1.
         22    1    3    3    0    0  0.39017623751E+01  0.78028426723E+02  0.14692788785E+02  0.79495516658E+02  0.00000000000E+00 0. -1.
         22    1    3    3    0    0  0.11876036133E+03  0.16881661352E+02  0.49781658704E+02  0.12987389059E+03  0.00000000000E+00 0. -1.
</event>
<event>
 7    1  0.6510186E-006  0.4966982E+02  0.7818608E-02  0.1485523E+00
          2   -1    0    0  502    0  0.00000000000E+00  0.00000000000E+00  0.10026015111E+04  0.10026015111E+04  0.00000000000E+00 0. -1.
          1   -1    0    0  501    0 -0.00000000000E+00 -0.00000000000E+00 -0.41301155564E+03  0.41301155564E+03  0.00000000000E+00 0. -1.
         25    2    1    2    0    0 -0.79459361557E+02  0.22181279942E+02  0.51353684739E+02  0.15833969593E+03  0.12501383545E+03 0.  0.
          2    1    1    2  501    0  0.37492891599E+02  0.36781657208E+01 -0.35785237468E+03  0.35982991522E+03  0.00000000000E+00 0. -1.
          1    1    1    2  502    0  0.41966469957E+02 -0.25859445663E+02  0.89608864538E+03  0.89744345555E+03  0.00000000000E+00 0. -1.
         22    1    3    3    0    0 -0.94895557900E+02 -0.16989646878E+02  0.62017848507E+01  0.96603711862E+02  0.00000000000E+00 0. -1.
         22    1    3    3    0    0  0.15436196343E+02  0.39170926821E+02  0.45151899888E+02  0.61735984070E+02  0.00000000000E+00 0. -1.
</event>
<event>
 7    1  0.6510186E-006  0.2603657E+02  0.7818608E-02  0.1678495E+00
          2   -1    0    0  502    0  0.00000000000E+00  0.00000000000E+00  0.99011456602E+03  0.99011456602E+03  0.00000000000E+00 0. -1.
          1   -1    0    0  501    0 -0.00000000000E+00 -0.00000000000E+00 -0.86100981968E+02  0.86100981968E+02  0.00000000000E+00 0. -1.
         25    2    1    2    0    0 -0.56192612144E+01  0.22614266860E+01  0.29364324591E+03  0.31919902144E+03  0.12499987707E+03 0.  0.
          2    1    1    2  501    0  0.25092301466E+02  0.75365148377E+01 -0.70802751549E+02  0.75494716872E+02  0.00000000000E+00 0. -1.
          1    1    1    2  502    0 -0.19473040252E+02 -0.97979415237E+01  0.68117308969E+03  0.68152180968E+03  0.00000000000E+00 0. -1.
         22    1    3    3    0    0 -0.54919957490E+02  0.27045367316E+02  0.94853704412E+02  0.11289321886E+03  0.00000000000E+00 0.  1.
         22    1    3    3    0    0  0.49300696275E+02 -0.24783940630E+02  0.19878954150E+03  0.20630580258E+03  0.00000000000E+00 0.  1.
</event>
<event>
 7    1  0.6510186E-006  0.1303366E+03  0.7818608E-02  0.1412270E+00
          2   -1    0    0  502    0  0.00000000000E+00  0.00000000000E+00  0.63188325266E+03  0.63188325266E+03  0.00000000000E+00 0. -1.
          1   -1    0    0  501    0 -0.00000000000E+00 -0.00000000000E+00 -0.91464216369E+02  0.91464216369E+02  0.00000000000E+00 0. -1.
         25    2    1    2    0    0 -0.12510698321E+03  0.29015246090E+01  0.24843812833E+03  0.30496919957E+03  0.12499813193E+03 0.  0.
          2    1    1    2  501    0  0.13036360341E+03  0.21189318307E+02  0.69228469060E+01  0.13225574511E+03  0.00000000000E+00 0. -1.
          1    1    1    2  502    0 -0.52566202015E+01 -0.24090842916E+02  0.28505806105E+03  0.28612252435E+03  0.00000000000E+00 0. -1.
         22    1    3    3    0    0 -0.56890326919E+02 -0.72340763632E+01  0.22490131260E+03  0.23209791375E+03  0.00000000000E+00 0.  1.
         22    1    3    3    0    0 -0.68216656292E+02  0.10135600972E+02  0.23536815734E+02  0.72871285824E+02  0.00000000000E+00 0.  1.
</event>
<event>
 7    1  0.6510186E-006  0.7534628E+02  0.7818608E-02  0.1367876E+00
          2   -1    0    0  502    0  0.00000000000E+00  0.00000000000E+00  0.36356005678E+04  0.36356005678E+04  0.00000000000E+00 0. -1.
          1   -1    0    0  501    0 -0.00000000000E+00 -0.00000000000E+00 -0.77065319712E+02  0.77065319712E+02  0.00000000000E+00 0. -1.
         25    2    1    2    0    0  0.12818039418E+03 -0.35792321959E+01  0.18706973385E+04  0.18792491083E+04  0.12500261749E+03 0.  0.
          2    1    1    2  501    0 -0.60850554256E+02  0.32985986141E+01 -0.59271486176E+02  0.85010468647E+02  0.00000000000E+00 0. -1.
          1    1    1    2  502    0 -0.67329839920E+02  0.28063358174E+00  0.17471093957E+04  0.17484063105E+04  0.00000000000E+00 0. -1.
         22    1    3    3    0    0  0.13425872246E+03 -0.27828763689E+02  0.11541697854E+04  0.11622855665E+04  0.00000000000E+00 0. -1.
         22    1    3    3    0    0 -0.60783282857E+01  0.24249531493E+02  0.71652755318E+03  0.71696354184E+03  0.00000000000E+00 0. -1.
</event>
<event>
 7    1  0.6510186E-006  0.6674633E+02  0.7818608E-02  0.1410223E+00
          2   -1    0    0  502    0  0.00000000000E+00  0.00000000000E+00  0.81655054418E+02  0.81655054418E+02  0.00000000000E+00 0. -1.
          1   -1    0    0  501    0 -0.00000000000E+00 -0.00000000000E+00 -0.29961166162E+04  0.29961166162E+04  0.00000000000E+00 0. -1.
         25    2    1    2    0    0 -0.97183268042E+02  0.57667273241E+02 -0.32740628080E+03  0.36822510217E+03  0.12499900469E+03 0.  0.
          2    1    1    2  501    0  0.39430767414E+02 -0.28960021216E+02 -0.26310316549E+04  0.26314864691E+04  0.00000000000E+00 0. -1.
          1    1    1    2  502    0  0.57752500627E+02 -0.28707252025E+02  0.43976373881E+02  0.78060099329E+02  0.00000000000E+00 0. -1.
         22    1    3    3    0    0 -0.86472529060E+02 -0.16578597415E+02 -0.12966600132E+03  0.15673423389E+03  0.00000000000E+00 0. -1.
         22    1    3    3    0    0 -0.10710738981E+02  0.74245870656E+02 -0.19774027948E+03  0.21149086829E+03  0.00000000000E+00 0. -1.
</event>
<event>
 7    1  0.6510186E-006  0.4869484E+02  0.7818608E-02  0.1484298E+00
          2   -1    0    0  502    0  0.00000000000E+00  0.00000000000E+00  0.64602767682E+03  0.64602767682E+03  0.00000000000E+00 0. -1.
          1   -1    0    0  501    0 -0.00000000000E+00 -0.00000000000E+00 -0.12459030999E+04  0.12459030999E+04  0.00000000000E+00 0. -1.
         25    2    1    2    0    0  0.59513495508E+01 -0.78144455389E+02  0.49075982322E+03  0.51245684449E+03  0.12499935563E+03 0.  0.
          2    1    1    2  501    0  0.15772663381E+02  0.46046013732E+02 -0.12319648688E+04  0.12329259711E+04  0.00000000000E+00 0. -1.
          1    1    1    2  502    0 -0.21724012932E+02  0.32098441657E+02  0.14132962253E+03  0.14654796109E+03  0.00000000000E+00 0. -1.
         22    1    3    3    0    0  0.19539307539E+02 -0.18700243575E+02  0.41182626059E+03  0.41271340245E+03  0.00000000000E+00 0.  1.
         22    1    3    3    0    0 -0.13587957989E+02 -0.59444211814E+02  0.78933562622E+02  0.99743442034E+02  0.00000000000E+00 0.  1.
</event>
<event>
 7    1  0.6510186E-006  0.6039888E+02  0.7818608E-02  0.1467047E+00
          2   -1    0    0  502    0  0.00000000000E+00  0.00000000000E+00  0.51794079424E+03  0.51794079424E+03  0.00000000000E+00 0. -1.
          1   -1    0    0  501    0 -0.00000000000E+00 -0.00000000000E+00 -0.52406385435E+03  0.52406385435E+03  0.00000000000E+00 0. -1.
         25    2    1    2    0    0  0.25139943637E+02 -0.46045844946E+02  0.85584935518E+02  0.16031984759E+03  0.12500174295E+03 0.  0.
          2    1    1    2  501    0  0.29947708608E+02  0.18732079516E+02 -0.48365547363E+03  0.48494368046E+03  0.00000000000E+00 0. -1.
          1    1    1    2  502    0 -0.55087652245E+02  0.27313765431E+02  0.39194747801E+03  0.39674112054E+03  0.00000000000E+00 0. -1.
         22    1    3    3    0    0 -0.26947035631E+01  0.41673670467E+02  0.39135459390E+02  0.57232337180E+02  0.00000000000E+00 0.  1.
         22    1    3    3    0    0  0.27834647200E+02 -0.87719515413E+02  0.46449476128E+02  0.10308751041E+03  0.00000000000E+00 0.  1.
</event>
<event>
 7    1  0.6510186E-006  0.5299834E+02  0.7818608E-02  0.1467737E+00
          2   -1    0    0  502    0  0.00000000000E+00  0.00000000000E+00  0.10540809019E+04  0.10540809019E+04  0.00000000000E+00 0. -1.
          1   -1    0    0  501    0 -0.00000000000E+00 -0.00000000000E+00 -0.55922451046E+02  0.55922451046E+02  0.00000000000E+00 0. -1.
         25    2    1    2    0    0 -0.25288757455E+02 -0.57063611490E+02  0.39054818845E+03  0.41478802951E+03  0.12500177963E+03 0.  0.
          2    1    1    2  501    0 -0.14337078058E+02  0.51203218639E+02 -0.26797998391E+02  0.59543716075E+02  0.00000000000E+00 0. -1.
          1    1    1    2  502    0  0.39625835513E+02  0.58603928513E+01  0.63440826079E+03  0.63567160736E+03  0.00000000000E+00 0. -1.
         22    1    3    3    0    0 -0.45707816832E+02 -0.89452583143E+02  0.30347082376E+03  0.31966468373E+03  0.00000000000E+00 0.  1.
         22    1    3    3    0    0  0.20419059377E+02  0.32388971653E+02  0.87077364693E+02  0.95123345780E+02  0.00000000000E+00 0.  1.
</event>
<event>
 7    1  0.6510186E-006  0.3898588E+02  0.7818608E-02  0.1544263E+00
          2   -1    0    0  502    0  0.00000000000E+00  0.00000000000E+00  0.12564209394E+04  0.12564209394E+04  0.00000000000E+00 0. -1.
          1   -1    0    0  501    0 -0.00000000000E+00 -0.00000000000E+00 -0.31310357854E+03  0.31310357854E+03  0.00000000000E+00 0. -1.
         25    2    1    2    0    0  0.13577866729E+02  0.44616289484E+02  0.28446722506E+03  0.31419988861E+03  0.12499998447E+03 0.  0.
          2    1    1    2  501    0 -0.33822848840E+02 -0.19430756272E+02 -0.29668752273E+03  0.29924074846E+03  0.00000000000E+00 0. -1.
          1    1    1    2  502    0  0.20244982112E+02 -0.25185533212E+02  0.95553765850E+03  0.95608388083E+03  0.00000000000E+00 0. -1.
         22    1    3    3    0    0 -0.35541864057E+02  0.69458924323E+02  0.17783496997E+03  0.19419846243E+03  0.00000000000E+00 0. -1.
         22    1    3    3    0    0  0.49119730785E+02 -0.24842634839E+02  0.10663225509E+03  0.12000142618E+03  0.00000000000E+00 0. -1.
</event>
<event>
 7    1  0.6510186E-006  0.1323944E+03  0.7818608E-02  0.1357490E+00
          2   -1    0    0  502    0  0.00000000000E+00  0.00000000000E+00  0.24422584495E+04  0.24422584495E+04  0.00000000000E+00 0. -1.
          1   -1    0    0  501    0 -0.00000000000E+00 -0.00000000000E+00 -0.20892763498E+02  0.20892763498E+02  0.00000000000E+00 0. -1.
         25    2    1    2    0    0 -0.14967438957E+03 -0.46329344083E+02  0.80218054464E+03  0.82684035094E+03  0.12499003452E+03 0.  0.
          2    1    1    2  501    0  0.11595194354E+03  0.29184598521E+02  0.42425810006E+03  0.44078512846E+03  0.00000000000E+00 0. -1.
          1    1    1    2  502    0  0.33722446035E+02  0.17144745562E+02  0.11949270413E+04  0.11955257336E+04  0.00000000000E+00 0. -1.
         22    1    3    3    0    0 -0.16065093933E+03 -0.65107441120E+02  0.63439757536E+03  0.65765339414E+03  0.00000000000E+00 0.  1.
         22    1    3    3    0    0  0.10976549756E+02  0.18778097037E+02  0.16778296928E+03  0.16918695680E+03  0.00000000000E+00 0.  1.
</event>
<event>
 7    1  0.6510186E-006  0.8083232E+02  0.7818608E-02  0.1385572E+00
          2   -1    0    0  502    0  0.00000000000E+00  0.00000000000E+00  0.88342718700E+03  0.88342718700E+03  0.00000000000E+00 0. -1.
          1   -1    0    0  501    0 -0.00000000000E+00 -0.00000000000E+00 -0.23617433072E+03  0.23617433072E+03  0.00000000000E+00 0. -1.
         25    2    1    2    0    0  0.99615413701E+02  0.81931265392E+02  0.37142259188E+03  0.41257247595E+03  0.12500137301E+03 0.  0.
          2    1    1    2  501    0 -0.60364856926E+02 -0.52373676481E+02 -0.20690321548E+03  0.22180139431E+03  0.00000000000E+00 0. -1.
          1    1    1    2  502    0 -0.39250556774E+02 -0.29557588911E+02  0.48273347988E+03  0.48522764747E+03  0.00000000000E+00 0. -1.
         22    1    3    3    0    0  0.63493472707E+02  0.10236288714E+03  0.17920483319E+03  0.21592580665E+03  0.00000000000E+00 0.  1.
         22    1    3    3    0    0  0.36121940993E+02 -0.20431621748E+02  0.19221775869E+03  0.19664666929E+03  0.00000000000E+00 0.  1.
</event>
<event>
 7    1  0.6510186E-006  0.2091941E+03  0.7818608E-02  0.1313774E+00
          2   -1    0    0  502    0  0.00000000000E+00  0.00000000000E+00  0.72921489014E+03  0.72921489014E+03  0.00000000000E+00 0. -1.
          1   -1    0    0  501    0 -0.00000000000E+00 -0.00000000000E+00 -0.10673392822E+04  0.10673392822E+04  0.00000000000E+00 0. -1.
         25    2    1    2    0    0  0.18563479676E+03  0.15427077010E+03  0.23574463191E+03  0.35980533154E+03  0.12499838740E+03 0.  0.
          2    1    1    2  501    0 -0.16625888182E+03 -0.12505462320E+03 -0.99380768889E+03  0.10153493965E+04  0.00000000000E+00 0. -1.
          1    1    1    2  502    0 -0.19375914946E+02 -0.29216146892E+02  0.41993866493E+03  0.42139944426E+03  0.00000000000E+00 0. -1.
         22    1    3    3    0    0  0.68736558776E+02  0.11659053590E+03  0.66793433497E+02  0.15092856036E+03  0.00000000000E+00 0.  1.
         22    1    3    3    0    0  0.11689823799E+03  0.37680234200E+02  0.16895119841E+03  0.20887677118E+03  0.00000000000E+00 0.  1.
</event>
<event>
 7    1  0.7192563E-006  0.9211789E+02  0.7818608E-02  0.1385015E+00
          2   -1    0    0  502    0  0.00000000000E+00  0.00000000000E+00  0.18089599096E+04  0.18089599096E+04  0.00000000000E+00 0. -1.
          1   -1    0    0  501    0 -0.00000000000E+00 -0.00000000000E+00 -0.31279104225E+04  0.31279104225E+04  0.00000000000E+00 0. -1.
         25    2    1    2    0    0  0.16579243639E+02  0.63150913224E+02 -0.99794419242E+03  0.10078595781E+04  0.12500163568E+03 0.  0.
          2    1    1    2  501    0  0.80214782154E+01 -0.98796326810E+02 -0.21235923959E+04  0.21259044480E+04  0.00000000000E+00 0. -1.
          1    1    1    2  502    0 -0.24600721854E+02  0.35645413586E+02  0.18025860754E+04  0.18031063059E+04  0.00000000000E+00 0. -1.
         22    1    3    3    0    0 -0.14961193944E+01 -0.29708952442E+02 -0.50772129379E+03  0.50859195078E+03  0.00000000000E+00 0. -1.
         22    1    3    3    0    0  0.18075363033E+02  0.92859865666E+02 -0.49022289863E+03  0.49926762737E+03  0.00000000000E+00 0. -1.
</event>
<event>
 7    1  0.6510186E-006  0.4970852E+02  0.7818608E-02  0.1530704E+00
          2   -1    0    0  502    0  0.00000000000E+00  0.00000000000E+00  0.76657004933E+03  0.76657004933E+03  0.00000000000E+00 0. -1.
          1   -1    0    0  501    0 -0.00000000000E+00 -0.00000000000E+00 -0.99291984410E+02  0.99291984410E+02  0.00000000000E+00 0. -1.
         25    2    1    2    0    0  0.14695759714E+02 -0.23693075224E+02  0.90607292718E+02  0.15687208104E+03  0.12498736395E+03 0.  0.
          2    1    1    2  501    0  0.27381595154E+02 -0.41200878488E+01 -0.62224184214E+02  0.68107091981E+02  0.00000000000E+00 0. -1.
          1    1    1    2  502    0 -0.42077354868E+02  0.27813163073E+02  0.63889495642E+03  0.64088286072E+03  0.00000000000E+00 0. -1.
         22    1    3    3    0    0 -0.85834759789E+01 -0.34298703381E+02  0.11573428835E+03  0.12101447274E+03  0.00000000000E+00 0. -1.
         22    1    3    3    0    0  0.23279235693E+02  0.10605628157E+02 -0.25126995632E+02  0.35857608293E+02  0.00000000000E+00 0. -1.
</event>
<event>
 7    1  0.6510186E-006  0.8728859E+02  0.7818608E-02  0.1342475E+00
          2   -1    0    0  502    0  0.00000000000E+00  0.00000000000E+00  0.11424594168E+04  0.11424594168E+04  0.00000000000E+00 0. -1.
          1   -1    0    0  501    0 -0.00000000000E+00 -0.00000000000E+00 -0.72943268605E+03  0.72943268605E+03  0.00000000000E+00 0. -1.
         25    2    1    2    0    0  0.21870163049E+02 -0.83779249589E+02 -0.45902600550E+03  0.48355708017E+03  0.12500123742E+03 0.  0.
          2    1    1    2  501    0 -0.64770296669E+02  0.76572438054E+01 -0.25229915817E+03  0.26059295832E+03  0.00000000000E+00 0. -1.
          1    1    1    2  502    0  0.42900133620E+02  0.76122005783E+02  0.11243518945E+04  0.11277420644E+04  0.00000000000E+00 0. -1.
         22    1    3    3    0    0  0.60733763272E+02 -0.47118552309E+02 -0.13667113323E+03  0.15680480423E+03  0.00000000000E+00 0. -1.
         22    1    3    3    0    0 -0.38863600223E+02 -0.36660697279E+02 -0.32235487228E+03  0.32675227593E+03  0.00000000000E+00 0. -1.
</event>
<event>
 7    1  0.6510186E-006  0.4957666E+02  0.7818608E-02  0.1536714E+00
          2   -1    0    0  502    0  0.00000000000E+00  0.00000000000E+00  0.18700706992E+03  0.18700706992E+03  0.00000000000E+00 0. -1.
          1   -1    0    0  501    0 -0.00000000000E+00 -0.00000000000E+00 -0.29655477779E+03  0.29655477779E+03  0.00000000000E+00 0. -1.
         25    2    1    2    0    0 -0.66976899993E+02 -0.45692884168E+01 -0.68370385337E+01  0.14204986729E+03  0.12499854468E+03 0.  0.
          2    1    1    2  501    0  0.47173742848E+02 -0.13324070295E+02 -0.21786170918E+03  0.22330834555E+03  0.00000000000E+00 0. -1.
          1    1    1    2  502    0  0.19803157145E+02  0.17893358712E+02  0.11515103985E+03  0.11820363487E+03  0.00000000000E+00 0. -1.
         22    1    3    3    0    0 -0.27737990465E+02 -0.59075226162E+02  0.22123404113E+02  0.68910982221E+02  0.00000000000E+00 0. -1.
         22    1    3    3    0    0 -0.39238909528E+02  0.54505937745E+02 -0.28960442647E+02  0.73138885066E+02  0.00000000000E+00 0. -1.
</event>
<event>
 7    1  0.6510186E-006  0.1070148E+03  0.7818608E-02  0.1358219E+00
          2   -1    0    0  502    0  0.00000000000E+00  0.00000000000E+00  0.32884239692E+03  0.32884239692E+03  0.00000000000E+00 0. -1.
          1   -1    0    0  501    0 -0.00000000000E+00 -0.00000000000E+00 -0.14476323398E+04  0.14476323398E+04  0.00000000000E+00 0. -1.
         25    2    1    2    0    0 -0.10223154061E+02  0.13606501238E+03 -0.29287767639E+03  0.34644143509E+03  0.12500453650E+03 0.  0.
          2    1    1    2  501    0  0.37008010960E+02 -0.98034983389E+02 -0.11237298512E+04  0.11286049926E+04  0.00000000000E+00 0. -1.
          1    1    1    2  502    0 -0.26784856898E+02 -0.38030028992E+02  0.29781758476E+03  0.30142830898E+03  0.00000000000E+00 0. -1.
         22    1    3    3    0    0  0.22023818528E+00 -0.22037426134E+02 -0.15313653662E+02  0.26836628774E+02  0.00000000000E+00 0. -1.
         22    1    3    3    0    0 -0.10443392246E+02  0.15810243851E+03 -0.27756402273E+03  0.31960480631E+03  0.00000000000E+00 0. -1.
</event>
<event>
 7    1  0.6510186E-006  0.1319286E+03  0.7818608E-02  0.1295636E+00
          2   -1    0    0  502    0  0.00000000000E+00  0.00000000000E+00  0.12472653719E+04  0.12472653719E+04  0.00000000000E+00 0. -1.
          1   -1    0    0  501    0 -0.00000000000E+00 -0.00000000000E+00 -0.13975398886E+03  0.13975398886E+03  0.00000000000E+00 0. -1.
         25    2    1    2    0    0 -0.15682275810E+03 -0.95913588977E+02  0.25556806194E+03  0.33872247527E+03  0.12500034782E+03 0.  0.
          2    1    1    2  501    0  0.11751788736E+03  0.43361373206E+02 -0.56550553367E+02  0.13743590369E+03  0.00000000000E+00 0. -1.
          1    1    1    2  502    0  0.39304870742E+02  0.52552215771E+02  0.90849387445E+03  0.91086098179E+03  0.00000000000E+00 0. -1.
         22    1    3    3    0    0 -0.60539641096E+02 -0.10836794080E+03  0.12667094837E+03  0.17735328556E+03  0.00000000000E+00 0.  1.
         22    1    3    3    0    0 -0.96283117008E+02  0.12454351821E+02  0.12889711357E+03  0.16136918971E+03  0.00000000000E+00 0.  1.
</event>
<event>
 7    1  0.6510186E-006  0.1005304E+03  0.7818608E-02  0.1335899E+00
          2   -1    0    0  502    0  0.00000000000E+00  0.00000000000E+00  0.27711163587E+03  0.27711163587E+03  0.00000000000E+00 0. -1.
          1   -1    0    0  501    0 -0.00000000000E+00 -0.00000000000E+00 -0.12399520381E+04  0.12399520381E+04  0.00000000000E+00 0. -1.
         25    2    1    2    0    0 -0.36576065705E+02 -0.57320829053E+02 -0.16664176384E+02  0.14327068638E+03  0.12500123510E+03 0.  0.
          2    1    1    2  501    0 -0.33472603607E+01  0.10204963507E+03 -0.11534816866E+04  0.11579919401E+04  0.00000000000E+00 0. -1.
          1    1    1    2  502    0  0.39923326065E+02 -0.44728806015E+02  0.20730546070E+03  0.21580104747E+03  0.00000000000E+00 0. -1.
         22    1    3    3    0    0 -0.39221925325E+02  0.32554820151E+02  0.36055974031E+01  0.51099668040E+02  0.00000000000E+00 0. -1.
         22    1    3    3    0    0  0.26458596201E+01 -0.89875649204E+02 -0.20269773787E+02  0.92171018343E+02  0.00000000000E+00 0. -1.
</event>
<event>
 7    1  0.6510186E-006  0.9313456E+02  0.7818608E-02  0.1358565E+00
          2   -1    0    0  502    0  0.00000000000E+00  0.00000000000E+00  0.40187847707E+03  0.40187847707E+03  0.00000000000E+00 0. -1.
          1   -1    0    0  501    0 -0.00000000000E+00 -0.00000000000E+00 -0.56603256308E+03  0.56603256308E+03  0.00000000000E+00 0. -1.
         25    2    1    2    0    0 -0.67019647652E+02  0.18616587600E+02 -0.70021011952E+01  0.14322093295E+03  0.12499998284E+03 0.  0.
          2    1    1    2  501    0 -0.24965404004E+02 -0.47083251204E+02 -0.48247860166E+03  0.48541292216E+03  0.00000000000E+00 0. -1.
          1    1    1    2  502    0  0.91985051657E+02  0.28466663604E+02  0.32532661683E+03  0.33927718504E+03  0.00000000000E+00 0. -1.
         22    1    3    3    0    0  0.29782959678E+02 -0.22291420388E+01  0.25218293331E+02  0.39089078781E+02  0.00000000000E+00 0.  1.
         22    1    3    3    0    0 -0.96802607331E+02  0.20845729639E+02 -0.32220394526E+02  0.10413185417E+03  0.00000000000E+00 0.  1.
</event>
<event>
 7    1  0.6510186E-006  0.1294346E+03  0.7818608E-02  0.1342655E+00
          2   -1    0    0  502    0  0.00000000000E+00  0.00000000000E+00  0.13955160018E+04  0.13955160018E+04  0.00000000000E+00 0. -1.
          1   -1    0    0  501    0 -0.00000000000E+00 -0.00000000000E+00 -0.26284045076E+03  0.26284045076E+03  0.00000000000E+00 0. -1.
         25    2    1    2    0    0  0.17473537333E+02 -0.86832291756E+02  0.79579610669E+02  0.17263581929E+03  0.12500016108E+03 0.  0.
          2    1    1    2  501    0  0.99687463593E+01 -0.42769895819E+02 -0.21058461264E+03  0.21511512958E+03  0.00000000000E+00 0. -1.
          1    1    1    2  502    0 -0.27442283692E+02  0.12960218757E+03  0.12636805530E+04  0.12706055037E+04  0.00000000000E+00 0. -1.
         22    1    3    3    0    0  0.11095065273E+02 -0.11945001233E+03  0.62203489072E+02  0.13513208343E+03  0.00000000000E+00 0.  1.
         22    1    3    3    0    0  0.63784720601E+01  0.32617720579E+02  0.17376121597E+02  0.37503735858E+02  0.00000000000E+00 0.  1.
</event>
<event>
 7    1  0.6510186E-006  0.1356357E+03  0.7818608E-02  0.1220825E+00
          2   -1    0    0  502    0  0.00000000000E+00  0.00000000000E+00  0.90833683053E+02  0.90833683053E+02  0.00000000000E+00 0. -1.
          1   -1    0    0  501    0 -0.00000000000E+00 -0.00000000000E+00 -0.20402797682E+04  0.20402797682E+04  0.00000000000E+00 0. -1.
         25    2    1    2    0    0  0.72775493135E+00  0.16721250935E+03 -0.60980596653E+03  0.64455322161E+03  0.12499994303E+03 0.  0.
          2    1    1    2  501    0 -0.10743386670E+03 -0.82794923251E+02 -0.13436127587E+04  0.13504415131E+04  0.00000000000E+00 0. -1.
          1    1    1    2  502    0  0.10670611176E+03 -0.84417586104E+02  0.39726400346E+01  0.13611871657E+03  0.00000000000E+00 0. -1.
         22    1    3    3    0    0  0.39131047219E+02  0.55521710666E+02 -0.38156386784E+03  0.38756274905E+03  0.00000000000E+00 0.  1.
         22    1    3    3    0    0 -0.38403292287E+02  0.11169079869E+03 -0.22824209869E+03  0.25699047255E+03  0.00000000000E+00 0.  1.
</event>
<event>
 7    1  0.6510186E-006  0.6545041E+02  0.7818608E-02  0.1491169E+00
          2   -1    0    0  502    0  0.00000000000E+00  0.00000000000E+00  0.97919781549E+03  0.97919781549E+03  0.00000000000E+00 0. -1.
          1   -1    0    0  501    0 -0.00000000000E+00 -0.00000000000E+00 -0.38639274371E+02  0.38639274371E+02  0.00000000000E+00 0. -1.
         25    2    1    2    0    0 -0.86802341490E+02 -0.48171124882E+01  0.35176406596E+03  0.38330170691E+03  0.12499755740E+03 0.  0.
          2    1    1    2  501    0  0.25371445265E+02 -0.10568339566E+02 -0.12302030577E+02  0.30112123677E+02  0.00000000000E+00 0. -1.
          1    1    1    2  502    0  0.61430896225E+02  0.15385452054E+02  0.60109650573E+03  0.60442325927E+03  0.00000000000E+00 0. -1.
         22    1    3    3    0    0 -0.31329147184E+02 -0.37850265651E+02  0.35760112941E+02  0.60769595610E+02  0.00000000000E+00 0.  1.
         22    1    3    3    0    0 -0.55473194307E+02  0.33033153163E+02  0.31600395302E+03  0.32253211130E+03  0.00000000000E+00 0.  1.
</event>
<event>
 7    1  0.6510186E-006  0.4833874E+02  0.7818608E-02  0.1456156E+00
          2   -1    0    0  502    0  0.00000000000E+00  0.00000000000E+00  0.40009641831E+03  0.40009641831E+03  0.00000000000E+00 0. -1.
          1   -1    0    0  501    0 -0.00000000000E+00 -0.00000000000E+00 -0.80289003280E+02  0.80289003280E+02  0.00000000000E+00 0. -1.
         25    2    1    2    0    0 -0.37162575275E+02 -0.13420241894E+02  0.11000194958E+03  0.17114197669E+03  0.12501194896E+03 0.  0.
          2    1    1    2  501    0 -0.29308108334E+00  0.47760935043E+02 -0.35004127968E+02  0.59215553594E+02  0.00000000000E+00 0. -1.
          1    1    1    2  502    0  0.37455656358E+02 -0.34340693149E+02  0.24480959342E+03  0.25002789131E+03  0.00000000000E+00 0. -1.
         22    1    3    3    0    0 -0.49174641021E+02 -0.24642055392E+02 -0.47597231174E+01  0.55208977329E+02  0.00000000000E+00 0.  1.
         22    1    3    3    0    0  0.12012065747E+02  0.11221813498E+02  0.11476167269E+03  0.11593299936E+03  0.00000000000E+00 0.  1.
</event>
<event>
 7    1  0.6510186E-006  0.6898623E+02  0.7818608E-02  0.1415017E+00
          2   -1    0    0  502    0  0.00000000000E+00  0.00000000000E+00  0.10418684230E+04  0.10418684230E+04  0.00000000000E+00 0. -1.
          1   -1    0    0  501    0 -0.00000000000E+00 -0.00000000000E+00 -0.59355547173E+03  0.59355547173E+03  0.00000000000E+00 0. -1.
         25    2    1    2    0    0 -0.94426105341E+02 -0.48175471856E+02  0.14124379376E+02  0.16450064646E+03  0.12499519645E+03 0.  0.
          2    1    1    2  501    0  0.45602765469E+02  0.18793012325E+00 -0.51613068469E+03  0.51814142009E+03  0.00000000000E+00 0. -1.
          1    1    1    2  502    0  0.48823339873E+02  0.47987541733E+02  0.95031925661E+03  0.95278182821E+03  0.00000000000E+00 0. -1.
         22    1    3    3    0    0  0.20455726251E+02 -0.33605418370E+02 -0.19509149328E+02  0.43913184669E+02  0.00000000000E+00 0. -1.
         22    1    3    3    0    0 -0.11488183159E+03 -0.14570053487E+02  0.33633528704E+02  0.12058746179E+03  0.00000000000E+00 0. -1.
</event>
<event>
 7    1  0.6510186E-006  0.5649295E+02  0.7818608E-02  0.1494474E+00
          2   -1    0    0  502    0  0.00000000000E+00  0.00000000000E+00  0.80571797617E+01  0.80571797617E+01  0.00000000000E+00 0. -1.
          1   -1    0    0  501    0 -0.00000000000E+00 -0.00000000000E+00 -0.36668890453E+04  0.36668890453E+04  0.00000000000E+00 0. -1.
         25    2    1    2    0    0  0.50870074530E+02  0.39983505219E+02 -0.89134156195E+03  0.90238626180E+03  0.12499896103E+03 0.  0.
          2    1    1    2  501    0 -0.22136281769E+02 -0.51935547196E+02 -0.26614168770E+04  0.26620156103E+04  0.00000000000E+00 0. -1.
          1    1    1    2  502    0 -0.28733792760E+02  0.11952041977E+02 -0.10607342655E+03  0.11054435297E+03  0.00000000000E+00 0. -1.
         22    1    3    3    0    0  0.61975787979E+02  0.62751388897E+02 -0.84485054625E+03  0.84944168758E+03  0.00000000000E+00 0.  1.
         22    1    3    3    0    0 -0.11105713449E+02 -0.22767883679E+02 -0.46491015696E+02  0.52944574215E+02  0.00000000000E+00 0.  1.
</event>
<event>
 7    1  0.6510186E-006  0.1624878E+03  0.7818608E-02  0.1355535E+00
          2   -1    0    0  502    0  0.00000000000E+00  0.00000000000E+00  0.37521573338E+02  0.37521573338E+02  0.00000000000E+00 0. -1.
          1   -1    0    0  501    0 -0.00000000000E+00 -0.00000000000E+00 -0.24639284039E+04  0.24639284039E+04  0.00000000000E+00 0. -1.
         25    2    1    2    0    0 -0.35753685352E+02 -0.14735977408E+03 -0.30075171123E+03  0.35926271721E+03  0.12499951654E+03 0.  0.
          2    1    1    2  501    0  0.90065847713E+01  0.16368891397E+03 -0.20820251351E+04  0.20884692582E+04  0.00000000000E+00 0. -1.
          1    1    1    2  502    0  0.26747100580E+02 -0.16329139886E+02 -0.43629984201E+02  0.53718001826E+02  0.00000000000E+00 0. -1.
         22    1    3    3    0    0  0.43260823175E+02 -0.54775270913E+02 -0.72829692639E+02  0.10087612827E+03  0.00000000000E+00 0. -1.
         22    1    3    3    0    0 -0.79014508526E+02 -0.92584503172E+02 -0.22792201859E+03  0.25838658894E+03  0.00000000000E+00 0. -1.
</event>
<event>
 7    1  0.6510186E-006  0.4856980E+02  0.7818608E-02  0.1554209E+00
          2   -1    0    0  502    0  0.00000000000E+00  0.00000000000E+00  0.14550457744E+04  0.14550457744E+04  0.00000000000E+00 0. -1.
          1   -1    0    0  501    0 -0.00000000000E+00 -0.00000000000E+00 -0.94367431376E+03  0.94367431376E+03  0.00000000000E+00 0. -1.
         25    2    1    2    0    0 -0.11345774956E+02  0.31804380922E+02  0.11867443608E+03  0.17563731054E+03  0.12499839127E+03 0.  0.
          2    1    1    2  501    0 -0.24274874066E+02  0.16480985794E+01 -0.91457458757E+03  0.91489817027E+03  0.00000000000E+00 0. -1.
          1    1    1    2  502    0  0.35620649023E+02 -0.33452479502E+02  0.13072716121E+04  0.13081846073E+04  0.00000000000E+00 0. -1.
         22    1    3    3    0    0 -0.12676146552E+02  0.79668754172E+02  0.84394655630E+02  0.11674867443E+03  0.00000000000E+00 0.  1.
         22    1    3    3    0    0  0.13303715956E+01 -0.47864373250E+02  0.34279780450E+02  0.58888636110E+02  0.00000000000E+00 0.  1.
</event>
<event>
 7    1  0.6510186E-006  0.1600404E+03  0.7818608E-02  0.1412334E+00
          2   -1    0    0  502    0  0.00000000000E+00  0.00000000000E+00  0.17314518175E+04  0.17314518175E+04  0.00000000000E+00 0. -1.
          1   -1    0    0  501    0 -0.00000000000E+00 -0.00000000000E+00 -0.79897678537E+02  0.79897678537E+02  0.00000000000E+00 0. -1.
         25    2    1    2    0    0  0.11952207876E+03 -0.11508365345E+03  0.12639079264E+04  0.12808662073E+04  0.12500087989E+03 0.  0.
          2    1    1    2  501    0 -0.12721436434E+03  0.96545029863E+02  0.18474221812E+02  0.16076608522E+03  0.00000000000E+00 0. -1.
          1    1    1    2  502    0  0.76922855885E+01  0.18538623582E+02  0.36917199067E+03  0.36971720344E+03  0.00000000000E+00 0. -1.
         22    1    3    3    0    0  0.25392140080E+02 -0.76582779337E+02  0.88086673249E+03  0.88455405900E+03  0.00000000000E+00 0.  1.
         22    1    3    3    0    0  0.94129938676E+02 -0.38500874109E+02  0.38304119396E+03  0.39631214835E+03  0.00000000000E+00 0.  1.
</event>
<event>
 7    1  0.6510186E-006  0.1838418E+03  0.7818608E-02  0.1166234E+00
          2   -1    0    0  502    0  0.00000000000E+00  0.00000000000E+00  0.10231467866E+04  0.10231467866E+04  0.00000000000E+00 0. -1.
          1   -1    0    0  501    0 -0.00000000000E+00 -0.00000000000E+00 -0.60496381150E+03  0.60496381150E+03  0.00000000000E+00 0. -1.
         25    2    1    2    0    0  0.27580575567E+03 -0.71828452108E+02 -0.75825496758E+00  0.31121107480E+03  0.12499446682E+03 0.  0.
          2    1    1    2  501    0 -0.10919043941E+03  0.14240322561E+03 -0.42102129445E+03  0.45766817794E+03  0.00000000000E+00 0. -1.
          1    1    1    2  502    0 -0.16661531626E+03 -0.70574773502E+02  0.83996252456E+03  0.85923134541E+03  0.00000000000E+00 0. -1.
         22    1    3    3    0    0  0.60184100397E+02 -0.71453326187E+02  0.16623474018E+02  0.94889639330E+02  0.00000000000E+00 0. -1.
         22    1    3    3    0    0  0.21562165527E+03 -0.37512592119E+00 -0.17381728985E+02  0.21632143547E+03  0.00000000000E+00 0. -1.
</event>
<event>
 7    1  0.6510186E-006  0.3562317E+02  0.7818608E-02  0.1586933E+00
          2   -1    0    0  502    0  0.00000000000E+00  0.00000000000E+00  0.65455715315E+02  0.65455715315E+02  0.00000000000E+00 0. -1.
          1   -1    0    0  501    0 -0.00000000000E+00 -0.00000000000E+00 -0.13844274363E+04  0.13844274363E+04  0.00000000000E+00 0. -1.
         25    2    1    2    0    0  0.45623863448E+02  0.28270399851E+02 -0.19360157130E+03  0.23661673663E+03  0.12500063687E+03 0.  0.
          2    1    1    2  501    0 -0.18654343406E+02 -0.30163869760E+02 -0.11648647265E+04  0.11654045111E+04  0.00000000000E+00 0. -1.
          1    1    1    2  502    0 -0.26969520042E+02  0.18934699093E+01  0.39494576826E+02  0.47861903830E+02  0.00000000000E+00 0. -1.
         22    1    3    3    0    0  0.97657884235E+01 -0.44530922944E+02 -0.31738591389E+02  0.55549184559E+02  0.00000000000E+00 0. -1.
         22    1    3    3    0    0  0.35858075025E+02  0.72801322795E+02 -0.16186297991E+03  0.18106755207E+03  0.00000000000E+00 0. -1.
</event>
<event>
 7    1  0.6510186E-006  0.7034425E+02  0.7818608E-02  0.1387635E+00
          2   -1    0    0  502    0  0.00000000000E+00  0.00000000000E+00  0.92778406171E+03  0.92778406171E+03  0.00000000000E+00 0. -1.
          1   -1    0    0  501    0 -0.00000000000E+00 -0.00000000000E+00 -0.89159447316E+02  0.89159447316E+02  0.00000000000E+00 0. -1.
         25    2    1    2    0    0 -0.10054417836E+03  0.79277713059E+01  0.41267217109E+03  0.44282754412E+03  0.12500372669E+03 0.  0.
          2    1    1    2  501    0  0.40253553162E+02 -0.38249482315E+02 -0.61011995179E+02  0.82497484781E+02  0.00000000000E+00 0. -1.
          1    1    1    2  502    0  0.60290625199E+02  0.30321711009E+02  0.48696443849E+03  0.49161848012E+03  0.00000000000E+00 0. -1.
         22    1    3    3    0    0 -0.38451766798E+01 -0.44730151508E+02  0.17852533737E+03  0.18408386111E+03  0.00000000000E+00 0. -1.
         22    1    3    3    0    0 -0.96699001681E+02  0.52657922814E+02  0.23414683372E+03  0.25874368302E+03  0.00000000000E+00 0. -1.
</event>
<event>
 7    1  0.6510186E-006  0.8823530E+02  0.7818608E-02  0.1370579E+00
          2   -1    0    0  502    0  0.00000000000E+00  0.00000000000E+00  0.59042396941E+03  0.59042396941E+03  0.00000000000E+00 0. -1.
          1   -1    0    0  501    0 -0.00000000000E+00 -0.00000000000E+00 -0.17405142005E+04  0.17405142005E+04  0.00000000000E+00 0. -1.
         25    2    1    2    0    0 -0.70685527356E+02  0.11752708673E+03 -0.41307234790E+02  0.19010259174E+03  0.12499459127E+03 0.  0.
          2    1    1    2  501    0  0.37312864410E+02 -0.79113927025E+02 -0.16223738047E+04  0.16247301393E+04  0.00000000000E+00 0. -1.
          1    1    1    2  502    0  0.33372662946E+02 -0.38413159704E+02  0.51359080845E+03  0.51610543884E+03  0.00000000000E+00 0. -1.
         22    1    3    3    0    0 -0.47092972384E+02  0.72023788802E+01  0.30316191723E+02  0.56468520346E+02  0.00000000000E+00 0.  1.
         22    1    3    3    0    0 -0.23592554973E+02  0.11032470785E+03 -0.71623426513E+02  0.13363407139E+03  0.00000000000E+00 0.  1.
</event>
<event>
 7    1  0.6510186E-006  0.8598861E+02  0.7818608E-02  0.1397095E+00
          2   -1    0    0  502    0  0.00000000000E+00  0.00000000000E+00  0.72912341433E+03  0.72912341433E+03  0.00000000000E+00 0. -1.
          1   -1    0    0  501    0 -0.00000000000E+00 -0.00000000000E+00 -0.24063860510E+04  0.24063860510E+04  0.00000000000E+00 0. -1.
         25    2    1    2    0    0  0.33657672776E+02 -0.35019427531E+02  0.28344092160E+03  0.31356512530E+03  0.12500053011E+03 0.  0.
          2    1    1    2  501    0 -0.75201953352E+02  0.41909143443E+02 -0.23895173454E+04  0.23910677226E+04  0.00000000000E+00 0. -1.
          1    1    1    2  502    0  0.41544280577E+02 -0.68897159119E+01  0.42881378712E+03  0.43087661744E+03  0.00000000000E+00 0. -1.
         22    1    3    3    0    0 -0.14652406881E+02  0.22284192871E+02  0.76125200094E+01  0.27734973233E+02  0.00000000000E+00 0.  1.
         22    1    3    3    0    0  0.48310079657E+02 -0.57303620402E+02  0.27582840159E+03  0.28583015207E+03  0.00000000000E+00 0.  1.
</event>
<event>
 7    1  0.6510186E-006  0.1127439E+03  0.7818608E-02  0.1440718E+00
          2   -1    0    0  502    0  0.00000000000E+00  0.00000000000E+00  0.12500617358E+03  0.12500617358E+03  0.00000000000E+00 0. -1.
          1   -1    0    0  501    0 -0.00000000000E+00 -0.00000000000E+00 -0.10363327740E+04  0.10363327740E+04  0.00000000000E+00 0. -1.
         25    2    1    2    0    0 -0.12399345123E+03  0.41574104084E+02 -0.13694689470E+03  0.22689626289E+03  0.12499872026E+03 0.  0.
          2    1    1    2  501    0  0.22945739623E+02 -0.45479146134E+00 -0.81699768680E+03  0.81731997042E+03  0.00000000000E+00 0. -1.
          1    1    1    2  502    0  0.10104771161E+03 -0.41119312623E+02  0.42617981070E+02  0.11712271429E+03  0.00000000000E+00 0. -1.
         22    1    3    3    0    0 -0.10669580039E+03  0.51625538533E+02 -0.15822011876E+03  0.19769369244E+03  0.00000000000E+00 0.  1.
         22    1    3    3    0    0 -0.17297650837E+02 -0.10051434449E+02  0.21273224060E+02  0.29202570450E+02  0.00000000000E+00 0.  1.
</event>
<event>
 7    1  0.6510186E-006  0.1278775E+03  0.7818608E-02  0.1239640E+00
          2   -1    0    0  502    0  0.00000000000E+00  0.00000000000E+00  0.72064056914E+03  0.72064056914E+03  0.00000000000E+00 0. -1.
          1   -1    0    0  501    0 -0.00000000000E+00 -0.00000000000E+00 -0.32825873731E+03  0.32825873731E+03  0.00000000000E+00 0. -1.
         25    2    1    2    0    0 -0.43933502895E+02 -0.43093931370E+02  0.29454527875E+03  0.32583926664E+03  0.12500826714E+03 0.  0.
          2    1    1    2  501    0  0.12648349169E+03 -0.39283741493E+02 -0.28960187669E+03  0.31845020490E+03  0.00000000000E+00 0. -1.
          1    1    1    2  502    0 -0.82549988799E+02  0.82377672863E+02  0.38743842977E+03  0.40460983490E+03  0.00000000000E+00 0. -1.
         22    1    3    3    0    0  0.69180686311E+01 -0.77572637520E+02  0.16713390089E+03  0.18438848823E+03  0.00000000000E+00 0.  1.
         22    1    3    3    0    0 -0.50851571527E+02  0.34478706150E+02  0.12741137787E+03  0.14145077842E+03  0.00000000000E+00 0.  1.
</event>
<event>
 7    1  0.6510186E-006  0.1554394E+03  0.7818608E-02  0.1414222E+00
          2   -1    0    0  502    0  0.00000000000E+00  0.00000000000E+00  0.17181079475E+04  0.17181079475E+04  0.00000000000E+00 0. -1.
          1   -1    0    0  501    0 -0.00000000000E+00 -0.00000000000E+00 -0.14423516907E+04  0.14423516907E+04  0.00000000000E+00 0. -1.
         25    2    1    2    0    0  0.15589550489E+03 -0.10125890047E+02  0.33253340314E+03  0.38808455522E+03  0.12500086281E+03 0.  0.
          2    1    1    2  501    0 -0.33609252505E+01 -0.20085298573E+02 -0.14100503804E+04  0.14101974295E+04  0.00000000000E+00 0. -1.
          1    1    1    2  502    0 -0.15253457964E+03  0.30211188620E+02  0.13532732340E+04  0.13621776535E+04  0.00000000000E+00 0. -1.
         22    1    3    3    0    0  0.38268378149E+01  0.39643672976E+02  0.74179313401E+02  0.84195225704E+02  0.00000000000E+00 0.  1.
         22    1    3    3    0    0  0.15206866707E+03 -0.49769563024E+02  0.25835408974E+03  0.30388932952E+03  0.00000000000E+00 0.  1.
</event>
<event>
 7    1  0.6510186E-006  0.1092946E+03  0.7818608E-02  0.1264301E+00
          2   -1    0    0  502    0  0.00000000000E+00  0.00000000000E+00  0.13551907759E+03  0.13551907759E+03  0.00000000000E+00 0. -1.
          1   -1    0    0  501    0 -0.00000000000E+00 -0.00000000000E+00 -0.10880285446E+04  0.10880285446E+04  0.00000000000E+00 0. -1.
         25    2    1    2    0    0  0.14575312512E+01  0.95933065491E+02 -0.42529522839E+02  0.16321478445E+03  0.12500011240E+03 0.  0.
          2    1    1    2  501    0  0.10556891708E+03 -0.15762760538E+02 -0.92005925332E+03  0.92623014985E+03  0.00000000000E+00 0. -1.
          1    1    1    2  502    0 -0.10702644833E+03 -0.80170304953E+02  0.10079309097E+02  0.13410268793E+03  0.00000000000E+00 0. -1.
         22    1    3    3    0    0  0.40892586446E+02 -0.40178966624E+01 -0.37530097531E+02  0.55649396587E+02  0.00000000000E+00 0. -1.
         22    1    3    3    0    0 -0.39435055194E+02  0.99950962154E+02 -0.49994253078E+01  0.10756538787E+03  0.00000000000E+00 0. -1.
</event>
<event>
 7    1  0.6510186E-006  0.7459616E+02  0.7818608E-02  0.1412653E+00
          2   -1    0    0  502    0  0.00000000000E+00  0.00000000000E+00  0.52890546886E+02  0.52890546886E+02  0.00000000000E+00 0. -1.
          1   -1    0    0  501    0 -0.00000000000E+00 -0.00000000000E+00 -0.14842820246E+04  0.14842820246E+04  0.00000000000E+00 0. -1.
         25    2    1    2    0    0 -0.81887489543E+02  0.57392303293E+02 -0.42023606471E+03  0.44969445844E+03  0.12500927346E+03 0.  0.
          2    1    1    2  501    0  0.10511638709E+02 -0.41648521996E+02 -0.10134409085E+04  0.10143508115E+04  0.00000000000E+00 0. -1.
          1    1    1    2  502    0  0.71375850834E+02 -0.15743781297E+02  0.22854954810E+01  0.73127301478E+02  0.00000000000E+00 0. -1.
         22    1    3    3    0    0 -0.85559764204E+02  0.14275235084E+02 -0.38270782556E+03  0.39241500396E+03  0.00000000000E+00 0. -1.
         22    1    3    3    0    0  0.36722746616E+01  0.43117068210E+02 -0.37528239149E+02  0.57279454483E+02  0.00000000000E+00 0. -1.
</event>
<event>
 7    1  0.6510186E-006  0.6018495E+02  0.7818608E-02  0.1504162E+00
          2   -1    0    0  502    0  0.00000000000E+00  0.00000000000E+00  0.60859987285E+02  0.60859987285E+02  0.00000000000E+00 0. -1.
          1   -1    0    0  501    0 -0.00000000000E+00 -0.00000000000E+00 -0.52843430607E+03  0.52843430607E+03  0.00000000000E+00 0. -1.
         25    2    1    2    0    0 -0.67368833391E+02 -0.48088680388E+01 -0.10824984287E+03  0.17860534264E+03  0.12498061855E+03 0.  0.
          2    1    1    2  501    0  0.56522762726E+02 -0.20275150316E+02 -0.37459900825E+03  0.37938149851E+03  0.00000000000E+00 0. -1.
          1    1    1    2  502    0  0.10846070665E+02  0.25084018355E+02  0.15274532340E+02  0.31307452210E+02  0.00000000000E+00 0. -1.
         22    1    3    3    0    0 -0.79621081252E+02  0.26144395834E+02 -0.11725007750E+03  0.14412018140E+03  0.00000000000E+00 0. -1.
         22    1    3    3    0    0  0.12252247861E+02 -0.30953263872E+02  0.90002346294E+01  0.34485161235E+02  0.00000000000E+00 0. -1.
</event>
<event>
 7    1  0.6510186E-006  0.7635935E+02  0.7818608E-02  0.1457813E+00
          2   -1    0    0  502    0  0.00000000000E+00  0.00000000000E+00  0.10395701741E+04  0.10395701741E+04  0.00000000000E+00 0. -1.
          1   -1    0    0  501    0 -0.00000000000E+00 -0.00000000000E+00 -0.39193243230E+03  0.39193243230E+03  0.00000000000E+00 0. -1.
         25    2    1    2    0    0 -0.69383122365E+02 -0.60990119646E+02  0.23522012846E+02  0.15720102502E+03  0.12500025926E+03 0.  0.
          2    1    1    2  501    0  0.69077859084E+02  0.31119853247E+02 -0.32043932738E+03  0.32927429054E+03  0.00000000000E+00 0. -1.
          1    1    1    2  502    0  0.30526328051E+00  0.29870266399E+02  0.94455505632E+03  0.94502729083E+03  0.00000000000E+00 0. -1.
         22    1    3    3    0    0 -0.48017719752E+02 -0.40177720194E+02  0.75004935853E+02  0.97702052243E+02  0.00000000000E+00 0. -1.
         22    1    3    3    0    0 -0.21365402613E+02 -0.20812399452E+02 -0.51482923007E+02  0.59498972773E+02  0.00000000000E+00 0. -1.
</event>
<event>
 7    1  0.6510186E-006  0.1220283E+03  0.7818608E-02  0.1410107E+00
          2   -1    0    0  502    0  0.00000000000E+00  0.00000000000E+00  0.88143650655E+03  0.88143650655E+03  0.00000000000E+00 0. -1.
          1   -1    0    0  501    0 -0.00000000000E+00 -0.00000000000E+00 -0.10741640663E+03  0.10741640663E+03  0.00000000000E+00 0. -1.
         25    2    1    2    0    0 -0.32629472653E+02  0.13615817725E+03  0.17209339646E+03  0.25464569306E+03  0.12499824067E+03 0.  0.
          2    1    1    2  501    0 -0.10833653857E+02 -0.24495156030E+02 -0.57791068799E+02  0.63696062341E+02  0.00000000000E+00 0. -1.
          1    1    1    2  502    0  0.43463126510E+02 -0.11166302122E+03  0.65971777226E+03  0.67051115778E+03  0.00000000000E+00 0. -1.
         22    1    3    3    0    0 -0.52952244126E+02  0.23083925821E+02  0.14386482447E+02  0.59529645274E+02  0.00000000000E+00 0.  1.
         22    1    3    3    0    0  0.20322771472E+02  0.11307425143E+03  0.15770691401E+03  0.19511604779E+03  0.00000000000E+00 0.  1.
</event>
<event>
 7    1  0.6510186E-006  0.6621292E+02  0.7818608E-02  0.1425887E+00
          2   -1    0    0  502    0  0.00000000000E+00  0.00000000000E+00  0.46205352171E+03  0.46205352171E+03  0.00000000000E+00 0. -1.
          1   -1    0    0  501    0 -0.00000000000E+00 -0.00000000000E+00 -0.23006821307E+04  0.23006821307E+04  0.00000000000E+00 0. -1.
         25    2    1    2    0    0 -0.28568410595E+02 -0.17378134773E+02 -0.37551534078E+03  0.39718355022E+03  0.12499939099E+03 0.  0.
          2    1    1    2  501    0  0.30747305997E+02  0.61029107269E+02 -0.19126627185E+04  0.19138831269E+04  0.00000000000E+00 0. -1.
          1    1    1    2  502    0 -0.21788954020E+01 -0.43650972496E+02  0.44954945028E+03  0.45166897528E+03  0.00000000000E+00 0. -1.
         22    1    3    3    0    0  0.33858650062E+02  0.15998373074E+02 -0.42138406975E+02  0.56373765773E+02  0.00000000000E+00 0. -1.
         22    1    3    3    0    0 -0.62427060657E+02 -0.33376507847E+02 -0.33337693381E+03  0.34080978444E+03  0.00000000000E+00 0. -1.
</event>
<event>
 7    1  0.6510186E-006  0.3893579E+02  0.7818608E-02  0.1563966E+00
          2   -1    0    0  502    0  0.00000000000E+00  0.00000000000E+00  0.28731574581E+04  0.28731574581E+04  0.00000000000E+00 0. -1.
          1   -1    0    0  501    0 -0.00000000000E+00 -0.00000000000E+00 -0.58713366322E+03  0.58713366322E+03  0.00000000000E+00 0. -1.
         25    2    1    2    0    0 -0.10952755233E+02  0.13482587613E+01 -0.53537571721E+02  0.13641683578E+03  0.12498600262E+03 0.  0.
          2    1    1    2  501    0 -0.27547819580E+02 -0.74160853393E+01 -0.49160878555E+03  0.49243586254E+03  0.00000000000E+00 0. -1.
          1    1    1    2  502    0  0.38500574813E+02  0.60678265780E+01  0.28311701521E+04  0.28314384230E+04  0.00000000000E+00 0. -1.
         22    1    3    3    0    0 -0.14360031724E+02  0.54021634326E+02  0.67315687886E+01  0.56301523112E+02  0.00000000000E+00 0. -1.
         22    1    3    3    0    0  0.34072764914E+01 -0.52673375565E+02 -0.60269140510E+02  0.80115312671E+02  0.00000000000E+00 0. -1.
</event>
<event>
 7    1  0.6510186E-006  0.5763235E+02  0.7818608E-02  0.1529539E+00
          2   -1    0    0  502    0  0.00000000000E+00  0.00000000000E+00  0.11958177146E+03  0.11958177146E+03  0.00000000000E+00 0. -1.
          1   -1    0    0  501    0 -0.00000000000E+00 -0.00000000000E+00 -0.51346437361E+03  0.51346437361E+03  0.00000000000E+00 0. -1.
         25    2    1    2    0    0 -0.50383415844E+02  0.62626862709E+02 -0.97857496844E+02  0.17794439212E+03  0.12501001749E+03 0.  0.
          2    1    1    2  501    0  0.36874838631E+02 -0.42708487354E+02 -0.37156281808E+03  0.37582269276E+03  0.00000000000E+00 0. -1.
          1    1    1    2  502    0  0.13508577213E+02 -0.19918375355E+02  0.75537712771E+02  0.79279060197E+02  0.00000000000E+00 0. -1.
         22    1    3    3    0    0  0.23957845970E+02  0.20671502048E+02 -0.86155710673E+02  0.91782873468E+02  0.00000000000E+00 0.  1.
         22    1    3    3    0    0 -0.74341261815E+02  0.41955360661E+02 -0.11701786170E+02  0.86161518649E+02  0.00000000000E+00 0.  1.
</event>
<event>
 7    1  0.6510186E-006  0.7632579E+02  0.7818608E-02  0.1390203E+00
          2   -1    0    0  502    0  0.00000000000E+00  0.00000000000E+00  0.60153844462E+03  0.60153844462E+03  0.00000000000E+00 0. -1.
          1   -1    0    0  501    0 -0.00000000000E+00 -0.00000000000E+00 -0.18560485369E+04  0.18560485369E+04  0.00000000000E+00 0. -1.
         25    2    1    2    0    0 -0.24117745815E+02  0.73613566937E+02 -0.73916844494E+01  0.14724311916E+03  0.12500110496E+03 0.  0.
          2    1    1    2  501    0 -0.25984514617E+02 -0.71955607023E+02 -0.17767243707E+04  0.17783706852E+04  0.00000000000E+00 0. -1.
          1    1    1    2  502    0  0.50102260432E+02 -0.16579599136E+01  0.52960596288E+03  0.53197317719E+03  0.00000000000E+00 0. -1.
         22    1    3    3    0    0 -0.24532978854E+02  0.12522450732E+02 -0.60384256969E+02  0.66369701774E+02  0.00000000000E+00 0.  1.
         22    1    3    3    0    0  0.41523303925E+00  0.61091116205E+02  0.52992572520E+02  0.80873417388E+02  0.00000000000E+00 0.  1.
</event>
<event>
 7    1  0.6510186E-006  0.1380196E+03  0.7818608E-02  0.1263806E+00
          2   -1    0    0  502    0  0.00000000000E+00  0.00000000000E+00  0.68908518579E+03  0.68908518579E+03  0.00000000000E+00 0. -1.
          1   -1    0    0  501    0 -0.00000000000E+00 -0.00000000000E+00 -0.16612313141E+04  0.16612313141E+04  0.00000000000E+00 0. -1.
         25    2    1    2    0    0 -0.10279936667E+03 -0.18101169512E+03  0.34224643069E+03  0.41963182130E+03  0.12500121026E+03 0.  0.
          2    1    1    2  501    0  0.98305956981E+02  0.96196901280E+02 -0.16137044741E+04  0.16195555053E+04  0.00000000000E+00 0. -1.
          1    1    1    2  502    0  0.44934096919E+01  0.84814793840E+02  0.29931191508E+03  0.31112917333E+03  0.00000000000E+00 0. -1.
         22    1    3    3    0    0 -0.13109362692E+03 -0.14589084137E+03  0.25818845747E+03  0.32423904173E+03  0.00000000000E+00 0.  1.
         22    1    3    3    0    0  0.28294260243E+02 -0.35120853754E+02  0.84057973222E+02  0.95392779566E+02  0.00000000000E+00 0.  1.
</event>
<event>
 7    1  0.6510186E-006  0.3810999E+02  0.7818608E-02  0.1534972E+00
          2   -1    0    0  502    0  0.00000000000E+00  0.00000000000E+00  0.32181149300E+03  0.32181149300E+03  0.00000000000E+00 0. -1.
          1   -1    0    0  501    0 -0.00000000000E+00 -0.00000000000E+00 -0.16373693076E+04  0.16373693076E+04  0.00000000000E+00 0. -1.
         25    2    1    2    0    0 -0.44376404784E+02  0.52731371776E+02 -0.35693603602E+03  0.38441859059E+03  0.12499782444E+03 0.  0.
          2    1    1    2  501    0  0.11833685945E+02 -0.33064351808E+02 -0.12652741448E+04  0.12657614107E+04  0.00000000000E+00 0. -1.
          1    1    1    2  502    0  0.32542718840E+02 -0.19667019968E+02  0.30665236622E+03  0.30900079924E+03  0.00000000000E+00 0. -1.
         22    1    3    3    0    0  0.64337573208E+01  0.57915544374E+02 -0.30875217704E+03  0.31420297634E+03  0.00000000000E+00 0.  1.
         22    1    3    3    0    0 -0.50810162105E+02 -0.51841725987E+01 -0.48183858972E+02  0.70215614247E+02  0.00000000000E+00 0.  1.
</event>
<event>
 7    1  0.6510186E-006  0.9588381E+02  0.7818608E-02  0.1361502E+00
          2   -1    0    0  502    0  0.00000000000E+00  0.00000000000E+00  0.12395925384E+04  0.12395925384E+04  0.00000000000E+00 0. -1.
          1   -1    0    0  501    0 -0.00000000000E+00 -0.00000000000E+00 -0.71725829360E+03  0.71725829360E+03  0.00000000000E+00 0. -1.
         25    2    1    2    0    0 -0.33452621839E+02  0.45384758392E+02  0.22718741946E+02  0.13899453542E+03  0.12499794174E+03 0.  0.
          2    1    1    2  501    0 -0.50313181647E+02  0.43738925342E+01 -0.65610019870E+03  0.65804104577E+03  0.00000000000E+00 0. -1.
          1    1    1    2  502    0  0.83765803486E+02 -0.49758650927E+02  0.11557157015E+04  0.11598152508E+04  0.00000000000E+00 0. -1.
         22    1    3    3    0    0 -0.19878408340E+02  0.77715773056E+02  0.50036969538E+02  0.94544121025E+02  0.00000000000E+00 0.  1.
         22    1    3    3    0    0 -0.13574213499E+02 -0.32331014664E+02 -0.27318227592E+02  0.44450414397E+02  0.00000000000E+00 0.  1.
</event>
<event>
 7    1  0.6510186E-006  0.5693389E+02  0.7818608E-02  0.1522286E+00
          2   -1    0    0  502    0  0.00000000000E+00  0.00000000000E+00  0.71659370331E+03  0.71659370331E+03  0.00000000000E+00 0. -1.
          1   -1    0    0  501    0 -0.00000000000E+00 -0.00000000000E+00 -0.27118873178E+03  0.27118873178E+03  0.00000000000E+00 0. -1.
         25    2    1    2    0    0  0.57464381303E+02 -0.15887236537E+02  0.92797231586E+02  0.16670720823E+03  0.12500163072E+03 0.  0.
          2    1    1    2  501    0 -0.12475990255E+01  0.25532662532E+02 -0.23214450704E+03  0.23354773711E+03  0.00000000000E+00 0. -1.
          1    1    1    2  502    0 -0.56216782278E+02 -0.96454259943E+01  0.58475224699E+03  0.58752748975E+03  0.00000000000E+00 0. -1.
         22    1    3    3    0    0  0.87702266584E+02 -0.21288195057E+02  0.27174502736E+02  0.94251410662E+02  0.00000000000E+00 0. -1.
         22    1    3    3    0    0 -0.30237885281E+02  0.54009585193E+01  0.65622728850E+02  0.72455797566E+02  0.00000000000E+00 0. -1.
</event>
<event>
 7    1  0.6510186E-006  0.2176064E+02  0.7818608E-02  0.1726520E+00
          2   -1    0    0  502    0  0.00000000000E+00  0.00000000000E+00  0.27758001927E+03  0.27758001927E+03  0.00000000000E+00 0. -1.
          1   -1    0    0  501    0 -0.00000000000E+00 -0.00000000000E+00 -0.39173065061E+03  0.39173065061E+03  0.00000000000E+00 0. -1.
         25    2    1    2    0    0 -0.84169307704E+01 -0.19861522656E+02  0.64386465133E+02  0.14224962478E+03  0.12499605614E+03 0.  0.
          2    1    1    2  501    0 -0.13060851529E+02  0.15444507298E+02 -0.35181766762E+03  0.35239862358E+03  0.00000000000E+00 0. -1.
          1    1    1    2  502    0  0.21477782299E+02  0.44170153573E+01  0.17328057114E+03  0.17466242152E+03  0.00000000000E+00 0. -1.
         22    1    3    3    0    0  0.26278204713E+01  0.24574284277E+02  0.87525005006E+02  0.90947388030E+02  0.00000000000E+00 0. -1.
         22    1    3    3    0    0 -0.11044751242E+02 -0.44435806933E+02 -0.23138539873E+02  0.51302236747E+02  0.00000000000E+00 0. -1.
</event>
<event>
 7    1  0.6510186E-006  0.6146714E+02  0.7818608E-02  0.1532997E+00
          2   -1    0    0  502    0  0.00000000000E+00  0.00000000000E+00  0.14863717480E+04  0.14863717480E+04  0.00000000000E+00 0. -1.
          1   -1    0    0  501    0 -0.00000000000E+00 -0.00000000000E+00 -0.42824202493E+02  0.42824202493E+02  0.00000000000E+00 0. -1.
         25    2    1    2    0    0  0.25529126685E+02  0.33216848098E+02  0.49710250756E+03  0.51428805335E+03  0.12500481388E+03 0.  0.
          2    1    1    2  501    0  0.15439654138E+02  0.15752805924E+02 -0.29523387280E+02  0.36853279513E+02  0.00000000000E+00 0. -1.
          1    1    1    2  502    0 -0.40968780823E+02 -0.48969654022E+02  0.97596842526E+03  0.97805461765E+03  0.00000000000E+00 0. -1.
         22    1    3    3    0    0  0.17473765845E+02  0.45367166968E+02  0.49733760787E+03  0.49970812334E+03  0.00000000000E+00 0. -1.
         22    1    3    3    0    0  0.80553608400E+01 -0.12150318870E+02 -0.23510031396E+00  0.14579930009E+02  0.00000000000E+00 0. -1.
</event>
<event>
 7    1  0.6510186E-006  0.7380179E+02  0.7818608E-02  0.1431892E+00
          2   -1    0    0  502    0  0.00000000000E+00  0.00000000000E+00  0.10488039129E+04  0.10488039129E+04  0.00000000000E+00 0. -1.
          1   -1    0    0  501    0 -0.00000000000E+00 -0.00000000000E+00 -0.82987606744E+03  0.82987606744E+03  0.00000000000E+00 0. -1.
         25    2    1    2    0    0  0.73413707868E+02  0.71595837049E+01  0.34918400574E+03  0.37814688955E+03  0.12499907227E+03 0.  0.
          2    1    1    2  501    0 -0.11794372895E+02  0.35558477914E+02 -0.81291060200E+03  0.81377340792E+03  0.00000000000E+00 0. -1.
          1    1    1    2  502    0 -0.61619334973E+02 -0.42718061618E+02  0.68265444174E+03  0.68675968291E+03  0.00000000000E+00 0. -1.
         22    1    3    3    0    0  0.95997979710E+02  0.38337149465E+02  0.21515738474E+03  0.23870075271E+03  0.00000000000E+00 0. -1.
         22    1    3    3    0    0 -0.22584271842E+02 -0.31177565760E+02  0.13402662100E+03  0.13944613684E+03  0.00000000000E+00 0. -1.
</event>
<event>
 7    1  0.6510186E-006  0.3965766E+02  0.7818608E-02  0.1554409E+00
          2   -1    0    0  502    0  0.00000000000E+00  0.00000000000E+00  0.54364746107E+03  0.54364746107E+03  0.00000000000E+00 0. -1.
          1   -1    0    0  501    0 -0.00000000000E+00 -0.00000000000E+00 -0.82655923018E+03  0.82655923018E+03  0.00000000000E+00 0. -1.
         25    2    1    2    0    0 -0.49891708708E+02  0.14257093707E+02 -0.19817982697E+02  0.13678802230E+03  0.12500305311E+03 0.  0.
          2    1    1    2  501    0  0.37505158399E+02  0.12803178799E+02 -0.74727428738E+03  0.74832440751E+03  0.00000000000E+00 0. -1.
          1    1    1    2  502    0  0.12386550309E+02 -0.27060272506E+02  0.48418050096E+03  0.48509426144E+03  0.00000000000E+00 0. -1.
         22    1    3    3    0    0 -0.59734598088E+01  0.22414426336E+02 -0.67545557750E+02  0.71417722603E+02  0.00000000000E+00 0.  1.
         22    1    3    3    0    0 -0.43918248900E+02 -0.81573326296E+01  0.47727575053E+02  0.65370299697E+02  0.00000000000E+00 0.  1.
</event>
<event>
 7    1  0.6510186E-006  0.1115663E+03  0.7818608E-02  0.1374695E+00
          2   -1    0    0  502    0  0.00000000000E+00  0.00000000000E+00  0.11049218632E+04  0.11049218632E+04  0.00000000000E+00 0. -1.
          1   -1    0    0  501    0 -0.00000000000E+00 -0.00000000000E+00 -0.44470656307E+03  0.44470656307E+03  0.00000000000E+00 0. -1.
         25    2    1    2    0    0  0.70818056569E+02 -0.62073561796E+02 -0.69526315621E+02  0.17124815775E+03  0.12499479493E+03 0.  0.
          2    1    1    2  501    0 -0.15721543907E+02 -0.35582855388E+02 -0.32015673343E+03  0.32251145794E+03  0.00000000000E+00 0. -1.
          1    1    1    2  502    0 -0.55096512662E+02  0.97656417183E+02  0.10498983492E+04  0.10558688106E+04  0.00000000000E+00 0. -1.
         22    1    3    3    0    0 -0.23872835880E+02  0.19819489183E+02 -0.97929073273E+01  0.32536525296E+02  0.00000000000E+00 0. -1.
         22    1    3    3    0    0  0.94690892449E+02 -0.81893050979E+02 -0.59733408293E+02  0.13871163245E+03  0.00000000000E+00 0. -1.
</event>
<event>
 7    1  0.6510186E-006  0.6939932E+02  0.7818608E-02  0.1387828E+00
          2   -1    0    0  502    0  0.00000000000E+00  0.00000000000E+00  0.16311462056E+04  0.16311462056E+04  0.00000000000E+00 0. -1.
          1   -1    0    0  501    0 -0.00000000000E+00 -0.00000000000E+00 -0.16544786231E+03  0.16544786231E+03  0.00000000000E+00 0. -1.
         25    2    1    2    0    0 -0.12404681615E+02  0.75477064715E+02 -0.75729472784E+02  0.16495507159E+03  0.12499823667E+03 0.  0.
          2    1    1    2  501    0  0.52890680112E+02 -0.18991634253E+02 -0.26528063673E+02  0.62143739641E+02  0.00000000000E+00 0. -1.
          1    1    1    2  502    0 -0.40485998497E+02 -0.56485430462E+02  0.15679558798E+04  0.15694952567E+04  0.00000000000E+00 0. -1.
         22    1    3    3    0    0 -0.23172834662E+02  0.10751111419E+03 -0.43546800154E+02  0.11828754687E+03  0.00000000000E+00 0.  1.
         22    1    3    3    0    0  0.10768153047E+02 -0.32034049476E+02 -0.32182672630E+02  0.46667524720E+02  0.00000000000E+00 0.  1.
</event>
<event>
 7    1  0.6510186E-006  0.3111099E+02  0.7818608E-02  0.1615794E+00
          2   -1    0    0  502    0  0.00000000000E+00  0.00000000000E+00  0.50399189961E+02  0.50399189961E+02  0.00000000000E+00 0. -1.
          1   -1    0    0  501    0 -0.00000000000E+00 -0.00000000000E+00 -0.89484971489E+03  0.89484971489E+03  0.00000000000E+00 0. -1.
         25    2    1    2    0    0  0.15368748132E+02 -0.48716103072E+02 -0.33851266166E+03  0.36445206923E+03  0.12500012617E+03 0.  0.
          2    1    1    2  501    0 -0.20025736244E+02  0.23105989227E+02 -0.53835486495E+03  0.53922247493E+03  0.00000000000E+00 0. -1.
          1    1    1    2  502    0  0.46569881122E+01  0.25610113845E+02  0.32417001681E+02  0.41574360698E+02  0.00000000000E+00 0. -1.
         22    1    3    3    0    0 -0.18115522151E+02  0.28269922581E+02 -0.31045499616E+02  0.45729462187E+02  0.00000000000E+00 0. -1.
         22    1    3    3    0    0  0.33484270283E+02 -0.76986025654E+02 -0.30746716204E+03  0.31872260704E+03  0.00000000000E+00 0. -1.
</event>
<event>
 7    1  0.6510186E-006  0.9896775E+02  0.7818608E-02  0.1379537E+00
          2   -1    0    0  502    0  0.00000000000E+00  0.00000000000E+00  0.64983383209E+03  0.64983383209E+03  0.00000000000E+00 0. -1.
          1   -1    0    0  501    0 -0.00000000000E+00 -0.00000000000E+00 -0.31509956347E+03  0.31509956347E+03  0.00000000000E+00 0. -1.
         25    2    1    2    0    0  0.17992966946E+02  0.62478457304E+02  0.57758179905E+02  0.15227628736E+03  0.12499902344E+03 0.  0.
          2    1    1    2  501    0  0.32464141519E+02  0.26880336878E+02 -0.26130445794E+03  0.26468187080E+03  0.00000000000E+00 0. -1.
          1    1    1    2  502    0 -0.50457108465E+02 -0.89358794182E+02  0.53828054665E+03  0.54797523739E+03  0.00000000000E+00 0. -1.
         22    1    3    3    0    0  0.29959615828E+02  0.79831840344E+02 -0.56506955454E+01  0.85455436769E+02  0.00000000000E+00 0. -1.
         22    1    3    3    0    0 -0.11966648881E+02 -0.17353383040E+02  0.63408875450E+02  0.66820850595E+02  0.00000000000E+00 0. -1.
</event>
<event>
 7    1  0.6510186E-006  0.2386764E+03  0.7818608E-02  0.1248717E+00
          2   -1    0    0  502    0  0.00000000000E+00  0.00000000000E+00  0.40535690523E+03  0.40535690523E+03  0.00000000000E+00 0. -1.
          1   -1    0    0  501    0 -0.00000000000E+00 -0.00000000000E+00 -0.23176308137E+04  0.23176308137E+04  0.00000000000E+00 0. -1.
         25    2    1    2    0    0 -0.45641432174E+02  0.19445920535E+03 -0.82576935601E+03  0.85872986046E+03  0.12499768417E+03 0.  0.
          2    1    1    2  501    0 -0.50794277453E+02  0.25902324157E+02 -0.14375656555E+04  0.14386959383E+04  0.00000000000E+00 0. -1.
          1    1    1    2  502    0  0.96435709627E+02 -0.22036152950E+03  0.35106110307E+03  0.42556192013E+03  0.00000000000E+00 0. -1.
         22    1    3    3    0    0 -0.17198356365E+02  0.57772647730E+02 -0.80890605033E+02  0.10087989031E+03  0.00000000000E+00 0.  1.
         22    1    3    3    0    0 -0.28443075810E+02  0.13668655762E+03 -0.74487875097E+03  0.75784997014E+03  0.00000000000E+00 0.  1.
</event>
<event>
 7    1  0.6510186E-006  0.3499287E+03  0.7818608E-02  0.1290855E+00
          2   -1    0    0  502    0  0.00000000000E+00  0.00000000000E+00  0.30814756428E+03  0.30814756428E+03  0.00000000000E+00 0. -1.
          1   -1    0    0  501    0 -0.00000000000E+00 -0.00000000000E+00 -0.73679709961E+03  0.73679709961E+03  0.00000000000E+00 0. -1.
         25    2    1    2    0    0  0.23614030406E+03 -0.23181797554E+03 -0.96592449930E+01  0.35386426809E+03  0.12499920893E+03 0.  0.
          2    1    1    2  501    0 -0.25789212578E+03  0.24581953531E+03 -0.49551374934E+03  0.61030276770E+03  0.00000000000E+00 0. -1.
          1    1    1    2  502    0  0.21751821722E+02 -0.14001559772E+02  0.76523458995E+02  0.80777628096E+02  0.00000000000E+00 0. -1.
         22    1    3    3    0    0  0.11703501082E+02  0.15591881503E+02 -0.32289387880E+01  0.19761193083E+02  0.00000000000E+00 0. -1.
         22    1    3    3    0    0  0.22443680298E+03 -0.24740985704E+03 -0.64303062051E+01  0.33410307501E+03  0.00000000000E+00 0. -1.
</event>
<event>
 7    1  0.6510186E-006  0.7378364E+02  0.7818608E-02  0.1489050E+00
          2   -1    0    0  502    0  0.00000000000E+00  0.00000000000E+00  0.19781336716E+04  0.19781336716E+04  0.00000000000E+00 0. -1.
          1   -1    0    0  501    0 -0.00000000000E+00 -0.00000000000E+00 -0.39558413059E+02  0.39558413059E+02  0.00000000000E+00 0. -1.
         25    2    1    2    0    0 -0.16082808760E+02  0.93819424666E+02  0.34870915344E+03  0.38246478077E+03  0.12498197333E+03 0.  0.
          2    1    1    2  501    0 -0.51259301798E+01 -0.24206017758E+02 -0.14853248838E+02  0.28858715442E+02  0.00000000000E+00 0. -1.
          1    1    1    2  502    0  0.21208738939E+02 -0.69613406908E+02  0.16047193539E+04  0.16063685884E+04  0.00000000000E+00 0. -1.
         22    1    3    3    0    0 -0.12976573410E+02  0.73186200236E+02  0.67257158584E+02  0.10024039477E+03  0.00000000000E+00 0.  1.
         22    1    3    3    0    0 -0.31062353495E+01  0.20633224431E+02  0.28145199485E+03  0.28222438600E+03  0.00000000000E+00 0.  1.
</event>
<event>
 7    1  0.6510186E-006  0.1365980E+03  0.7818608E-02  0.1244092E+00
          2   -1    0    0  502    0  0.00000000000E+00  0.00000000000E+00  0.29051315433E+04  0.29051315433E+04  0.00000000000E+00 0. -1.
          1   -1    0    0  501    0 -0.00000000000E+00 -0.00000000000E+00 -0.25782598128E+03  0.25782598128E+03  0.00000000000E+00 0. -1.
         25    2    1    2    0    0 -0.66506429049E+02 -0.15318205965E+03  0.10989739095E+04  0.11185961181E+04  0.12500309226E+03 0.  0.
          2    1    1    2  501    0  0.10204101937E+03  0.21900862379E+02 -0.23432948446E+03  0.25651963802E+03  0.00000000000E+00 0. -1.
          1    1    1    2  502    0 -0.35534590319E+02  0.13128119727E+03  0.17826611370E+04  0.17878417685E+04  0.00000000000E+00 0. -1.
         22    1    3    3    0    0 -0.18895727250E+02 -0.90512663386E+02  0.89820930277E+03  0.90295600243E+03  0.00000000000E+00 0. -1.
         22    1    3    3    0    0 -0.47610701798E+02 -0.62669396267E+02  0.20076460674E+03  0.21564011564E+03  0.00000000000E+00 0. -1.
</event>
<event>
 7    1  0.6510186E-006  0.1178844E+03  0.7818608E-02  0.1310266E+00
          2   -1    0    0  502    0  0.00000000000E+00  0.00000000000E+00  0.20726711556E+03  0.20726711556E+03  0.00000000000E+00 0. -1.
          1   -1    0    0  501    0 -0.00000000000E+00 -0.00000000000E+00 -0.46363045192E+03  0.46363045192E+03  0.00000000000E+00 0. -1.
         25    2    1    2    0    0 -0.15929700020E+03 -0.30280014224E+02  0.54969376336E+01  0.20482630673E+03  0.12502474184E+03 0.  0.
          2    1    1    2  501    0  0.62712724101E+02 -0.13818771627E+02 -0.33243457144E+03  0.33858025415E+03  0.00000000000E+00 0. -1.
          1    1    1    2  502    0  0.96584276096E+02  0.44098785851E+02  0.70574297447E+02  0.12749100659E+03  0.00000000000E+00 0. -1.
         22    1    3    3    0    0 -0.85850791446E+02 -0.39168792416E+02  0.60978367747E+02  0.11235174242E+03  0.00000000000E+00 0.  1.
         22    1    3    3    0    0 -0.73446208750E+02  0.88887781925E+01 -0.55481430114E+02  0.92474564313E+02  0.00000000000E+00 0.  1.
</event>
<event>
 7    1  0.6510186E-006  0.3324246E+02  0.7818608E-02  0.1599695E+00
          2   -1    0    0  502    0  0.00000000000E+00  0.00000000000E+00  0.90530058207E+03  0.90530058207E+03  0.00000000000E+00 0. -1.
          1   -1    0    0  501    0 -0.00000000000E+00 -0.00000000000E+00 -0.26631010311E+03  0.26631010311E+03  0.00000000000E+00 0. -1.
         25    2    1    2    0    0 -0.24143206780E+02  0.28798068688E+02 -0.63098647320E+02  0.14497813314E+03  0.12499998640E+03 0.  0.
          2    1    1    2  501    0 -0.89318195258E+01 -0.25281650375E+02 -0.16084151102E+03  0.16306112631E+03  0.00000000000E+00 0. -1.
          1    1    1    2  502    0  0.33075026306E+02 -0.35164183126E+01  0.86293063730E+03  0.86357142574E+03  0.00000000000E+00 0. -1.
         22    1    3    3    0    0 -0.51962230037E+02  0.36789989460E+02 -0.86745262586E+02  0.10760258945E+03  0.00000000000E+00 0.  1.
         22    1    3    3    0    0  0.27819023257E+02 -0.79919207718E+01  0.23646615266E+02  0.37375543690E+02  0.00000000000E+00 0.  1.
</event>
<event>
 7    1  0.6932048E-006  0.4588033E+02  0.7818608E-02  0.1503838E+00
          2   -1    0    0  502    0  0.00000000000E+00  0.00000000000E+00  0.13616078738E+04  0.13616078738E+04  0.00000000000E+00 0. -1.
          1   -1    0    0  501    0 -0.00000000000E+00 -0.00000000000E+00 -0.97911055410E+03  0.97911055410E+03  0.00000000000E+00 0. -1.
         25    2    1    2    0    0 -0.59133081058E+02 -0.56054353660E+02 -0.11963141478E+02  0.14969147005E+03  0.12500243042E+03 0.  0.
          2    1    1    2  501    0  0.32301744480E+02  0.32160123137E+02 -0.89745510580E+03  0.89861189795E+03  0.00000000000E+00 0. -1.
          1    1    1    2  502    0  0.26831336578E+02  0.23894230523E+02  0.12919155670E+04  0.12924150599E+04  0.00000000000E+00 0. -1.
         22    1    3    3    0    0 -0.87579706720E+02 -0.93855808549E+01 -0.28520264966E+02  0.92583474070E+02  0.00000000000E+00 0.  1.
         22    1    3    3    0    0  0.28446625661E+02 -0.46668772805E+02  0.16557123488E+02  0.57107995980E+02  0.00000000000E+00 0.  1.
</event>
<event>
 7    1  0.6510186E-006  0.4412622E+02  0.7818608E-02  0.1591444E+00
          2   -1    0    0  502    0  0.00000000000E+00  0.00000000000E+00  0.32688855032E+03  0.32688855032E+03  0.00000000000E+00 0. -1.
          1   -1    0    0  501    0 -0.00000000000E+00 -0.00000000000E+00 -0.21133882457E+03  0.21133882457E+03  0.00000000000E+00 0. -1.
         25    2    1    2    0    0 -0.41044911386E+02  0.23739242741E+02  0.24346080035E+03  0.27775296910E+03  0.12500125657E+03 0.  0.
          2    1    1    2  501    0  0.24328791703E+02 -0.36832666828E+02 -0.18989308306E+03  0.19495619622E+03  0.00000000000E+00 0. -1.
          1    1    1    2  502    0  0.16716119682E+02  0.13093424087E+02  0.61982008462E+02  0.65518209564E+02  0.00000000000E+00 0. -1.
         22    1    3    3    0    0 -0.64673157042E+02  0.58612086406E+02  0.19436570911E+03  0.21306342434E+03  0.00000000000E+00 0. -1.
         22    1    3    3    0    0  0.23628245656E+02 -0.34872843664E+02  0.49095091235E+02  0.64689544761E+02  0.00000000000E+00 0. -1.
</event>
<event>
 7    1  0.6510186E-006  0.1301993E+03  0.7818608E-02  0.1278261E+00
          2   -1    0    0  502    0  0.00000000000E+00  0.00000000000E+00  0.29952785760E+04  0.29952785760E+04  0.00000000000E+00 0. -1.
          1   -1    0    0  501    0 -0.00000000000E+00 -0.00000000000E+00 -0.45876916361E+02  0.45876916361E+02  0.00000000000E+00 0. -1.
         25    2    1    2    0    0 -0.72797468053E+02  0.28981712580E+02  0.74224861926E+03  0.75676758008E+03  0.12499898580E+03 0.  0.
          2    1    1    2  501    0  0.94077687634E+02 -0.10434378887E+03  0.92331546043E+02  0.16811707820E+03  0.00000000000E+00 0. -1.
          1    1    1    2  502    0 -0.21280219581E+02  0.75362076290E+02  0.21148214944E+04  0.21162708341E+04  0.00000000000E+00 0. -1.
         22    1    3    3    0    0 -0.74587421700E+02 -0.13411613384E+02  0.21784951274E+03  0.23065464455E+03  0.00000000000E+00 0.  1.
         22    1    3    3    0    0  0.17899536468E+01  0.42393325964E+02  0.52439910652E+03  0.52611293554E+03  0.00000000000E+00 0.  1.
</event>
<event>
 7    1  0.6510186E-006  0.5781772E+02  0.7818608E-02  0.1416354E+00
          2   -1    0    0  502    0  0.00000000000E+00  0.00000000000E+00  0.58569361607E+03  0.58569361607E+03  0.00000000000E+00 0. -1.
          1   -1    0    0  501    0 -0.00000000000E+00 -0.00000000000E+00 -0.66972568523E+03  0.66972568523E+03  0.00000000000E+00 0. -1.
         25    2    1    2    0    0  0.59808581350E+02  0.13451134853E+02 -0.12125787642E+03  0.18462426320E+03  0.12499858614E+03 0.  0.
          2    1    1    2  501    0 -0.44760342101E+02  0.38256044950E+02 -0.51379047957E+03  0.51715342994E+03  0.00000000000E+00 0. -1.
          1    1    1    2  502    0 -0.15048239249E+02 -0.51707179802E+02  0.55101628683E+03  0.55364160817E+03  0.00000000000E+00 0. -1.
         22    1    3    3    0    0 -0.12986705896E+02  0.28997267496E+02  0.10357052481E+02  0.33418027895E+02  0.00000000000E+00 0. -1.
         22    1    3    3    0    0  0.72795287246E+02 -0.15546132644E+02 -0.13161492890E+03  0.15120623530E+03  0.00000000000E+00 0. -1.
</event>
<event>
 7    1  0.1045412E-005  0.8801324E+02  0.7818608E-02  0.1320466E+00
          2   -1    0    0  502    0  0.00000000000E+00  0.00000000000E+00  0.27026959304E+04  0.27026959304E+04  0.00000000000E+00 0. -1.
          1   -1    0    0  501    0 -0.00000000000E+00 -0.00000000000E+00 -0.11125013220E+04  0.11125013220E+04  0.00000000000E+00 0. -1.
         25    2    1    2    0    0  0.13830507600E+03  0.81857001131E+02 -0.31728808774E+03  0.37699586689E+03  0.12500116136E+03 0.  0.
          2    1    1    2  501    0 -0.54058164105E+02 -0.56878363100E+02 -0.76262339510E+03  0.76664977405E+03  0.00000000000E+00 0. -1.
          1    1    1    2  502    0 -0.84246911899E+02 -0.24978638032E+02  0.26701060912E+04  0.26715516115E+04  0.00000000000E+00 0. -1.
         22    1    3    3    0    0  0.22941541985E+02  0.47901017623E+02 -0.20785053542E+02  0.57033676795E+02  0.00000000000E+00 0.  1.
         22    1    3    3    0    0  0.11536353402E+03  0.33955983508E+02 -0.29650303420E+03  0.31996219009E+03  0.00000000000E+00 0.  1.
</event>
<event>
 7    1  0.6510186E-006  0.6308285E+02  0.7818608E-02  0.1475149E+00
          2   -1    0    0  502    0  0.00000000000E+00  0.00000000000E+00  0.27058631168E+03  0.27058631168E+03  0.00000000000E+00 0. -1.
          1   -1    0    0  501    0 -0.00000000000E+00 -0.00000000000E+00 -0.10073760769E+04  0.10073760769E+04  0.00000000000E+00 0. -1.
         25    2    1    2    0    0  0.48387805008E+02 -0.14408951820E+02  0.12452109066E+03  0.18351939649E+03  0.12499947721E+03 0.  0.
          2    1    1    2  501    0  0.25808223843E+01 -0.31812179075E+02 -0.96743732347E+03  0.96796366162E+03  0.00000000000E+00 0. -1.
          1    1    1    2  502    0 -0.50968627393E+02  0.46221130894E+02  0.10612646757E+03  0.12647933048E+03  0.00000000000E+00 0. -1.
         22    1    3    3    0    0  0.66476410258E+02  0.36806676089E+02  0.95159949177E+02  0.12177545095E+03  0.00000000000E+00 0. -1.
         22    1    3    3    0    0 -0.18088605250E+02 -0.51215627909E+02  0.29361141480E+02  0.61743945541E+02  0.00000000000E+00 0. -1.
</event>
<event>
 7    1  0.6510186E-006  0.1984495E+03  0.7818608E-02  0.1177996E+00
          2   -1    0    0  502    0  0.00000000000E+00  0.00000000000E+00  0.22417486258E+04  0.22417486258E+04  0.00000000000E+00 0. -1.
          1   -1    0    0  501    0 -0.00000000000E+00 -0.00000000000E+00 -0.82935605374E+02  0.82935605374E+02  0.00000000000E+00 0. -1.
         25    2    1    2    0    0  0.10955489153E+03  0.15069749648E+03  0.10027834363E+04  0.10275758243E+04  0.12500177911E+03 0.  0.
          2    1    1    2  501    0  0.11501363198E+03 -0.88933072503E+02  0.31561354033E+02  0.14877279991E+03  0.00000000000E+00 0. -1.
          1    1    1    2  502    0 -0.22456852351E+03 -0.61764423975E+02  0.11244682300E+04  0.11483356070E+04  0.00000000000E+00 0. -1.
         22    1    3    3    0    0  0.11002776353E+03  0.15139551484E+03  0.10065063506E+04  0.10237586358E+04  0.00000000000E+00 0.  1.
         22    1    3    3    0    0 -0.47287199554E+00 -0.69801836162E+00 -0.37229142313E+01  0.38171884851E+01  0.00000000000E+00 0.  1.
</event>
<event>
 7    1  0.6510186E-006  0.1099070E+03  0.7818608E-02  0.1403804E+00
          2   -1    0    0  502    0  0.00000000000E+00  0.00000000000E+00  0.18926384988E+04  0.18926384988E+04  0.00000000000E+00 0. -1.
          1   -1    0    0  501    0 -0.00000000000E+00 -0.00000000000E+00 -0.10589091144E+04  0.10589091144E+04  0.00000000000E+00 0. -1.
         25    2    1    2    0    0  0.67845613919E+02 -0.96176900631E+02  0.81037851105E+02  0.18985602424E+03  0.12500061234E+03 0.  0.
          2    1    1    2  501    0  0.16845637091E+02  0.26313707945E+02 -0.10025415438E+04  0.10030282816E+04  0.00000000000E+00 0. -1.
          1    1    1    2  502    0 -0.84691251010E+02  0.69863192685E+02  0.17552330770E+04  0.17586633073E+04  0.00000000000E+00 0. -1.
         22    1    3    3    0    0 -0.11929086648E+02  0.22768385188E+02  0.25609450030E+02  0.36284244558E+02  0.00000000000E+00 0. -1.
         22    1    3    3    0    0  0.79774700567E+02 -0.11894528582E+03  0.55428401075E+02  0.15357177968E+03  0.00000000000E+00 0. -1.
</event>
<event>
 7    1  0.6510186E-006  0.1235158E+03  0.7818608E-02  0.1373407E+00
          2   -1    0    0  502    0  0.00000000000E+00  0.00000000000E+00  0.13288695572E+04  0.13288695572E+04  0.00000000000E+00 0. -1.
          1   -1    0    0  501    0 -0.00000000000E+00 -0.00000000000E+00 -0.25156783458E+03  0.25156783458E+03  0.00000000000E+00 0. -1.
         25    2    1    2    0    0 -0.83349062065E+02 -0.45661101082E+02  0.22579964325E+03  0.27503107520E+03  0.12499844453E+03 0.  0.
          2    1    1    2  501    0  0.11859300263E+03  0.41305148321E+02 -0.20926024684E+03  0.24404972129E+03  0.00000000000E+00 0. -1.
          1    1    1    2  502    0 -0.35243940570E+02  0.43559527614E+01  0.10607623263E+04  0.10613565953E+04  0.00000000000E+00 0. -1.
         22    1    3    3    0    0  0.27872420961E+02 -0.31481941146E+02  0.86793845599E+02  0.96442501535E+02  0.00000000000E+00 0. -1.
         22    1    3    3    0    0 -0.11122148303E+03 -0.14179159936E+02  0.13900579765E+03  0.17858857366E+03  0.00000000000E+00 0. -1.
</event>
<event>
 7    1  0.6510186E-006  0.4866548E+02  0.7818608E-02  0.1461042E+00
          2   -1    0    0  502    0  0.00000000000E+00  0.00000000000E+00  0.30619254578E+03  0.30619254578E+03  0.00000000000E+00 0. -1.
          1   -1    0    0  501    0 -0.00000000000E+00 -0.00000000000E+00 -0.23257460433E+04  0.23257460433E+04  0.00000000000E+00 0. -1.
         25    2    1    2    0    0 -0.85139284158E+02  0.28568157769E+02 -0.45931793985E+03  0.48442065397E+03  0.12500225110E+03 0.  0.
          2    1    1    2  501    0  0.47684963860E+02 -0.22375558441E+01 -0.18517826694E+04  0.18523978831E+04  0.00000000000E+00 0. -1.
          1    1    1    2  502    0  0.37454320299E+02 -0.26330601924E+02  0.29154711179E+03  0.29512005201E+03  0.00000000000E+00 0. -1.
         22    1    3    3    0    0 -0.82829262631E+02 -0.35277392546E+02 -0.26941191445E+03  0.28405626347E+03  0.00000000000E+00 0. -1.
         22    1    3    3    0    0 -0.23100215272E+01  0.63845550315E+02 -0.18990602541E+03  0.20036439050E+03  0.00000000000E+00 0. -1.
</event>
<event>
 7    1  0.6510186E-006  0.6433881E+02  0.7818608E-02  0.1402372E+00
          2   -1    0    0  502    0  0.00000000000E+00  0.00000000000E+00  0.90234580166E+03  0.90234580166E+03  0.00000000000E+00 0. -1.
          1   -1    0    0  501    0 -0.00000000000E+00 -0.00000000000E+00 -0.68226735735E+02  0.68226735735E+02  0.00000000000E+00 0. -1.
         25    2    1    2    0    0 -0.85145860725E+02 -0.21616817226E+02  0.17617765750E+03  0.23319955421E+03  0.12500544268E+03 0.  0.
          2    1    1    2  501    0  0.26420243273E+02  0.47070355491E+02 -0.19141469652E+02  0.57271663858E+02  0.00000000000E+00 0. -1.
          1    1    1    2  502    0  0.58725617452E+02 -0.25453538265E+02  0.67708287808E+03  0.68010131933E+03  0.00000000000E+00 0. -1.
         22    1    3    3    0    0  0.22325323599E+02 -0.25308534527E+02  0.87616522164E+02  0.93891410416E+02  0.00000000000E+00 0. -1.
         22    1    3    3    0    0 -0.10747118432E+03  0.36917173018E+01  0.88561135331E+02  0.13930814380E+03  0.00000000000E+00 0. -1.
</event>
<event>
 7    1  0.6510186E-006  0.8648809E+02  0.7818608E-02  0.1393422E+00
          2   -1    0    0  502    0  0.00000000000E+00  0.00000000000E+00  0.21290837591E+04  0.21290837591E+04  0.00000000000E+00 0. -1.
          1   -1    0    0  501    0 -0.00000000000E+00 -0.00000000000E+00 -0.16512042553E+03  0.16512042553E+03  0.00000000000E+00 0. -1.
         25    2    1    2    0    0  0.32882025863E+02  0.35424184025E+02  0.19476276301E+03  0.23641861248E+03  0.12500050414E+03 0.  0.
          2    1    1    2  501    0 -0.44921133153E+02 -0.76822078592E+02 -0.13030326982E+03  0.15779252862E+03  0.00000000000E+00 0. -1.
          1    1    1    2  502    0  0.12039107290E+02  0.41397894567E+02  0.18995038404E+04  0.18999930436E+04  0.00000000000E+00 0. -1.
         22    1    3    3    0    0 -0.60708312664E+01  0.74398184179E+02  0.14041866299E+03  0.15902624223E+03  0.00000000000E+00 0. -1.
         22    1    3    3    0    0  0.38952857129E+02 -0.38974000154E+02  0.54344100015E+02  0.77392370251E+02  0.00000000000E+00 0. -1.
</event>
<event>
 7    1  0.6510186E-006  0.8926400E+02  0.7818608E-02  0.1325263E+00
          2   -1    0    0  502    0  0.00000000000E+00  0.00000000000E+00  0.15094210242E+03  0.15094210242E+03  0.00000000000E+00 0. -1.
          1   -1    0    0  501    0 -0.00000000000E+00 -0.00000000000E+00 -0.76517250311E+03  0.76517250311E+03  0.00000000000E+00 0. -1.
         25    2    1    2    0    0  0.18645254890E+02  0.46826824129E+02 -0.60344927195E+02  0.14765673567E+03  0.12498241621E+03 0.  0.
          2    1    1    2  501    0  0.73944277451E+02 -0.53568127237E+01 -0.63453716408E+03  0.63885355459E+03  0.00000000000E+00 0. -1.
          1    1    1    2  502    0 -0.92589532341E+02 -0.41470011405E+02  0.80651690583E+02  0.12960431528E+03  0.00000000000E+00 0. -1.
         22    1    3    3    0    0 -0.19674774241E+02  0.47834881281E+02 -0.86827137350E+02  0.10106544607E+03  0.00000000000E+00 0. -1.
         22    1    3    3    0    0  0.38320029132E+02 -0.10080571523E+01  0.26482210154E+02  0.46591289599E+02  0.00000000000E+00 0. -1.
</event>
<event>
 7    1  0.6510186E-006  0.6019327E+02  0.7818608E-02  0.1398838E+00
          2   -1    0    0  502    0  0.00000000000E+00  0.00000000000E+00  0.24477135470E+04  0.24477135470E+04  0.00000000000E+00 0. -1.
          1   -1    0    0  501    0 -0.00000000000E+00 -0.00000000000E+00 -0.80695953058E+02  0.80695953058E+02  0.00000000000E+00 0. -1.
         25    2    1    2    0    0  0.71683567647E+02  0.26136823668E+02  0.19754676743E+04  0.19808883450E+04  0.12499774197E+03 0.  0.
          2    1    1    2  501    0 -0.20244550176E+02 -0.55770864835E+02 -0.64491511789E+02  0.87632107524E+02  0.00000000000E+00 0. -1.
          1    1    1    2  502    0 -0.51439017471E+02  0.29634041167E+02  0.45604143137E+03  0.45988904754E+03  0.00000000000E+00 0. -1.
         22    1    3    3    0    0 -0.31419595624E+00 -0.44726764984E+02  0.52083913231E+03  0.52275614197E+03  0.00000000000E+00 0.  1.
         22    1    3    3    0    0  0.71997763603E+02  0.70863588652E+02  0.14546285420E+04  0.14581322030E+04  0.00000000000E+00 0.  1.
</event>
<event>
 7    1  0.6510186E-006  0.5552204E+02  0.7818608E-02  0.1468309E+00
          2   -1    0    0  502    0  0.00000000000E+00  0.00000000000E+00  0.77453785458E+03  0.77453785458E+03  0.00000000000E+00 0. -1.
          1   -1    0    0  501    0 -0.00000000000E+00 -0.00000000000E+00 -0.32170520971E+03  0.32170520971E+03  0.00000000000E+00 0. -1.
         25    2    1    2    0    0 -0.28951519257E+02  0.23441802067E+02  0.40618864851E+03  0.42660719093E+03  0.12496707015E+03 0.  0.
          2    1    1    2  501    0  0.12103112763E+02  0.36104912295E+02 -0.30763994781E+03  0.30998772157E+03  0.00000000000E+00 0. -1.
          1    1    1    2  502    0  0.16848406494E+02 -0.59546714362E+02  0.35428394417E+03  0.35964815180E+03  0.00000000000E+00 0. -1.
         22    1    3    3    0    0 -0.65516689841E+01  0.51978628632E+02  0.64951293429E+02  0.83446825698E+02  0.00000000000E+00 0. -1.
         22    1    3    3    0    0 -0.22399850273E+02 -0.28536826565E+02  0.34123735508E+03  0.34316036523E+03  0.00000000000E+00 0. -1.
</event>
<event>
 7    1  0.6510186E-006  0.1060698E+03  0.7818608E-02  0.1331999E+00
          2   -1    0    0  502    0  0.00000000000E+00  0.00000000000E+00  0.69233139007E+03  0.69233139007E+03  0.00000000000E+00 0. -1.
          1   -1    0    0  501    0 -0.00000000000E+00 -0.00000000000E+00 -0.10946870028E+04  0.10946870028E+04  0.00000000000E+00 0. -1.
         25    2    1    2    0    0 -0.87624297502E+02  0.12076352575E+03  0.14810841289E+03  0.24458940383E+03  0.12500411126E+03 0.  0.
          2    1    1    2  501    0  0.85454167959E+02 -0.62008983635E+02 -0.10420270296E+04  0.10473623343E+04  0.00000000000E+00 0. -1.
          1    1    1    2  502    0  0.21701295434E+01 -0.58754542117E+02  0.49156300403E+03  0.49506665472E+03  0.00000000000E+00 0. -1.
         22    1    3    3    0    0  0.31722803519E+02  0.27664027857E+02  0.43921808048E+02  0.60833871507E+02  0.00000000000E+00 0. -1.
         22    1    3    3    0    0 -0.11934710102E+03  0.93099497894E+02  0.10418660484E+03  0.18375553232E+03  0.00000000000E+00 0. -1.
</event>
<event>
 7    1  0.6510186E-006  0.1637246E+03  0.7818608E-02  0.1376144E+00
          2   -1    0    0  502    0  0.00000000000E+00  0.00000000000E+00  0.18294849145E+03  0.18294849145E+03  0.00000000000E+00 0. -1.
          1   -1    0    0  501    0 -0.00000000000E+00 -0.00000000000E+00 -0.53298800796E+03  0.53298800796E+03  0.00000000000E+00 0. -1.
         25    2    1    2    0    0 -0.48009279407E+02  0.14416060296E+03  0.20201598441E+02  0.19778792613E+03  0.12499915514E+03 0.  0.
          2    1    1    2  501    0 -0.60077918536E+01  0.25496549054E+02 -0.33577408955E+03  0.33679430932E+03  0.00000000000E+00 0. -1.
          1    1    1    2  502    0  0.54017071261E+02 -0.16965715202E+03 -0.34467025402E+02  0.18135426397E+03  0.00000000000E+00 0. -1.
         22    1    3    3    0    0 -0.76859549047E+02  0.10023322658E+03  0.51740868450E+02  0.13649618111E+03  0.00000000000E+00 0.  1.
         22    1    3    3    0    0  0.28850269640E+02  0.43927376384E+02 -0.31539270009E+02  0.61291745015E+02  0.00000000000E+00 0.  1.
</event>
<event>
 7    1  0.6510186E-006  0.1590703E+03  0.7818608E-02  0.1237606E+00
          2   -1    0    0  502    0  0.00000000000E+00  0.00000000000E+00  0.63366523429E+03  0.63366523429E+03  0.00000000000E+00 0. -1.
          1   -1    0    0  501    0 -0.00000000000E+00 -0.00000000000E+00 -0.10102685848E+04  0.10102685848E+04  0.00000000000E+00 0. -1.
         25    2    1    2    0    0 -0.14405902927E+03 -0.63420381614E+02  0.10214981961E+03  0.22543996549E+03  0.12495376616E+03 0.  0.
          2    1    1    2  501    0  0.57237319144E+02 -0.76714748482E+02 -0.93163650153E+03  0.93654035381E+03  0.00000000000E+00 0. -1.
          1    1    1    2  502    0  0.86821710122E+02  0.14013513010E+03  0.45288333144E+03  0.48195349976E+03  0.00000000000E+00 0. -1.
         22    1    3    3    0    0 -0.12472502156E+03 -0.64830859184E+02  0.21146993915E+02  0.14214980358E+03  0.00000000000E+00 0. -1.
         22    1    3    3    0    0 -0.19334007701E+02  0.14104775699E+01  0.81002825693E+02  0.83290161910E+02  0.00000000000E+00 0. -1.
</event>
<event>
 7    1  0.6510186E-006  0.5391788E+02  0.7818608E-02  0.1452762E+00
          2   -1    0    0  502    0  0.00000000000E+00  0.00000000000E+00  0.14391041326E+04  0.14391041326E+04  0.00000000000E+00 0. -1.
          1   -1    0    0  501    0 -0.00000000000E+00 -0.00000000000E+00 -0.50349292914E+03  0.50349292914E+03  0.00000000000E+00 0. -1.
         25    2    1    2    0    0  0.78101275442E+02  0.50162772899E+02  0.42777036251E+03  0.45522239588E+03  0.12499533454E+03 0.  0.
          2    1    1    2  501    0 -0.42073618086E+02 -0.12520069140E+02 -0.48810090019E+03  0.49007084205E+03  0.00000000000E+00 0. -1.
          1    1    1    2  502    0 -0.36027657356E+02 -0.37642703759E+02  0.99594174118E+03  0.99730382385E+03  0.00000000000E+00 0. -1.
         22    1    3    3    0    0  0.35361601091E+02  0.51632142910E+01  0.36572047013E+03  0.36746232988E+03  0.00000000000E+00 0.  1.
         22    1    3    3    0    0  0.42739674352E+02  0.44999558608E+02  0.62049892385E+02  0.87760065996E+02  0.00000000000E+00 0.  1.
</event>
<event>
 7    1  0.6510186E-006  0.2244412E+03  0.7818608E-02  0.1240463E+00
          2   -1    0    0  502    0  0.00000000000E+00  0.00000000000E+00  0.92482944958E+03  0.92482944958E+03  0.00000000000E+00 0. -1.
          1   -1    0    0  501    0 -0.00000000000E+00 -0.00000000000E+00 -0.26525485045E+03  0.26525485045E+03  0.00000000000E+00 0. -1.
         25    2    1    2    0    0  0.25326310880E+03  0.71124256617E+02  0.29045836877E+03  0.41133018750E+03  0.12500238798E+03 0.  0.
          2    1    1    2  501    0 -0.21816925777E+03 -0.15353935885E+02 -0.14371866141E+03  0.26170330915E+03  0.00000000000E+00 0. -1.
          1    1    1    2  502    0 -0.35093851029E+02 -0.55770320732E+02  0.51283489177E+03  0.51705080338E+03  0.00000000000E+00 0. -1.
         22    1    3    3    0    0  0.12856816341E+03 -0.21834618025E+02  0.93986970180E+02  0.16074847978E+03  0.00000000000E+00 0.  1.
         22    1    3    3    0    0  0.12469494539E+03  0.92958874642E+02  0.19647139859E+03  0.25058170772E+03  0.00000000000E+00 0.  1.
</event>
<event>
 7    1  0.6510186E-006  0.9936652E+02  0.7818608E-02  0.1296197E+00
          2   -1    0    0  502    0  0.00000000000E+00  0.00000000000E+00  0.21014247449E+04  0.21014247449E+04  0.00000000000E+00 0. -1.
          1   -1    0    0  501    0 -0.00000000000E+00 -0.00000000000E+00 -0.43281064920E+03  0.43281064920E+03  0.00000000000E+00 0. -1.
         25    2    1    2    0    0  0.94179248770E+02  0.82296916940E+02 -0.30076946759E+02  0.17936888107E+03  0.12500423726E+03 0.  0.
          2    1    1    2  501    0 -0.85043854990E+02  0.16746593900E+02 -0.32111776864E+03  0.33261017274E+03  0.00000000000E+00 0. -1.
          1    1    1    2  502    0 -0.91353937802E+01 -0.99043510840E+02  0.20198088111E+04  0.20222563403E+04  0.00000000000E+00 0. -1.
         22    1    3    3    0    0  0.12454932480E+03  0.65038097468E+02 -0.14944337228E+02  0.14130046583E+03  0.00000000000E+00 0.  1.
         22    1    3    3    0    0 -0.30370076026E+02  0.17258819472E+02 -0.15132609531E+02  0.38068415237E+02  0.00000000000E+00 0.  1.
</event>
<event>
 7    1  0.6510186E-006  0.1274406E+03  0.7818608E-02  0.1330128E+00
          2   -1    0    0  502    0  0.00000000000E+00  0.00000000000E+00  0.23445128840E+04  0.23445128840E+04  0.00000000000E+00 0. -1.
          1   -1    0    0  501    0 -0.00000000000E+00 -0.00000000000E+00 -0.37318430480E+03  0.37318430480E+03  0.00000000000E+00 0. -1.
         25    2    1    2    0    0  0.11266189738E+03  0.31414756860E+02 -0.10430822490E+03  0.20046282994E+03  0.12500220133E+03 0.  0.
          2    1    1    2  501    0  0.13958519011E+02 -0.47747139827E+02 -0.21619752614E+03  0.22184679381E+03  0.00000000000E+00 0. -1.
          1    1    1    2  502    0 -0.12662041639E+03  0.16332382967E+02  0.22918343302E+04  0.22953875650E+04  0.00000000000E+00 0. -1.
         22    1    3    3    0    0  0.10627117959E+03  0.40949336354E+02 -0.12969529859E+03  0.17260151284E+03  0.00000000000E+00 0. -1.
         22    1    3    3    0    0  0.63907177865E+01 -0.95345794937E+01  0.25387073692E+02  0.27861317101E+02  0.00000000000E+00 0. -1.
</event>
<event>
 7    1  0.6510186E-006  0.4398588E+02  0.7818608E-02  0.1582584E+00
          2   -1    0    0  502    0  0.00000000000E+00  0.00000000000E+00  0.77592094544E+02  0.77592094544E+02  0.00000000000E+00 0. -1.
          1   -1    0    0  501    0 -0.00000000000E+00 -0.00000000000E+00 -0.44771845419E+03  0.44771845419E+03  0.00000000000E+00 0. -1.
         25    2    1    2    0    0 -0.59089980613E+02  0.24441620797E+02 -0.73584158641E+02  0.15852126593E+03  0.12500137884E+03 0.  0.
          2    1    1    2  501    0  0.42290794226E+02 -0.94917273124E+01 -0.32648095854E+03  0.32934544244E+03  0.00000000000E+00 0. -1.
          1    1    1    2  502    0  0.16799186387E+02 -0.14949893484E+02  0.29938757539E+02  0.37443840367E+02  0.00000000000E+00 0. -1.
         22    1    3    3    0    0 -0.57859010170E+02 -0.37032433356E+01  0.19577217723E+02  0.61193517000E+02  0.00000000000E+00 0. -1.
         22    1    3    3    0    0 -0.12309704432E+01  0.28144864132E+02 -0.93161376364E+02  0.97327748927E+02  0.00000000000E+00 0. -1.
</event>
<event>
 7    1  0.6510186E-006  0.9704304E+02  0.7818608E-02  0.1361353E+00
          2   -1    0    0  502    0  0.00000000000E+00  0.00000000000E+00  0.17423817721E+04  0.17423817721E+04  0.00000000000E+00 0. -1.
          1   -1    0    0  501    0 -0.00000000000E+00 -0.00000000000E+00 -0.18545279681E+03  0.18545279681E+03  0.00000000000E+00 0. -1.
         25    2    1    2    0    0 -0.14465079712E+02 -0.13987059271E+03  0.16967898144E+03  0.25335301599E+03  0.12499509082E+03 0.  0.
          2    1    1    2  501    0  0.22445172524E+02  0.44636221173E+02 -0.13772899929E+03  0.14651093903E+03  0.00000000000E+00 0. -1.
          1    1    1    2  502    0 -0.79800928112E+01  0.95234371540E+02  0.15249789932E+04  0.15279706139E+04  0.00000000000E+00 0. -1.
         22    1    3    3    0    0 -0.16805721620E+02  0.11759869964E+02 -0.59067774284E+01  0.21345183071E+02  0.00000000000E+00 0. -1.
         22    1    3    3    0    0  0.23406419079E+01 -0.15163046268E+03  0.17558575887E+03  0.23200783292E+03  0.00000000000E+00 0. -1.
</event>
<event>
 7    1  0.6510186E-006  0.5661336E+02  0.7818608E-02  0.1474759E+00
          2   -1    0    0  502    0  0.00000000000E+00  0.00000000000E+00  0.33005584930E+03  0.33005584930E+03  0.00000000000E+00 0. -1.
          1   -1    0    0  501    0 -0.00000000000E+00 -0.00000000000E+00 -0.15692916537E+04  0.15692916537E+04  0.00000000000E+00 0. -1.
         25    2    1    2    0    0  0.19962985030E+02  0.88675145342E+02 -0.22271068955E+03  0.27108982676E+03  0.12501136253E+03 0.  0.
          2    1    1    2  501    0 -0.74175800860E+01 -0.55291804538E+02 -0.13207610252E+04  0.13219386861E+04  0.00000000000E+00 0. -1.
          1    1    1    2  502    0 -0.12545404944E+02 -0.33383340804E+02  0.30423591030E+03  0.30631899018E+03  0.00000000000E+00 0. -1.
         22    1    3    3    0    0  0.43401991675E+02  0.94478335388E+02 -0.22395361599E+03  0.24691113959E+03  0.00000000000E+00 0. -1.
         22    1    3    3    0    0 -0.23439006645E+02 -0.58031900461E+01  0.12429264391E+01  0.24178687171E+02  0.00000000000E+00 0. -1.
</event>
<event>
 7    1  0.6510186E-006  0.9305448E+02  0.7818608E-02  0.1393660E+00
          2   -1    0    0  502    0  0.00000000000E+00  0.00000000000E+00  0.24583229770E+04  0.24583229770E+04  0.00000000000E+00 0. -1.
          1   -1    0    0  501    0 -0.00000000000E+00 -0.00000000000E+00 -0.79225935015E+02  0.79225935015E+02  0.00000000000E+00 0. -1.
         25    2    1    2    0    0 -0.92547922772E+02 -0.44181956777E+02  0.65484961032E+03  0.67451446082E+03  0.12499832961E+03 0.  0.
          2    1    1    2  501    0  0.61656850634E+02  0.69584806979E+02 -0.37924608808E+02  0.10040860793E+03  0.00000000000E+00 0. -1.
          1    1    1    2  502    0  0.30891072138E+02 -0.25402850202E+02  0.17621720404E+04  0.17626258432E+04  0.00000000000E+00 0. -1.
         22    1    3    3    0    0  0.28877572400E+02 -0.60689612183E+01  0.20115989166E+03  0.20331268649E+03  0.00000000000E+00 0. -1.
         22    1    3    3    0    0 -0.12142549517E+03 -0.38112995559E+02  0.45368971866E+03  0.47120177432E+03  0.00000000000E+00 0. -1.
</event>
<event>
 7    1  0.6510186E-006  0.5603486E+02  0.7818608E-02  0.1437677E+00
          2   -1    0    0  502    0  0.00000000000E+00  0.00000000000E+00  0.30134383748E+04  0.30134383748E+04  0.00000000000E+00 0. -1.
          1   -1    0    0  501    0 -0.00000000000E+00 -0.00000000000E+00 -0.41285169456E+02  0.41285169456E+02  0.00000000000E+00 0. -1.
         25    2    1    2    0    0  0.92177880081E+02 -0.15237536864E+02  0.20582912647E+04  0.20641988815E+04  0.12500059178E+03 0.  0.
          2    1    1    2  501    0 -0.54222790876E+02 -0.12886086274E+02 -0.17152390111E+02  0.58312663773E+02  0.00000000000E+00 0. -1.
          1    1    1    2  502    0 -0.37955089206E+02  0.28123623138E+02  0.93101433080E+03  0.93221199902E+03  0.00000000000E+00 0. -1.
         22    1    3    3    0    0  0.68460320791E+02 -0.76243203017E+01  0.19949033602E+04  0.19960922730E+04  0.00000000000E+00 0. -1.
         22    1    3    3    0    0  0.23717559290E+02 -0.76132165621E+01  0.63387904512E+02  0.68106608516E+02  0.00000000000E+00 0. -1.
</event>
<event>
 7    1  0.6510186E-006  0.1093844E+03  0.7818608E-02  0.1289519E+00
          2   -1    0    0  502    0  0.00000000000E+00  0.00000000000E+00  0.12408397565E+04  0.12408397565E+04  0.00000000000E+00 0. -1.
          1   -1    0    0  501    0 -0.00000000000E+00 -0.00000000000E+00 -0.28121480441E+03  0.28121480441E+03  0.00000000000E+00 0. -1.
         25    2    1    2    0    0  0.28311763602E+02 -0.11371835000E+02  0.42395176009E+03  0.44304734833E+03  0.12499993356E+03 0.  0.
          2    1    1    2  501    0  0.47504016592E+02  0.98530831339E+02 -0.25629347687E+03  0.27865983314E+03  0.00000000000E+00 0. -1.
          1    1    1    2  502    0 -0.75815780195E+02 -0.87158996339E+02  0.79196666886E+03  0.80034737943E+03  0.00000000000E+00 0. -1.
         22    1    3    3    0    0 -0.11378656764E+02  0.40074744491E+02  0.30205034206E+03  0.30490960647E+03  0.00000000000E+00 0.  1.
         22    1    3    3    0    0  0.39690420366E+02 -0.51446579490E+02  0.12190141803E+03  0.13813774187E+03  0.00000000000E+00 0.  1.
</event>
<event>
 7    1  0.6510186E-006  0.4189720E+02  0.7818608E-02  0.1570326E+00
          2   -1    0    0  502    0  0.00000000000E+00  0.00000000000E+00  0.60279719202E+03  0.60279719202E+03  0.00000000000E+00 0. -1.
          1   -1    0    0  501    0 -0.00000000000E+00 -0.00000000000E+00 -0.13173163431E+03  0.13173163431E+03  0.00000000000E+00 0. -1.
         25    2    1    2    0    0 -0.24797868410E+01  0.19629269359E+02  0.15755469695E+03  0.20208884354E+03  0.12499984238E+03 0.  0.
          2    1    1    2  501    0  0.21467770482E+02 -0.36611302660E+02 -0.10494883969E+03  0.11320561649E+03  0.00000000000E+00 0. -1.
          1    1    1    2  502    0 -0.18987983641E+02  0.16982033301E+02  0.41845970046E+03  0.41923436630E+03  0.00000000000E+00 0. -1.
         22    1    3    3    0    0 -0.34021144536E+02  0.14965062452E+02  0.16517628070E+03  0.16930621689E+03  0.00000000000E+00 0.  1.
         22    1    3    3    0    0  0.31541357695E+02  0.46642069062E+01 -0.76215837564E+01  0.32782626653E+02  0.00000000000E+00 0.  1.
</event>
<event>
 7    1  0.6510186E-006  0.8571391E+02  0.7818608E-02  0.1365147E+00
          2   -1    0    0  502    0  0.00000000000E+00  0.00000000000E+00  0.18730161934E+04  0.18730161934E+04  0.00000000000E+00 0. -1.
          1   -1    0    0  501    0 -0.00000000000E+00 -0.00000000000E+00 -0.64615758658E+03  0.64615758658E+03  0.00000000000E+00 0. -1.
         25    2    1    2    0    0  0.11400808647E+03 -0.40914494977E+02 -0.14100678203E+03  0.22401295931E+03  0.12500821444E+03 0.  0.
          2    1    1    2  501    0 -0.61400493891E+02  0.56255799750E+02 -0.45949443919E+03  0.46697952343E+03  0.00000000000E+00 0. -1.
          1    1    1    2  502    0 -0.52607592582E+02 -0.15341304773E+02  0.18273598281E+04  0.18281812973E+04  0.00000000000E+00 0. -1.
         22    1    3    3    0    0  0.57433896777E+02  0.17343674046E+02  0.14752773216E+01  0.60013598223E+02  0.00000000000E+00 0.  1.
         22    1    3    3    0    0  0.56574189696E+02 -0.58258169023E+02 -0.14248205936E+03  0.16399936108E+03  0.00000000000E+00 0.  1.
</event>
<event>
 7    1  0.6510186E-006  0.8843380E+02  0.7818608E-02  0.1318255E+00
          2   -1    0    0  502    0  0.00000000000E+00  0.00000000000E+00  0.25564994450E+04  0.25564994450E+04  0.00000000000E+00 0. -1.
          1   -1    0    0  501    0 -0.00000000000E+00 -0.00000000000E+00 -0.58638114329E+02  0.58638114329E+02  0.00000000000E+00 0. -1.
         25    2    1    2    0    0 -0.11865578443E+03 -0.10521849830E+03  0.64663601384E+03  0.67743209264E+03  0.12500391263E+03 0.  0.
          2    1    1    2  501    0  0.71369167449E+02  0.35374786372E+02 -0.47669928514E+01  0.79797605190E+02  0.00000000000E+00 0. -1.
          1    1    1    2  502    0  0.47286616977E+02  0.69843711930E+02  0.18559923097E+04  0.18579078615E+04  0.00000000000E+00 0. -1.
         22    1    3    3    0    0 -0.73699820860E+02 -0.12882388615E+03  0.42886709857E+03  0.45382182128E+03  0.00000000000E+00 0. -1.
         22    1    3    3    0    0 -0.44955963565E+02  0.23605387848E+02  0.21776891528E+03  0.22361027136E+03  0.00000000000E+00 0. -1.
</event>
<event>
 7    1  0.7144701E-006  0.1642265E+03  0.7818608E-02  0.1212090E+00
          2   -1    0    0  502    0  0.00000000000E+00  0.00000000000E+00  0.25649169786E+04  0.25649169786E+04  0.00000000000E+00 0. -1.
          1   -1    0    0  501    0 -0.00000000000E+00 -0.00000000000E+00 -0.97656091271E+03  0.97656091271E+03  0.00000000000E+00 0. -1.
         25    2    1    2    0    0 -0.13279842256E+03  0.10844847138E+03 -0.11663259730E+03  0.24212437685E+03  0.12499823653E+03 0.  0.
          2    1    1    2  501    0 -0.31773953460E+02 -0.11668103625E+03 -0.78986274236E+03  0.79906645537E+03  0.00000000000E+00 0. -1.
          1    1    1    2  502    0  0.16457237602E+03  0.82325648749E+01  0.24948514056E+04  0.25002870591E+04  0.00000000000E+00 0. -1.
         22    1    3    3    0    0 -0.13785580095E+03  0.88735491310E+02 -0.13676212644E+03  0.21349962178E+03  0.00000000000E+00 0. -1.
         22    1    3    3    0    0  0.50573783855E+01  0.19712980067E+02  0.20129529144E+02  0.28624755070E+02  0.00000000000E+00 0. -1.
</event>
<event>
 7    1  0.6510186E-006  0.6996638E+02  0.7818608E-02  0.1361115E+00
          2   -1    0    0  502    0  0.00000000000E+00  0.00000000000E+00  0.15995094351E+03  0.15995094351E+03  0.00000000000E+00 0. -1.
          1   -1    0    0  501    0 -0.00000000000E+00 -0.00000000000E+00 -0.31861095160E+04  0.31861095160E+04  0.00000000000E+00 0. -1.
         25    2    1    2    0    0  0.12919280913E+02  0.19784336278E+02  0.18486082382E+00  0.12721338850E+03  0.12499953703E+03 0.  0.
          2    1    1    2  501    0 -0.29583179882E+02  0.63404488443E+02 -0.31034281315E+04  0.31042167226E+04  0.00000000000E+00 0. -1.
          1    1    1    2  502    0  0.16663898968E+02 -0.83188824721E+02  0.77084698152E+02  0.11463034841E+03  0.00000000000E+00 0. -1.
         22    1    3    3    0    0  0.46551691314E+02 -0.12986436058E+02 -0.42045705837E+02  0.64058948360E+02  0.00000000000E+00 0.  1.
         22    1    3    3    0    0 -0.33632410401E+02  0.32770772336E+02  0.42230566661E+02  0.63154440140E+02  0.00000000000E+00 0.  1.
</event>
<event>
 7    1  0.6510186E-006  0.3486686E+02  0.7818608E-02  0.1614816E+00
          2   -1    0    0  502    0  0.00000000000E+00  0.00000000000E+00  0.10964684896E+04  0.10964684896E+04  0.00000000000E+00 0. -1.
          1   -1    0    0  501    0 -0.00000000000E+00 -0.00000000000E+00 -0.37160362772E+03  0.37160362772E+03  0.00000000000E+00 0. -1.
         25    2    1    2    0    0  0.46893726739E+01 -0.19722614914E+02  0.52657910957E+03  0.54159416519E+03  0.12501083704E+03 0.  0.
          2    1    1    2  501    0  0.23069352871E+02 -0.36767700739E+01 -0.36313446427E+03  0.36388508189E+03  0.00000000000E+00 0. -1.
          1    1    1    2  502    0 -0.27758725545E+02  0.23399384987E+02  0.56142021654E+03  0.56259287020E+03  0.00000000000E+00 0. -1.
         22    1    3    3    0    0 -0.56929392565E+02  0.66484094447E+01  0.29472960610E+03  0.30025105795E+03  0.00000000000E+00 0.  1.
         22    1    3    3    0    0  0.61618765239E+02 -0.26371024358E+02  0.23184950347E+03  0.24134310725E+03  0.00000000000E+00 0.  1.
</event>
<event>
 7    1  0.6510186E-006  0.1172650E+03  0.7818608E-02  0.1327117E+00
          2   -1    0    0  502    0  0.00000000000E+00  0.00000000000E+00  0.22485887998E+04  0.22485887998E+04  0.00000000000E+00 0. -1.
          1   -1    0    0  501    0 -0.00000000000E+00 -0.00000000000E+00 -0.11571368036E+03  0.11571368036E+03  0.00000000000E+00 0. -1.
         25    2    1    2    0    0  0.15901320883E+03 -0.63608470931E+01  0.39800845879E+03  0.44649890852E+03  0.12499952433E+03 0.  0.
          2    1    1    2  501    0 -0.46935057057E+02  0.29650982936E+02 -0.81073024364E+02  0.98259430334E+02  0.00000000000E+00 0. -1.
          1    1    1    2  502    0 -0.11207815177E+03 -0.23290135843E+02  0.18159396850E+04  0.18195441413E+04  0.00000000000E+00 0. -1.
         22    1    3    3    0    0 -0.96690206503E+01  0.16731272852E+02  0.11196888021E+03  0.11362418575E+03  0.00000000000E+00 0. -1.
         22    1    3    3    0    0  0.16868222948E+03 -0.23092119945E+02  0.28603957858E+03  0.33287472277E+03  0.00000000000E+00 0. -1.
</event>
<event>
 7    1  0.6510186E-006  0.6827430E+02  0.7818608E-02  0.1388874E+00
          2   -1    0    0  502    0  0.00000000000E+00  0.00000000000E+00  0.37370909393E+03  0.37370909393E+03  0.00000000000E+00 0. -1.
          1   -1    0    0  501    0 -0.00000000000E+00 -0.00000000000E+00 -0.36003403147E+03  0.36003403147E+03  0.00000000000E+00 0. -1.
         25    2    1    2    0    0  0.26859808331E+02 -0.57549266588E+02 -0.14998695849E+03  0.20529773909E+03  0.12497082287E+03 0.  0.
          2    1    1    2  501    0 -0.71032168262E+02  0.22090726152E+02 -0.17233650523E+03  0.18770572752E+03  0.00000000000E+00 0. -1.
          1    1    1    2  502    0  0.44172359931E+02  0.35458540435E+02  0.33599852618E+03  0.34073965878E+03  0.00000000000E+00 0. -1.
         22    1    3    3    0    0  0.46823236007E+02 -0.19620358302E+02 -0.15409203712E+03  0.16223972940E+03  0.00000000000E+00 0. -1.
         22    1    3    3    0    0 -0.19963427676E+02 -0.37928908285E+02  0.41050786279E+01  0.43058009694E+02  0.00000000000E+00 0. -1.
</event>
<event>
 7    1  0.6510186E-006  0.3887103E+03  0.7818608E-02  0.1120250E+00
          2   -1    0    0  502    0  0.00000000000E+00  0.00000000000E+00  0.86296866683E+03  0.86296866683E+03  0.00000000000E+00 0. -1.
          1   -1    0    0  501    0 -0.00000000000E+00 -0.00000000000E+00 -0.31534060097E+03  0.31534060097E+03  0.00000000000E+00 0. -1.
         25    2    1    2    0    0 -0.18898871767E+03 -0.31250326621E+03  0.21770906532E+03  0.44316293613E+03  0.12498449522E+03 0.  0.
          2    1    1    2  501    0  0.10983068210E+03 -0.98211764727E+02 -0.63948340962E+02  0.16061668585E+03  0.00000000000E+00 0. -1.
          1    1    1    2  502    0  0.79158035571E+02  0.41071503094E+03  0.39386734150E+03  0.57452964583E+03  0.00000000000E+00 0. -1.
         22    1    3    3    0    0 -0.86731088691E+02 -0.14723499340E+03  0.31015511684E+02  0.17367321899E+03  0.00000000000E+00 0. -1.
         22    1    3    3    0    0 -0.10225762898E+03 -0.16526827280E+03  0.18669355363E+03  0.26948971715E+03  0.00000000000E+00 0. -1.
</event>
<event>
 7    1  0.6510186E-006  0.1472428E+03  0.7818608E-02  0.1236482E+00
          2   -1    0    0  502    0  0.00000000000E+00  0.00000000000E+00  0.13669801644E+04  0.13669801644E+04  0.00000000000E+00 0. -1.
          1   -1    0    0  501    0 -0.00000000000E+00 -0.00000000000E+00 -0.13876012766E+04  0.13876012766E+04  0.00000000000E+00 0. -1.
         25    2    1    2    0    0 -0.16172720922E+02 -0.23283480538E+03 -0.33981634408E+03  0.43078283628E+03  0.12500040334E+03 0.  0.
          2    1    1    2  501    0 -0.24695999954E+02  0.13655472331E+03 -0.99541128712E+03  0.10050376686E+04  0.00000000000E+00 0. -1.
          1    1    1    2  502    0  0.40868720877E+02  0.96280082067E+02  0.13146065190E+04  0.13187609361E+04  0.00000000000E+00 0. -1.
         22    1    3    3    0    0  0.46675646274E+02 -0.40536894487E+02 -0.67353337269E+02  0.91423890811E+02  0.00000000000E+00 0. -1.
         22    1    3    3    0    0 -0.62848367196E+02 -0.19229791089E+03 -0.27246300681E+03  0.33935894547E+03  0.00000000000E+00 0. -1.
</event>
<event>
 7    1  0.6510186E-006  0.6752536E+02  0.7818608E-02  0.1428082E+00
          2   -1    0    0  502    0  0.00000000000E+00  0.00000000000E+00  0.16032403661E+04  0.16032403661E+04  0.00000000000E+00 0. -1.
          1   -1    0    0  501    0 -0.00000000000E+00 -0.00000000000E+00 -0.20464768092E+03  0.20464768092E+03  0.00000000000E+00 0. -1.
         25    2    1    2    0    0 -0.29687097849E+02 -0.10039400181E+03  0.75800582401E+03  0.77534351096E+03  0.12499780551E+03 0.  0.
          2    1    1    2  501    0  0.33362667839E+02  0.58408881353E+02 -0.18965665536E+03  0.20123198540E+03  0.00000000000E+00 0. -1.
          1    1    1    2  502    0 -0.36755699897E+01  0.41985120457E+02  0.83024351653E+03  0.83131255067E+03  0.00000000000E+00 0. -1.
         22    1    3    3    0    0  0.18767460510E+02 -0.16329954882E+02  0.22744261494E+02  0.33707364646E+02  0.00000000000E+00 0.  1.
         22    1    3    3    0    0 -0.48454558359E+02 -0.84064046928E+02  0.73526156252E+03  0.74163614632E+03  0.00000000000E+00 0.  1.
</event>
<event>
 7    1  0.6510186E-006  0.1184170E+03  0.7818608E-02  0.1318016E+00
          2   -1    0    0  502    0  0.00000000000E+00  0.00000000000E+00  0.35482271801E+03  0.35482271801E+03  0.00000000000E+00 0. -1.
          1   -1    0    0  501    0 -0.00000000000E+00 -0.00000000000E+00 -0.13241826163E+04  0.13241826163E+04  0.00000000000E+00 0. -1.
         25    2    1    2    0    0  0.81029262473E+02  0.15358300265E+03 -0.19305575932E+03  0.28818210564E+03  0.12499967891E+03 0.  0.
          2    1    1    2  501    0 -0.38025256610E+02 -0.45912439989E+02 -0.10717685377E+04  0.10734252050E+04  0.00000000000E+00 0. -1.
          1    1    1    2  502    0 -0.43004005863E+02 -0.10767056266E+03  0.29546439868E+03  0.31739802373E+03  0.00000000000E+00 0. -1.
         22    1    3    3    0    0 -0.26546620877E+02  0.77229033651E+02 -0.82196431989E+02  0.11586759750E+03  0.00000000000E+00 0.  1.
         22    1    3    3    0    0  0.10757588335E+03  0.76353969002E+02 -0.11085932733E+03  0.17231450814E+03  0.00000000000E+00 0.  1.
</event>
<event>
 7    1  0.6510186E-006  0.4311732E+02  0.7818608E-02  0.1496781E+00
          2   -1    0    0  502    0  0.00000000000E+00  0.00000000000E+00  0.59841348145E+03  0.59841348145E+03  0.00000000000E+00 0. -1.
          1   -1    0    0  501    0 -0.00000000000E+00 -0.00000000000E+00 -0.55667214619E+02  0.55667214619E+02  0.00000000000E+00 0. -1.
         25    2    1    2    0    0 -0.29073576596E+02  0.51107313972E+02  0.17941421030E+03  0.22643321405E+03  0.12500124467E+03 0.  0.
          2    1    1    2  501    0  0.41081138218E+02 -0.12816628373E+02 -0.16213054350E+02  0.45986835198E+02  0.00000000000E+00 0. -1.
          1    1    1    2  502    0 -0.12007561622E+02 -0.38290685599E+02  0.37954511088E+03  0.38166064683E+03  0.00000000000E+00 0. -1.
         22    1    3    3    0    0  0.12861725520E+02 -0.19227307986E+02  0.12726532692E+03  0.12935059641E+03  0.00000000000E+00 0.  1.
         22    1    3    3    0    0 -0.41935302116E+02  0.70334621958E+02  0.52148883379E+02  0.97082617637E+02  0.00000000000E+00 0.  1.
</event>
<event>
 7    1  0.6510186E-006  0.8203616E+02  0.7818608E-02  0.1324329E+00
          2   -1    0    0  502    0  0.00000000000E+00  0.00000000000E+00  0.26695155806E+03  0.26695155806E+03  0.00000000000E+00 0. -1.
          1   -1    0    0  501    0 -0.00000000000E+00 -0.00000000000E+00 -0.43983667285E+03  0.43983667285E+03  0.00000000000E+00 0. -1.
         25    2    1    2    0    0  0.23665202893E+02  0.24693334202E+02 -0.17859088867E+03  0.22065597922E+03  0.12499821226E+03 0.  0.
          2    1    1    2  501    0 -0.95054594439E+02 -0.63678717781E+02 -0.21903922710E+03  0.24712049294E+03  0.00000000000E+00 0. -1.
          1    1    1    2  502    0  0.71389391546E+02  0.38985383578E+02  0.22474500097E+03  0.23901175875E+03  0.00000000000E+00 0. -1.
         22    1    3    3    0    0  0.53025860284E+02 -0.47769285478E+01 -0.20282622403E+02  0.56973201391E+02  0.00000000000E+00 0. -1.
         22    1    3    3    0    0 -0.29360657391E+02  0.29470262750E+02 -0.15830826627E+03  0.16368277783E+03  0.00000000000E+00 0. -1.
</event>
<event>
 7    1  0.6510186E-006  0.6373212E+02  0.7818608E-02  0.1456068E+00
          2   -1    0    0  502    0  0.00000000000E+00  0.00000000000E+00  0.46702428574E+03  0.46702428574E+03  0.00000000000E+00 0. -1.
          1   -1    0    0  501    0 -0.00000000000E+00 -0.00000000000E+00 -0.20620704699E+03  0.20620704699E+03  0.00000000000E+00 0. -1.
         25    2    1    2    0    0  0.14347008615E+02  0.24710688786E+02  0.16724168681E+03  0.21074219330E+03  0.12500414165E+03 0.  0.
          2    1    1    2  501    0 -0.30788602964E+02 -0.57016348323E+02 -0.17752220962E+03  0.18897866799E+03  0.00000000000E+00 0. -1.
          1    1    1    2  502    0  0.16441594349E+02  0.32305659537E+02  0.27109776156E+03  0.27351047144E+03  0.00000000000E+00 0. -1.
         22    1    3    3    0    0  0.14339074755E+02 -0.42737101769E+02  0.12056938395E+03  0.12872080360E+03  0.00000000000E+00 0.  1.
         22    1    3    3    0    0  0.79338604855E-02  0.67447790555E+02  0.46672302864E+02  0.82021389700E+02  0.00000000000E+00 0.  1.
</event>
<event>
 7    1  0.6510186E-006  0.6331668E+02  0.7818608E-02  0.1423943E+00
          2   -1    0    0  502    0  0.00000000000E+00  0.00000000000E+00  0.14573175751E+04  0.14573175751E+04  0.00000000000E+00 0. -1.
          1   -1    0    0  501    0 -0.00000000000E+00 -0.00000000000E+00 -0.11400101736E+03  0.11400101736E+03  0.00000000000E+00 0. -1.
         25    2    1    2    0    0 -0.54120647239E+02  0.49356007180E+02  0.22699332072E+03  0.26928885646E+03  0.12500184262E+03 0.  0.
          2    1    1    2  501    0  0.44399664317E+02  0.13435807513E+02 -0.86167969054E+02  0.97860972843E+02  0.00000000000E+00 0. -1.
          1    1    1    2  502    0  0.97209829220E+01 -0.62791814692E+02  0.12024912061E+04  0.12041687632E+04  0.00000000000E+00 0. -1.
         22    1    3    3    0    0 -0.37227571679E+02 -0.23983901438E+02  0.16778303687E+03  0.17352886527E+03  0.00000000000E+00 0.  1.
         22    1    3    3    0    0 -0.16893075560E+02  0.73339908617E+02  0.59210283853E+02  0.95759991185E+02  0.00000000000E+00 0.  1.
</event>
<event>
 7    1  0.6510186E-006  0.1928828E+03  0.7818608E-02  0.1226880E+00
          2   -1    0    0  502    0  0.00000000000E+00  0.00000000000E+00  0.31397443184E+04  0.31397443184E+04  0.00000000000E+00 0. -1.
          1   -1    0    0  501    0 -0.00000000000E+00 -0.00000000000E+00 -0.68363473833E+03  0.68363473833E+03  0.00000000000E+00 0. -1.
         25    2    1    2    0    0 -0.12777701929E+03  0.69507300643E+02  0.78232554048E+03  0.80549127939E+03  0.12499887352E+03 0.  0.
          2    1    1    2  501    0  0.19365405703E+03 -0.10946194094E+02 -0.65720645692E+03  0.68523137698E+03  0.00000000000E+00 0. -1.
          1    1    1    2  502    0 -0.65877037745E+02 -0.58561106549E+02  0.23309904965E+04  0.23326564004E+04  0.00000000000E+00 0. -1.
         22    1    3    3    0    0 -0.73954565862E+02 -0.72137178253E+01  0.54966737081E+03  0.55466704794E+03  0.00000000000E+00 0.  1.
         22    1    3    3    0    0 -0.53822453428E+02  0.76721018469E+02  0.23265816968E+03  0.25082423145E+03  0.00000000000E+00 0.  1.
</event>
<event>
 7    1  0.6510186E-006  0.9052559E+02  0.7818608E-02  0.1388113E+00
          2   -1    0    0  502    0  0.00000000000E+00  0.00000000000E+00  0.15407861755E+03  0.15407861755E+03  0.00000000000E+00 0. -1.
          1   -1    0    0  501    0 -0.00000000000E+00 -0.00000000000E+00 -0.68909515579E+03  0.68909515579E+03  0.00000000000E+00 0. -1.
         25    2    1    2    0    0  0.11749669364E+03  0.64724433645E+01 -0.41731376394E+03  0.45124629428E+03  0.12500029996E+03 0.  0.
          2    1    1    2  501    0 -0.30830959900E+02 -0.29950101272E+02 -0.23798058496E+03  0.24183117143E+03  0.00000000000E+00 0. -1.
          1    1    1    2  502    0 -0.86665733745E+02  0.23477657907E+02  0.12027781066E+03  0.15009630763E+03  0.00000000000E+00 0. -1.
         22    1    3    3    0    0 -0.17075635863E+02  0.12909843771E+02 -0.15386516323E+03  0.15534712698E+03  0.00000000000E+00 0.  1.
         22    1    3    3    0    0  0.13457232951E+03 -0.64374004068E+01 -0.26344860071E+03  0.29589916730E+03  0.00000000000E+00 0.  1.
</event>
<event>
 7    1  0.6510186E-006  0.2275210E+03  0.7818608E-02  0.1337829E+00
          2   -1    0    0  502    0  0.00000000000E+00  0.00000000000E+00  0.30120105422E+04  0.30120105422E+04  0.00000000000E+00 0. -1.
          1   -1    0    0  501    0 -0.00000000000E+00 -0.00000000000E+00 -0.28495271958E+02  0.28495271958E+02  0.00000000000E+00 0. -1.
         25    2    1    2    0    0  0.13597105773E+03  0.18364121059E+03  0.10708595824E+04  0.11020817208E+04  0.12502660224E+03 0.  0.
          2    1    1    2  501    0 -0.15521541719E+03 -0.16608458242E+03  0.10047543538E+04  0.10301491279E+04  0.00000000000E+00 0. -1.
          1    1    1    2  502    0  0.19244359460E+02 -0.17556628164E+02  0.90790133402E+03  0.90827496546E+03  0.00000000000E+00 0. -1.
         22    1    3    3    0    0  0.12939806359E+03  0.98010983514E+02  0.84488496431E+03  0.86033750045E+03  0.00000000000E+00 0. -1.
         22    1    3    3    0    0  0.65729941415E+01  0.85630227072E+02  0.22597461812E+03  0.24174422035E+03  0.00000000000E+00 0. -1.
</event>
<event>
 7    1  0.6510186E-006  0.1107561E+03  0.7818608E-02  0.1297524E+00
          2   -1    0    0  502    0  0.00000000000E+00  0.00000000000E+00  0.10515670898E+04  0.10515670898E+04  0.00000000000E+00 0. -1.
          1   -1    0    0  501    0 -0.00000000000E+00 -0.00000000000E+00 -0.25482452001E+03  0.25482452001E+03  0.00000000000E+00 0. -1.
         25    2    1    2    0    0  0.54602835579E+01 -0.51431676560E+02  0.12939995188E+02  0.13589627134E+03  0.12500128414E+03 0.  0.
          2    1    1    2  501    0 -0.30426831412E+02  0.12407506480E+03 -0.17053085002E+03  0.21307553728E+03  0.00000000000E+00 0. -1.
          1    1    1    2  502    0  0.24966547854E+02 -0.72643388245E+02  0.95433342466E+03  0.95741980123E+03  0.00000000000E+00 0. -1.
         22    1    3    3    0    0 -0.26509192350E+02 -0.27085536434E+02  0.61885352777E+02  0.72568315754E+02  0.00000000000E+00 0. -1.
         22    1    3    3    0    0  0.31969475908E+02 -0.24346140127E+02 -0.48945357590E+02  0.63327955584E+02  0.00000000000E+00 0. -1.
</event>
<event>
 7    1  0.6510186E-006  0.1517411E+03  0.7818608E-02  0.1238733E+00
          2   -1    0    0  502    0  0.00000000000E+00  0.00000000000E+00  0.57398472326E+03  0.57398472326E+03  0.00000000000E+00 0. -1.
          1   -1    0    0  501    0 -0.00000000000E+00 -0.00000000000E+00 -0.75979161884E+03  0.75979161884E+03  0.00000000000E+00 0. -1.
         25    2    1    2    0    0  0.39692710697E+02 -0.12496445595E+03 -0.22528035184E+02  0.18254934631E+03  0.12500049974E+03 0.  0.
          2    1    1    2  501    0 -0.96741022021E+02 -0.21912346595E+02 -0.64077403888E+03  0.64840600335E+03  0.00000000000E+00 0. -1.
          1    1    1    2  502    0  0.57048311325E+02  0.14687680254E+03  0.47749517849E+03  0.50282099243E+03  0.00000000000E+00 0. -1.
         22    1    3    3    0    0 -0.22403606129E+02 -0.66646586640E+02 -0.57137054315E+02  0.90599845773E+02  0.00000000000E+00 0. -1.
         22    1    3    3    0    0  0.62096316825E+02 -0.58317869309E+02  0.34609019131E+02  0.91949500538E+02  0.00000000000E+00 0. -1.
</event>
<event>
 7    1  0.6510186E-006  0.3989805E+02  0.7818608E-02  0.1579845E+00
          2   -1    0    0  502    0  0.00000000000E+00  0.00000000000E+00  0.12549731769E+04  0.12549731769E+04  0.00000000000E+00 0. -1.
          1   -1    0    0  501    0 -0.00000000000E+00 -0.00000000000E+00 -0.21773452993E+02  0.21773452993E+02  0.00000000000E+00 0. -1.
         25    2    1    2    0    0  0.38226605245E+02 -0.45636519405E+02  0.82949959998E+03  0.84097672127E+03  0.12501317566E+03 0.  0.
          2    1    1    2  501    0 -0.79996255750E+01  0.23911544986E+02 -0.47240379285E+01  0.25652924342E+02  0.00000000000E+00 0. -1.
          1    1    1    2  502    0 -0.30226979670E+02  0.21724974419E+02  0.40842416186E+03  0.41011698429E+03  0.00000000000E+00 0. -1.
         22    1    3    3    0    0  0.25444674164E+02 -0.67092597941E+02  0.79581560066E+03  0.79904400279E+03  0.00000000000E+00 0. -1.
         22    1    3    3    0    0  0.12781931081E+02  0.21456078537E+02  0.33683999322E+02  0.41932718475E+02  0.00000000000E+00 0. -1.
</event>
<event>
 7    1  0.6510186E-006  0.9369086E+02  0.7818608E-02  0.1470396E+00
          2   -1    0    0  502    0  0.00000000000E+00  0.00000000000E+00  0.23382116287E+03  0.23382116287E+03  0.00000000000E+00 0. -1.
          1   -1    0    0  501    0 -0.00000000000E+00 -0.00000000000E+00 -0.52060613420E+03  0.52060613420E+03  0.00000000000E+00 0. -1.
         25    2    1    2    0    0 -0.50661643654E+02 -0.59240937660E+02 -0.11975482401E+03  0.18984914276E+03  0.12500155320E+03 0.  0.
          2    1    1    2  501    0  0.72346942088E+02  0.64137174754E+02 -0.35876221386E+03  0.37156154713E+03  0.00000000000E+00 0. -1.
          1    1    1    2  502    0 -0.21685298433E+02 -0.48962370939E+01  0.19173206654E+03  0.19301660717E+03  0.00000000000E+00 0. -1.
         22    1    3    3    0    0  0.35880430999E+02 -0.86791972998E+01 -0.67211448482E+02  0.76681892266E+02  0.00000000000E+00 0.  1.
         22    1    3    3    0    0 -0.86542074654E+02 -0.50561740360E+02 -0.52543375524E+02  0.11316725050E+03  0.00000000000E+00 0.  1.
</event>
<event>
 7    1  0.6510186E-006  0.2740159E+03  0.7818608E-02  0.1198325E+00
          2   -1    0    0  502    0  0.00000000000E+00  0.00000000000E+00  0.39378056703E+03  0.39378056703E+03  0.00000000000E+00 0. -1.
          1   -1    0    0  501    0 -0.00000000000E+00 -0.00000000000E+00 -0.11973128018E+04  0.11973128018E+04  0.00000000000E+00 0. -1.
         25    2    1    2    0    0  0.16973972403E+03  0.12317748721E+03 -0.16304491068E+03  0.29358815885E+03  0.12500438733E+03 0.  0.
          2    1    1    2  501    0  0.56719277996E+02  0.62028947418E+02 -0.90152002238E+03  0.90542974193E+03  0.00000000000E+00 0. -1.
          1    1    1    2  502    0 -0.22645900203E+03 -0.18520643463E+03  0.26103269832E+03  0.39207546801E+03  0.00000000000E+00 0. -1.
         22    1    3    3    0    0  0.11602141747E+03  0.24314232474E+02 -0.36011246273E+02  0.12389092408E+03  0.00000000000E+00 0. -1.
         22    1    3    3    0    0  0.53718306564E+02  0.98863254735E+02 -0.12703366441E+03  0.16969723477E+03  0.00000000000E+00 0. -1.
</event>
<event>
 7    1  0.6510186E-006  0.4321113E+02  0.7818608E-02  0.1496269E+00
          2   -1    0    0  502    0  0.00000000000E+00  0.00000000000E+00  0.12254632210E+02  0.12254632210E+02  0.00000000000E+00 0. -1.
          1   -1    0    0  501    0 -0.00000000000E+00 -0.00000000000E+00 -0.31578560474E+04  0.31578560474E+04  0.00000000000E+00 0. -1.
         25    2    1    2    0    0 -0.14378929140E+02  0.35801836091E+02 -0.21931551928E+04  0.21970565791E+04  0.12505753458E+03 0.  0.
          2    1    1    2  501    0 -0.28828248577E+02 -0.35217663949E+02 -0.91424755677E+03  0.91537967359E+03  0.00000000000E+00 0. -1.
          1    1    1    2  502    0  0.43207177717E+02 -0.58417214197E+00 -0.38198665556E+02  0.57674426860E+02  0.00000000000E+00 0. -1.
         22    1    3    3    0    0  0.35552619293E+02  0.59318285666E+02 -0.15483263156E+04  0.15498700034E+04  0.00000000000E+00 0.  1.
         22    1    3    3    0    0 -0.49931548433E+02 -0.23516449575E+02 -0.64482887725E+03  0.64718657578E+03  0.00000000000E+00 0.  1.
</event>
<event>
 7    1  0.6510186E-006  0.1017681E+03  0.7818608E-02  0.1456625E+00
          2   -1    0    0  502    0  0.00000000000E+00  0.00000000000E+00  0.56758475311E+03  0.56758475311E+03  0.00000000000E+00 0. -1.
          1   -1    0    0  501    0 -0.00000000000E+00 -0.00000000000E+00 -0.37713911646E+03  0.37713911646E+03  0.00000000000E+00 0. -1.
         25    2    1    2    0    0  0.67727602060E+02 -0.52561652602E+02  0.22754147603E+03  0.27339952504E+03  0.12498968586E+03 0.  0.
          2    1    1    2  501    0  0.19205900578E+02 -0.11928557076E+02 -0.34459209474E+03  0.34533298256E+03  0.00000000000E+00 0. -1.
          1    1    1    2  502    0 -0.86933502637E+02  0.64490209678E+02  0.30749625535E+03  0.32599136197E+03  0.00000000000E+00 0. -1.
         22    1    3    3    0    0  0.10350713873E+03 -0.25220231600E+02  0.15982632619E+03  0.19207874009E+03  0.00000000000E+00 0.  1.
         22    1    3    3    0    0 -0.35779536674E+02 -0.27341421001E+02  0.67715149842E+02  0.81320784952E+02  0.00000000000E+00 0.  1.
</event>
<event>
 7    1  0.9281735E-006  0.6511540E+02  0.7818608E-02  0.1387665E+00
          2   -1    0    0  502    0  0.00000000000E+00  0.00000000000E+00  0.76325791585E+03  0.76325791585E+03  0.00000000000E+00 0. -1.
          1   -1    0    0  501    0 -0.00000000000E+00 -0.00000000000E+00 -0.22160875052E+04  0.22160875052E+04  0.00000000000E+00 0. -1.
         25    2    1    2    0    0 -0.68616748620E+02  0.37616283955E+02 -0.24034515932E+03  0.28198357711E+03  0.12500279653E+03 0.  0.
          2    1    1    2  501    0  0.72259337870E+01 -0.59535886195E+02 -0.19530310943E+04  0.19539516860E+04  0.00000000000E+00 0. -1.
          1    1    1    2  502    0  0.61390814833E+02  0.21919602240E+02  0.74054666423E+03  0.74341015800E+03  0.00000000000E+00 0. -1.
         22    1    3    3    0    0  0.27461911911E+01 -0.84423880437E+01  0.12455755985E+02  0.15295794818E+02  0.00000000000E+00 0. -1.
         22    1    3    3    0    0 -0.71362939812E+02  0.46058671999E+02 -0.25280091530E+03  0.26668778229E+03  0.00000000000E+00 0. -1.
</event>
<event>
 7    1  0.6510186E-006  0.2034397E+03  0.7818608E-02  0.1356538E+00
          2   -1    0    0  502    0  0.00000000000E+00  0.00000000000E+00  0.20339630953E+03  0.20339630953E+03  0.00000000000E+00 0. -1.
          1   -1    0    0  501    0 -0.00000000000E+00 -0.00000000000E+00 -0.10061587321E+04  0.10061587321E+04  0.00000000000E+00 0. -1.
         25    2    1    2    0    0  0.19733832252E+03  0.51890765314E+02 -0.17692369337E+03  0.29759266001E+03  0.12499733180E+03 0.  0.
          2    1    1    2  501    0  0.44086740883E+01 -0.24423258017E+02 -0.69612252054E+03  0.69656478201E+03  0.00000000000E+00 0. -1.
          1    1    1    2  502    0 -0.20174699660E+03 -0.27467507297E+02  0.70283791332E+02  0.21539759961E+03  0.00000000000E+00 0. -1.
         22    1    3    3    0    0  0.17818550067E+02  0.56972835437E+02 -0.44825306490E+02  0.74650604861E+02  0.00000000000E+00 0.  1.
         22    1    3    3    0    0  0.17951977245E+03 -0.50820701235E+01 -0.13209838688E+03  0.22294205515E+03  0.00000000000E+00 0.  1.
</event>
<event>
 7    1  0.6510186E-006  0.1196116E+03  0.7818608E-02  0.1449690E+00
          2   -1    0    0  502    0  0.00000000000E+00  0.00000000000E+00  0.25681406024E+03  0.25681406024E+03  0.00000000000E+00 0. -1.
          1   -1    0    0  501    0 -0.00000000000E+00 -0.00000000000E+00 -0.44258255499E+03  0.44258255499E+03  0.00000000000E+00 0. -1.
         25    2    1    2    0    0  0.10438560908E+03 -0.34546215481E+01  0.83332896908E+02  0.18298299015E+03  0.12502045107E+03 0.  0.
          2    1    1    2  501    0 -0.12037782418E+03 -0.89508666579E+01 -0.38256602542E+03  0.40115795190E+03  0.00000000000E+00 0. -1.
          1    1    1    2  502    0  0.15992215097E+02  0.12405488206E+02  0.11346463377E+03  0.11525567317E+03  0.00000000000E+00 0. -1.
         22    1    3    3    0    0  0.51381530830E+02  0.38312629950E+02 -0.12967532417E+02  0.65391713704E+02  0.00000000000E+00 0. -1.
         22    1    3    3    0    0  0.53004078253E+02 -0.41767251499E+02  0.96300429325E+02  0.11759127645E+03  0.00000000000E+00 0. -1.
</event>
<event>
 7    1  0.6510186E-006  0.1478650E+03  0.7818608E-02  0.1368244E+00
          2   -1    0    0  502    0  0.00000000000E+00  0.00000000000E+00  0.64955158376E+03  0.64955158376E+03  0.00000000000E+00 0. -1.
          1   -1    0    0  501    0 -0.00000000000E+00 -0.00000000000E+00 -0.20519301724E+03  0.20519301724E+03  0.00000000000E+00 0. -1.
         25    2    1    2    0    0  0.10702452782E+03  0.64874557402E+02  0.36128883329E+03  0.40226422247E+03  0.12499570338E+03 0.  0.
          2    1    1    2  501    0 -0.13749208095E+03 -0.59386878425E+02 -0.15316815973E+03  0.21422268509E+03  0.00000000000E+00 0. -1.
          1    1    1    2  502    0  0.30467553120E+02 -0.54876789774E+01  0.23623789296E+03  0.23825769344E+03  0.00000000000E+00 0. -1.
         22    1    3    3    0    0  0.59616247002E+02  0.66113872072E+02  0.33781520059E+03  0.34934832293E+03  0.00000000000E+00 0. -1.
         22    1    3    3    0    0  0.47408280822E+02 -0.12393146694E+01  0.23473632698E+02  0.52915899534E+02  0.00000000000E+00 0. -1.
</event>
<event>
 7    1  0.6510186E-006  0.2656892E+02  0.7818608E-02  0.1686518E+00
          2   -1    0    0  502    0  0.00000000000E+00  0.00000000000E+00  0.88105182583E+03  0.88105182583E+03  0.00000000000E+00 0. -1.
          1   -1    0    0  501    0 -0.00000000000E+00 -0.00000000000E+00 -0.10121067773E+04  0.10121067773E+04  0.00000000000E+00 0. -1.
         25    2    1    2    0    0  0.20251010794E+02  0.14239462198E+02  0.66724618600E+03  0.67930511072E+03  0.12500038002E+03 0.  0.
          2    1    1    2  501    0 -0.37380215875E+01 -0.26307180719E+02 -0.10053980412E+04  0.10057491048E+04  0.00000000000E+00 0. -1.
          1    1    1    2  502    0 -0.16512989206E+02  0.12067718522E+02  0.20709690369E+03  0.20810438765E+03  0.00000000000E+00 0. -1.
         22    1    3    3    0    0  0.21693712682E+02  0.67326205426E+02  0.29922668729E+03  0.30747365008E+03  0.00000000000E+00 0. -1.
         22    1    3    3    0    0 -0.14427018884E+01 -0.53086743229E+02  0.36801949871E+03  0.37183146065E+03  0.00000000000E+00 0. -1.
</event>
<event>
 7    1  0.6510186E-006  0.6990430E+02  0.7818608E-02  0.1398455E+00
          2   -1    0    0  502    0  0.00000000000E+00  0.00000000000E+00  0.17344095524E+04  0.17344095524E+04  0.00000000000E+00 0. -1.
          1   -1    0    0  501    0 -0.00000000000E+00 -0.00000000000E+00 -0.28314245599E+03  0.28314245599E+03  0.00000000000E+00 0. -1.
         25    2    1    2    0    0 -0.11887432651E+03 -0.13385838200E+02  0.68137064409E+03  0.70299431359E+03  0.12499905660E+03 0.  0.
          2    1    1    2  501    0  0.69586856097E+02 -0.64198032471E+00 -0.26724200954E+03  0.27615400475E+03  0.00000000000E+00 0. -1.
          1    1    1    2  502    0  0.49287470408E+02  0.14027818524E+02  0.10371384618E+04  0.10384036900E+04  0.00000000000E+00 0. -1.
         22    1    3    3    0    0 -0.72763019039E+02  0.50094184715E+02  0.45267261072E+03  0.46121185671E+03  0.00000000000E+00 0. -1.
         22    1    3    3    0    0 -0.46111307466E+02 -0.63480022914E+02  0.22869803337E+03  0.24178245688E+03  0.00000000000E+00 0. -1.
</event>
<event>
 7    1  0.6510186E-006  0.2292137E+03  0.7818608E-02  0.1217868E+00
          2   -1    0    0  502    0  0.00000000000E+00  0.00000000000E+00  0.26730300846E+03  0.26730300846E+03  0.00000000000E+00 0. -1.
          1   -1    0    0  501    0 -0.00000000000E+00 -0.00000000000E+00 -0.12116990163E+04  0.12116990163E+04  0.00000000000E+00 0. -1.
         25    2    1    2    0    0 -0.23797461477E+03 -0.70003636865E+02 -0.44760246525E+03  0.52678853307E+03  0.12500306088E+03 0.  0.
          2    1    1    2  501    0  0.98153992885E+01  0.80908522557E+02 -0.66409574545E+03  0.66907823923E+03  0.00000000000E+00 0. -1.
          1    1    1    2  502    0  0.22815921548E+03 -0.10904885691E+02  0.16730220281E+03  0.28313525250E+03  0.00000000000E+00 0. -1.
         22    1    3    3    0    0 -0.23315673233E+03 -0.77377805399E+02 -0.45379398492E+03  0.51602167334E+03  0.00000000000E+00 0.  1.
         22    1    3    3    0    0 -0.48178824372E+01  0.73741685335E+01  0.61915196716E+01  0.10766859736E+02  0.00000000000E+00 0.  1.
</event>
<event>
 7    1  0.6510186E-006  0.5714569E+02  0.7818608E-02  0.1422785E+00
          2   -1    0    0  502    0  0.00000000000E+00  0.00000000000E+00  0.22994974737E+04  0.22994974737E+04  0.00000000000E+00 0. -1.
          1   -1    0    0  501    0 -0.00000000000E+00 -0.00000000000E+00 -0.29400305461E+03  0.29400305461E+03  0.00000000000E+00 0. -1.
         25    2    1    2    0    0 -0.96479130744E+02  0.37912772843E+02  0.17291777193E+03  0.23721665555E+03  0.12500233920E+03 0.  0.
          2    1    1    2  501    0  0.40058710244E+02 -0.32927615355E+02 -0.25889923811E+03  0.26404117788E+03  0.00000000000E+00 0. -1.
          1    1    1    2  502    0  0.56420420500E+02 -0.49851574885E+01  0.20914758853E+04  0.20922426949E+04  0.00000000000E+00 0. -1.
         22    1    3    3    0    0 -0.86331643635E+02  0.55307558805E+02  0.18657068627E+03  0.21288658889E+03  0.00000000000E+00 0. -1.
         22    1    3    3    0    0 -0.10147487108E+02 -0.17394785962E+02 -0.13652914345E+02  0.24330066654E+02  0.00000000000E+00 0. -1.
</event>
<event>
 7    1  0.6510186E-006  0.5586684E+02  0.7818608E-02  0.1456595E+00
          2   -1    0    0  502    0  0.00000000000E+00  0.00000000000E+00  0.73765696767E+03  0.73765696767E+03  0.00000000000E+00 0. -1.
          1   -1    0    0  501    0 -0.00000000000E+00 -0.00000000000E+00 -0.67270987445E+02  0.67270987445E+02  0.00000000000E+00 0. -1.
         25    2    1    2    0    0 -0.25592103009E+02 -0.31892828186E+02  0.61876548696E+03  0.63258784862E+03  0.12499820054E+03 0.  0.
          2    1    1    2  501    0 -0.31871303566E+02  0.45883812131E+02 -0.36121242597E+02  0.66527049937E+02  0.00000000000E+00 0. -1.
          1    1    1    2  502    0  0.57463406575E+02 -0.13990983944E+02  0.87741735867E+02  0.10581305657E+03  0.00000000000E+00 0. -1.
         22    1    3    3    0    0 -0.75039070926E+02 -0.22279122626E+02  0.43778349141E+03  0.44472644043E+03  0.00000000000E+00 0. -1.
         22    1    3    3    0    0  0.49446967917E+02 -0.96137055602E+01  0.18098199555E+03  0.18786140818E+03  0.00000000000E+00 0. -1.
</event>
<event>
 7    1  0.6510186E-006  0.4713940E+03  0.7818608E-02  0.1228886E+00
          2   -1    0    0  502    0  0.00000000000E+00  0.00000000000E+00  0.89797841331E+03  0.89797841331E+03  0.00000000000E+00 0. -1.
          1   -1    0    0  501    0 -0.00000000000E+00 -0.00000000000E+00 -0.98331706181E+03  0.98331706181E+03  0.00000000000E+00 0. -1.
         25    2    1    2    0    0  0.25983642026E+03 -0.35864937077E+03  0.45852895912E+03  0.64962881180E+03  0.12499780125E+03 0.  0.
          2    1    1    2  501    0 -0.26546143022E+03  0.39352254004E+03 -0.82312080214E+03  0.95018819998E+03  0.00000000000E+00 0. -1.
          1    1    1    2  502    0  0.56250099611E+01 -0.34873169269E+02  0.27925319452E+03  0.28147846334E+03  0.00000000000E+00 0. -1.
         22    1    3    3    0    0  0.59222329868E+02 -0.18662141979E+03  0.18786207731E+03  0.27134295416E+03  0.00000000000E+00 0.  1.
         22    1    3    3    0    0  0.20061409039E+03 -0.17202795099E+03  0.27066688181E+03  0.37828585765E+03  0.00000000000E+00 0.  1.
</event>
<event>
 7    1  0.6510186E-006  0.4835941E+02  0.7818608E-02  0.1504744E+00
          2   -1    0    0  502    0  0.00000000000E+00  0.00000000000E+00  0.21287152947E+04  0.21287152947E+04  0.00000000000E+00 0. -1.
          1   -1    0    0  501    0 -0.00000000000E+00 -0.00000000000E+00 -0.87039227132E+02  0.87039227132E+02  0.00000000000E+00 0. -1.
         25    2    1    2    0    0  0.18617657553E+02 -0.47977726171E+01  0.49915017098E+02  0.13596367939E+03  0.12499990954E+03 0.  0.
          2    1    1    2  501    0  0.14766918758E+02 -0.30488331204E+02 -0.37162600609E+02  0.50285774462E+02  0.00000000000E+00 0. -1.
          1    1    1    2  502    0 -0.33384576312E+02  0.35286103821E+02  0.20289236511E+04  0.20295050680E+04  0.00000000000E+00 0. -1.
         22    1    3    3    0    0  0.22651401973E+02  0.58359294602E+02  0.18303131296E+02  0.65221912675E+02  0.00000000000E+00 0.  1.
         22    1    3    3    0    0 -0.40337444195E+01 -0.63157067219E+02  0.31611885802E+02  0.70741766713E+02  0.00000000000E+00 0.  1.
</event>
<event>
 7    1  0.6510186E-006  0.8173094E+02  0.7818608E-02  0.1447765E+00
          2   -1    0    0  502    0  0.00000000000E+00  0.00000000000E+00  0.12394602398E+04  0.12394602398E+04  0.00000000000E+00 0. -1.
          1   -1    0    0  501    0 -0.00000000000E+00 -0.00000000000E+00 -0.25948018190E+03  0.25948018190E+03  0.00000000000E+00 0. -1.
         25    2    1    2    0    0  0.93260222003E+02 -0.44580070794E+02 -0.61251796701E+02  0.17337949561E+03  0.12499526062E+03 0.  0.
          2    1    1    2  501    0 -0.75062575509E+02  0.20674006436E+02 -0.13129782046E+03  0.15264639675E+03  0.00000000000E+00 0. -1.
          1    1    1    2  502    0 -0.18197646493E+02  0.23906064358E+02  0.11725296750E+04  0.11729145293E+04  0.00000000000E+00 0. -1.
         22    1    3    3    0    0  0.12251336833E+02 -0.31524060965E+02  0.33796266623E+02  0.47812648029E+02  0.00000000000E+00 0. -1.
         22    1    3    3    0    0  0.81008885170E+02 -0.13056009829E+02 -0.95048063323E+02  0.12556684758E+03  0.00000000000E+00 0. -1.
</event>
<event>
 7    1  0.6510186E-006  0.5649906E+02  0.7818608E-02  0.1429423E+00
          2   -1    0    0  502    0  0.00000000000E+00  0.00000000000E+00  0.24932848411E+03  0.24932848411E+03  0.00000000000E+00 0. -1.
          1   -1    0    0  501    0 -0.00000000000E+00 -0.00000000000E+00 -0.46871208416E+03  0.46871208416E+03  0.00000000000E+00 0. -1.
         25    2    1    2    0    0  0.93291662076E+02  0.43196620081E+02 -0.14269856172E+03  0.21577136408E+03  0.12500047937E+03 0.  0.
          2    1    1    2  501    0 -0.46278595503E+02 -0.26588130289E+02 -0.28403629538E+03  0.28900736006E+03  0.00000000000E+00 0. -1.
          1    1    1    2  502    0 -0.47013066573E+02 -0.16608489793E+02  0.20735125704E+03  0.21326184412E+03  0.00000000000E+00 0. -1.
         22    1    3    3    0    0  0.98800214243E+02  0.44733270935E+02 -0.44214830487E+02  0.11712172769E+03  0.00000000000E+00 0.  1.
         22    1    3    3    0    0 -0.55085521670E+01 -0.15366508539E+01 -0.98483731230E+02  0.98649636390E+02  0.00000000000E+00 0.  1.
</event>
<event>
 7    1  0.6510186E-006  0.1677310E+03  0.7818608E-02  0.1245559E+00
          2   -1    0    0  502    0  0.00000000000E+00  0.00000000000E+00  0.48796914934E+04  0.48796914934E+04  0.00000000000E+00 0. -1.
          1   -1    0    0  501    0 -0.00000000000E+00 -0.00000000000E+00 -0.11155785811E+04  0.11155785811E+04  0.00000000000E+00 0. -1.
         25    2    1    2    0    0  0.17047915286E+03 -0.48671561344E+02  0.10322782966E+04  0.10548256132E+04  0.12500612094E+03 0.  0.
          2    1    1    2  501    0 -0.12100862406E+03  0.11624565108E+03 -0.10974702679E+04  0.11102239086E+04  0.00000000000E+00 0. -1.
          1    1    1    2  502    0 -0.49470528802E+02 -0.67574089732E+02  0.38293048835E+04  0.38302205526E+04  0.00000000000E+00 0. -1.
         22    1    3    3    0    0  0.18603312675E+03 -0.58195821965E+02  0.98600927466E+03  0.10050917210E+04  0.00000000000E+00 0.  1.
         22    1    3    3    0    0 -0.15553973891E+02  0.95242606206E+01  0.46269021919E+02  0.49733892202E+02  0.00000000000E+00 0.  1.
</event>
<event>
 7    1  0.6510186E-006  0.7123195E+02  0.7818608E-02  0.1395203E+00
          2   -1    0    0  502    0  0.00000000000E+00  0.00000000000E+00  0.34243843328E+04  0.34243843328E+04  0.00000000000E+00 0. -1.
          1   -1    0    0  501    0 -0.00000000000E+00 -0.00000000000E+00 -0.28484806138E+03  0.28484806138E+03  0.00000000000E+00 0. -1.
         25    2    1    2    0    0  0.20131513072E+02  0.10103665270E+02  0.43609879037E+03  0.45421860259E+03  0.12500008844E+03 0.  0.
          2    1    1    2  501    0 -0.71542033558E+02 -0.55960208898E+01 -0.27089246212E+03  0.28023615764E+03  0.00000000000E+00 0. -1.
          1    1    1    2  502    0  0.51410520486E+02 -0.45076443802E+01  0.29743299431E+04  0.29747776339E+04  0.00000000000E+00 0. -1.
         22    1    3    3    0    0 -0.31186627020E+02 -0.30569312788E+02  0.30027745263E+03  0.30343638072E+03  0.00000000000E+00 0.  1.
         22    1    3    3    0    0  0.51318140092E+02  0.40672978058E+02  0.13582133774E+03  0.15078222187E+03  0.00000000000E+00 0.  1.
</event>
<event>
 7    1  0.6510186E-006  0.5687004E+02  0.7818608E-02  0.1415605E+00
          2   -1    0    0  502    0  0.00000000000E+00  0.00000000000E+00  0.14879746045E+04  0.14879746045E+04  0.00000000000E+00 0. -1.
          1   -1    0    0  501    0 -0.00000000000E+00 -0.00000000000E+00 -0.21436367083E+02  0.21436367083E+02  0.00000000000E+00 0. -1.
         25    2    1    2    0    0  0.66472625928E+00 -0.13270618624E+01  0.19061205372E+03  0.22795015676E+03  0.12500446389E+03 0.  0.
          2    1    1    2  501    0 -0.98935504976E+01 -0.56002849397E+02  0.46634429331E+03  0.46979910748E+03  0.00000000000E+00 0. -1.
          1    1    1    2  502    0  0.92288242383E+01  0.57329911259E+02  0.80958189041E+03  0.81166170736E+03  0.00000000000E+00 0. -1.
         22    1    3    3    0    0  0.35573539017E+02 -0.32660013831E+02  0.16997656954E+03  0.17670367108E+03  0.00000000000E+00 0. -1.
         22    1    3    3    0    0 -0.34908812758E+02  0.31332951968E+02  0.20635484176E+02  0.51246485679E+02  0.00000000000E+00 0. -1.
</event>
<event>
 7    1  0.6510186E-006  0.1051372E+03  0.7818608E-02  0.1297881E+00
          2   -1    0    0  502    0  0.00000000000E+00  0.00000000000E+00  0.98569989539E+03  0.98569989539E+03  0.00000000000E+00 0. -1.
          1   -1    0    0  501    0 -0.00000000000E+00 -0.00000000000E+00 -0.35891769204E+03  0.35891769204E+03  0.00000000000E+00 0. -1.
         25    2    1    2    0    0  0.11472460291E+03  0.16381049308E+02  0.57151752240E+03  0.59639508349E+03  0.12499897565E+03 0.  0.
          2    1    1    2  501    0 -0.66981722860E+02 -0.81384210936E+02 -0.33423457511E+03  0.35046068565E+03  0.00000000000E+00 0. -1.
          1    1    1    2  502    0 -0.47742880051E+02  0.65003161629E+02  0.38949925606E+03  0.39776181829E+03  0.00000000000E+00 0. -1.
         22    1    3    3    0    0  0.72350160049E+02 -0.51541214085E+02  0.26004953422E+03  0.27480320714E+03  0.00000000000E+00 0. -1.
         22    1    3    3    0    0  0.42374442863E+02  0.67922263393E+02  0.31146798818E+03  0.32159187635E+03  0.00000000000E+00 0. -1.
</event>
<event>
 7    1  0.6510186E-006  0.1204143E+03  0.7818608E-02  0.1320564E+00
          2   -1    0    0  502    0  0.00000000000E+00  0.00000000000E+00  0.33500044498E+03  0.33500044498E+03  0.00000000000E+00 0. -1.
          1   -1    0    0  501    0 -0.00000000000E+00 -0.00000000000E+00 -0.85995815496E+03  0.85995815496E+03  0.00000000000E+00 0. -1.
         25    2    1    2    0    0  0.55573589481E+02 -0.42892550188E+02 -0.41942912936E+02  0.14936805081E+03  0.12499364763E+03 0.  0.
          2    1    1    2  501    0 -0.11056715443E+03  0.59002141582E+02 -0.75617207157E+03  0.76648714938E+03  0.00000000000E+00 0. -1.
          1    1    1    2  502    0  0.54993564945E+02 -0.16109591394E+02  0.27315727453E+03  0.27910339974E+03  0.00000000000E+00 0. -1.
         22    1    3    3    0    0  0.85100048524E+02 -0.63110450390E+02 -0.40898299821E+02  0.11356768086E+03  0.00000000000E+00 0. -1.
         22    1    3    3    0    0 -0.29526459043E+02  0.20217900203E+02 -0.10446131156E+01  0.35800369953E+02  0.00000000000E+00 0. -1.
</event>
<event>
 7    1  0.6510186E-006  0.1252436E+03  0.7818608E-02  0.1276027E+00
          2   -1    0    0  502    0  0.00000000000E+00  0.00000000000E+00  0.78325712897E+03  0.78325712897E+03  0.00000000000E+00 0. -1.
          1   -1    0    0  501    0 -0.00000000000E+00 -0.00000000000E+00 -0.27349631711E+03  0.27349631711E+03  0.00000000000E+00 0. -1.
         25    2    1    2    0    0 -0.26526322024E+02 -0.12863609967E+03  0.12529272012E+03  0.22039614822E+03  0.12500121815E+03 0.  0.
          2    1    1    2  501    0 -0.55425475772E+02  0.11448383584E+03 -0.20488988244E+03  0.24116051908E+03  0.00000000000E+00 0. -1.
          1    1    1    2  502    0  0.81951797796E+02  0.14152263832E+02  0.58935797419E+03  0.59519677878E+03  0.00000000000E+00 0. -1.
         22    1    3    3    0    0 -0.67105208723E+02 -0.29200046664E+02  0.41121461761E+02  0.83944781734E+02  0.00000000000E+00 0.  1.
         22    1    3    3    0    0  0.40578886699E+02 -0.99436053007E+02  0.84171258354E+02  0.13645136649E+03  0.00000000000E+00 0.  1.
</event>
<event>
 7    1  0.6510186E-006  0.5944943E+02  0.7818608E-02  0.1409267E+00
          2   -1    0    0  502    0  0.00000000000E+00  0.00000000000E+00  0.19655212499E+03  0.19655212499E+03  0.00000000000E+00 0. -1.
          1   -1    0    0  501    0 -0.00000000000E+00 -0.00000000000E+00 -0.10503711035E+03  0.10503711035E+03  0.00000000000E+00 0. -1.
         25    2    1    2    0    0  0.18771206389E+02 -0.12144494255E+01  0.29608889013E+02  0.12983254558E+03  0.12500388196E+03 0.  0.
          2    1    1    2  501    0 -0.41541029905E+02  0.56130476778E+02 -0.18045966044E+02  0.72124506787E+02  0.00000000000E+00 0. -1.
          1    1    1    2  502    0  0.22769823516E+02 -0.54916027352E+02  0.79952091668E+02  0.99632182979E+02  0.00000000000E+00 0. -1.
         22    1    3    3    0    0 -0.48944384643E+02 -0.21572413834E+02  0.24806571649E+02  0.58960052779E+02  0.00000000000E+00 0.  1.
         22    1    3    3    0    0  0.67715591032E+02  0.20357964408E+02  0.48023173644E+01  0.70872492801E+02  0.00000000000E+00 0.  1.
</event>
<event>
 7    1  0.6510186E-006  0.1995744E+03  0.7818608E-02  0.1198362E+00
          2   -1    0    0  502    0  0.00000000000E+00  0.00000000000E+00  0.87114488656E+03  0.87114488656E+03  0.00000000000E+00 0. -1.
          1   -1    0    0  501    0 -0.00000000000E+00 -0.00000000000E+00 -0.35058173234E+03  0.35058173234E+03  0.00000000000E+00 0. -1.
         25    2    1    2    0    0 -0.10600404720E+03 -0.97209443845E+02  0.87337789632E+02  0.20961884750E+03  0.12500255091E+03 0.  0.
          2    1    1    2  501    0 -0.10656536063E+03  0.44172096538E+02 -0.26034491272E+03  0.28475748239E+03  0.00000000000E+00 0. -1.
          1    1    1    2  502    0  0.21256940783E+03  0.53037347307E+02  0.69357027732E+03  0.72735028901E+03  0.00000000000E+00 0. -1.
         22    1    3    3    0    0 -0.53419192609E+02 -0.11984964588E+03  0.74700466849E+02  0.15098909730E+03  0.00000000000E+00 0.  1.
         22    1    3    3    0    0 -0.52584854590E+02  0.22640202038E+02  0.12637322783E+02  0.58629750193E+02  0.00000000000E+00 0.  1.
</event>
<event>
 7    1  0.6510186E-006  0.4582024E+02  0.7818608E-02  0.1491400E+00
          2   -1    0    0  502    0  0.00000000000E+00  0.00000000000E+00  0.45556192300E+03  0.45556192300E+03  0.00000000000E+00 0. -1.
          1   -1    0    0  501    0 -0.00000000000E+00 -0.00000000000E+00 -0.12445914810E+04  0.12445914810E+04  0.00000000000E+00 0. -1.
         25    2    1    2    0    0 -0.68955008068E+01 -0.71734388209E+01 -0.17566564626E+03  0.21583365206E+03  0.12500695953E+03 0.  0.
          2    1    1    2  501    0 -0.39027519050E+02  0.36329890540E+01 -0.10472562880E+04  0.10479895412E+04  0.00000000000E+00 0. -1.
          1    1    1    2  502    0  0.45923019857E+02  0.35404497670E+01  0.43389237627E+03  0.43633021065E+03  0.00000000000E+00 0. -1.
         22    1    3    3    0    0  0.18027745570E+02 -0.53501158187E+02 -0.14341777032E+03  0.15412991397E+03  0.00000000000E+00 0. -1.
         22    1    3    3    0    0 -0.24923246377E+02  0.46327719366E+02 -0.32247875936E+02  0.61703738088E+02  0.00000000000E+00 0. -1.
</event>
<event>
 7    1  0.6510186E-006  0.1465724E+03  0.7818608E-02  0.1293885E+00
          2   -1    0    0  502    0  0.00000000000E+00  0.00000000000E+00  0.16073906759E+04  0.16073906759E+04  0.00000000000E+00 0. -1.
          1   -1    0    0  501    0 -0.00000000000E+00 -0.00000000000E+00 -0.69853238648E+03  0.69853238648E+03  0.00000000000E+00 0. -1.
         25    2    1    2    0    0  0.13178755697E+03  0.78310960541E+02  0.49409247518E+02  0.20387766877E+03  0.12499705345E+03 0.  0.
          2    1    1    2  501    0 -0.87032641802E+02 -0.11832928484E+03 -0.61199544174E+03  0.62937661308E+03  0.00000000000E+00 0. -1.
          1    1    1    2  502    0 -0.44754915165E+02  0.40018324302E+02  0.14714444836E+04  0.14726687805E+04  0.00000000000E+00 0. -1.
         22    1    3    3    0    0  0.25995306098E+02 -0.23105412764E+02 -0.21691390848E+02  0.40989419062E+02  0.00000000000E+00 0. -1.
         22    1    3    3    0    0  0.10579225087E+03  0.10141637330E+03  0.71100638366E+02  0.16288824971E+03  0.00000000000E+00 0. -1.
</event>
<event>
 7    1  0.6510186E-006  0.1491932E+03  0.7818608E-02  0.1230513E+00
          2   -1    0    0  502    0  0.00000000000E+00  0.00000000000E+00  0.88874457113E+03  0.88874457113E+03  0.00000000000E+00 0. -1.
          1   -1    0    0  501    0 -0.00000000000E+00 -0.00000000000E+00 -0.24026968219E+04  0.24026968219E+04  0.00000000000E+00 0. -1.
         25    2    1    2    0    0 -0.17005847640E+03  0.98567749386E+02 -0.21523521913E+02  0.23393065309E+03  0.12499920738E+03 0.  0.
          2    1    1    2  501    0  0.14856281327E+03  0.90574053025E+01 -0.22686710285E+04  0.22735481481E+04  0.00000000000E+00 0. -1.
          1    1    1    2  502    0  0.21495663125E+02 -0.10762515469E+03  0.77624229972E+03  0.78396259179E+03  0.00000000000E+00 0. -1.
         22    1    3    3    0    0 -0.15190284893E+03  0.10863750346E+03 -0.54872502522E+02  0.19464730721E+03  0.00000000000E+00 0. -1.
         22    1    3    3    0    0 -0.18155627470E+02 -0.10069754071E+02  0.33348980609E+02  0.39283345881E+02  0.00000000000E+00 0. -1.
</event>
<event>
 7    1  0.6510186E-006  0.6903627E+02  0.7818608E-02  0.1391244E+00
          2   -1    0    0  502    0  0.00000000000E+00  0.00000000000E+00  0.31351663832E+03  0.31351663832E+03  0.00000000000E+00 0. -1.
          1   -1    0    0  501    0 -0.00000000000E+00 -0.00000000000E+00 -0.68673745499E+03  0.68673745499E+03  0.00000000000E+00 0. -1.
         25    2    1    2    0    0 -0.11173873758E+02  0.81017808117E+02  0.25253761164E+02  0.15150231022E+03  0.12500582731E+03 0.  0.
          2    1    1    2  501    0  0.52628835990E+02 -0.44930874801E+02 -0.61829965481E+03  0.62215998025E+03  0.00000000000E+00 0. -1.
          1    1    1    2  502    0 -0.41454962232E+02 -0.36086933316E+02  0.21982507698E+03  0.22659180285E+03  0.00000000000E+00 0. -1.
         22    1    3    3    0    0 -0.39967152579E+02 -0.19143194659E+02  0.14984942771E+02  0.46780163498E+02  0.00000000000E+00 0. -1.
         22    1    3    3    0    0  0.28793278822E+02  0.10016100278E+03  0.10268818393E+02  0.10472214672E+03  0.00000000000E+00 0. -1.
</event>
<event>
 7    1  0.6510186E-006  0.9174655E+02  0.7818608E-02  0.1418441E+00
          2   -1    0    0  502    0  0.00000000000E+00  0.00000000000E+00  0.16218448737E+04  0.16218448737E+04  0.00000000000E+00 0. -1.
          1   -1    0    0  501    0 -0.00000000000E+00 -0.00000000000E+00 -0.92736535117E+02  0.92736535117E+02  0.00000000000E+00 0. -1.
         25    2    1    2    0    0 -0.66641216339E+02 -0.15827581173E+02  0.43084712608E+03  0.45381236515E+03  0.12499941066E+03 0.  0.
          2    1    1    2  501    0 -0.19064482528E+02 -0.27418142936E+02 -0.75778780904E+02  0.82810824723E+02  0.00000000000E+00 0. -1.
          1    1    1    2  502    0  0.85705698867E+02  0.43245724109E+02  0.11740399934E+04  0.11779582190E+04  0.00000000000E+00 0. -1.
         22    1    3    3    0    0 -0.62614639977E+02  0.42673474489E+02  0.31480068823E+03  0.32379174152E+03  0.00000000000E+00 0.  1.
         22    1    3    3    0    0 -0.40265763615E+01 -0.58501055662E+02  0.11604643785E+03  0.13002062363E+03  0.00000000000E+00 0.  1.
</event>
<event>
 7    1  0.6510186E-006  0.1312969E+03  0.7818608E-02  0.1231106E+00
          2   -1    0    0  502    0  0.00000000000E+00  0.00000000000E+00  0.70415907821E+03  0.70415907821E+03  0.00000000000E+00 0. -1.
          1   -1    0    0  501    0 -0.00000000000E+00 -0.00000000000E+00 -0.16792229138E+03  0.16792229138E+03  0.00000000000E+00 0. -1.
         25    2    1    2    0    0  0.12712684935E+03  0.57132254912E+02  0.23731550314E+03  0.30227269468E+03  0.12499921417E+03 0.  0.
          2    1    1    2  501    0 -0.92414045788E+02  0.82602420669E+02 -0.91251948680E+02  0.15391697079E+03  0.00000000000E+00 0. -1.
          1    1    1    2  502    0 -0.34712803559E+02 -0.13973467558E+03  0.39017323237E+03  0.41589170411E+03  0.00000000000E+00 0. -1.
         22    1    3    3    0    0  0.65811020412E+02 -0.31131524050E+02  0.13757020205E+03  0.15564646700E+03  0.00000000000E+00 0. -1.
         22    1    3    3    0    0  0.61315828935E+02  0.88263778962E+02  0.99745301094E+02  0.14662622768E+03  0.00000000000E+00 0. -1.
</event>
<event>
 7    1  0.6510186E-006  0.5167307E+02  0.7818608E-02  0.1472501E+00
          2   -1    0    0  502    0  0.00000000000E+00  0.00000000000E+00  0.30755436596E+04  0.30755436596E+04  0.00000000000E+00 0. -1.
          1   -1    0    0  501    0 -0.00000000000E+00 -0.00000000000E+00 -0.90517490981E+02  0.90517490981E+02  0.00000000000E+00 0. -1.
         25    2    1    2    0    0  0.57075401619E+02 -0.69775451490E+01  0.25534319777E+03  0.29005288821E+03  0.12499696679E+03 0.  0.
          2    1    1    2  501    0 -0.14767440491E+02  0.36857920124E+02 -0.67517922835E+02  0.78327858891E+02  0.00000000000E+00 0. -1.
          1    1    1    2  502    0 -0.42307961128E+02 -0.29880374975E+02  0.27972008936E+04  0.27976804034E+04  0.00000000000E+00 0. -1.
         22    1    3    3    0    0  0.54269475185E+02 -0.36597394174E+02  0.49487569390E+02  0.82058300746E+02  0.00000000000E+00 0.  1.
         22    1    3    3    0    0  0.28059264344E+01  0.29619849025E+02  0.20585562838E+03  0.20799458747E+03  0.00000000000E+00 0.  1.
</event>
<event>
 7    1  0.6510186E-006  0.4784126E+02  0.7818608E-02  0.1514158E+00
          2   -1    0    0  502    0  0.00000000000E+00  0.00000000000E+00  0.90281031706E+02  0.90281031706E+02  0.00000000000E+00 0. -1.
          1   -1    0    0  501    0 -0.00000000000E+00 -0.00000000000E+00 -0.15558812639E+04  0.15558812639E+04  0.00000000000E+00 0. -1.
         25    2    1    2    0    0 -0.19583802055E+02  0.38708716944E+02 -0.98304709412E+01  0.13267745216E+03  0.12499911233E+03 0.  0.
          2    1    1    2  501    0  0.29795839375E+02  0.12009022528E+02 -0.14611201756E+04  0.14614732896E+04  0.00000000000E+00 0. -1.
          1    1    1    2  502    0 -0.10212037320E+02 -0.50717739472E+02  0.53504143175E+01  0.52011553877E+02  0.00000000000E+00 0. -1.
         22    1    3    3    0    0  0.38016414668E+02 -0.40783678964E+01  0.31792521523E+02  0.49725700536E+02  0.00000000000E+00 0.  1.
         22    1    3    3    0    0 -0.57600216724E+02  0.42787084841E+02 -0.41622992465E+02  0.82951751624E+02  0.00000000000E+00 0.  1.
</event>
<event>
 7    1  0.6510186E-006  0.1251857E+03  0.7818608E-02  0.1243831E+00
          2   -1    0    0  502    0  0.00000000000E+00  0.00000000000E+00  0.32091631937E+03  0.32091631937E+03  0.00000000000E+00 0. -1.
          1   -1    0    0  501    0 -0.00000000000E+00 -0.00000000000E+00 -0.21548938837E+04  0.21548938837E+04  0.00000000000E+00 0. -1.
         25    2    1    2    0    0  0.62803317046E+02 -0.54277057326E+02 -0.95612061217E+02  0.17792717859E+03  0.12500463610E+03 0.  0.
          2    1    1    2  501    0 -0.82630845916E+02 -0.78798562428E+02 -0.20002247813E+04  0.20034810321E+04  0.00000000000E+00 0. -1.
          1    1    1    2  502    0  0.19827528871E+02  0.13307561975E+03  0.26185927827E+03  0.29440199234E+03  0.00000000000E+00 0. -1.
         22    1    3    3    0    0 -0.12355656570E+02  0.15177253249E+02  0.16884391878E+02  0.25847513508E+02  0.00000000000E+00 0. -1.
         22    1    3    3    0    0  0.75158973616E+02 -0.69454310575E+02 -0.11249645309E+03  0.15207966508E+03  0.00000000000E+00 0. -1.
</event>
<event>
 7    1  0.6510186E-006  0.6350171E+02  0.7818608E-02  0.1395599E+00
          2   -1    0    0  502    0  0.00000000000E+00  0.00000000000E+00  0.27683188434E+03  0.27683188434E+03  0.00000000000E+00 0. -1.
          1   -1    0    0  501    0 -0.00000000000E+00 -0.00000000000E+00 -0.34079138664E+03  0.34079138664E+03  0.00000000000E+00 0. -1.
         25    2    1    2    0    0 -0.74237047672E+02  0.89456592116E+02 -0.96093644080E+02  0.19588637209E+03  0.12499544479E+03 0.  0.
          2    1    1    2  501    0  0.40095919364E+02 -0.42931786009E+02 -0.18654286193E+03  0.19557366984E+03  0.00000000000E+00 0. -1.
          1    1    1    2  502    0  0.34141128309E+02 -0.46524806107E+02  0.21867700370E+03  0.22616322905E+03  0.00000000000E+00 0. -1.
         22    1    3    3    0    0 -0.10954012270E+03  0.61909828232E+02 -0.67992247631E+02  0.14302031692E+03  0.00000000000E+00 0.  1.
         22    1    3    3    0    0  0.35303075032E+02  0.27546763884E+02 -0.28101396449E+02  0.52866055173E+02  0.00000000000E+00 0.  1.
</event>
<event>
 7    1  0.6510186E-006  0.6390574E+02  0.7818608E-02  0.1418673E+00
          2   -1    0    0  502    0  0.00000000000E+00  0.00000000000E+00  0.75981721653E+02  0.75981721653E+02  0.00000000000E+00 0. -1.
          1   -1    0    0  501    0 -0.00000000000E+00 -0.00000000000E+00 -0.29891627440E+04  0.29891627440E+04  0.00000000000E+00 0. -1.
         25    2    1    2    0    0 -0.45104457862E+02 -0.78864157523E+02 -0.53513352885E+03  0.55699711177E+03  0.12499568534E+03 0.  0.
          2    1    1    2  501    0  0.54661656154E+02  0.31970342363E+02 -0.24338271542E+04  0.24346508201E+04  0.00000000000E+00 0. -1.
          1    1    1    2  502    0 -0.95571982923E+01  0.46893815160E+02  0.55779660652E+02  0.73496533809E+02  0.00000000000E+00 0. -1.
         22    1    3    3    0    0 -0.86364813065E+02 -0.48729203904E+02 -0.28672796086E+03  0.30339139702E+03  0.00000000000E+00 0.  1.
         22    1    3    3    0    0  0.41260355203E+02 -0.30134953619E+02 -0.24840556799E+03  0.25360571474E+03  0.00000000000E+00 0.  1.
</event>
<event>
 7    1  0.6510186E-006  0.8573007E+02  0.7818608E-02  0.1374450E+00
          2   -1    0    0  502    0  0.00000000000E+00  0.00000000000E+00  0.30579339326E+02  0.30579339326E+02  0.00000000000E+00 0. -1.
          1   -1    0    0  501    0 -0.00000000000E+00 -0.00000000000E+00 -0.19549002859E+04  0.19549002859E+04  0.00000000000E+00 0. -1.
         25    2    1    2    0    0  0.55514373237E+02  0.15859801223E+02 -0.74501129035E+03  0.75762830095E+03  0.12500176289E+03 0.  0.
          2    1    1    2  501    0 -0.71483636797E+02 -0.64007191873E+02 -0.11727886503E+04  0.11767072912E+04  0.00000000000E+00 0. -1.
          1    1    1    2  502    0  0.15969263560E+02  0.48147390650E+02 -0.65210059966E+01  0.51144033125E+02  0.00000000000E+00 0. -1.
         22    1    3    3    0    0  0.30106216568E+02 -0.85505187039E+01 -0.69888099301E+03  0.69958140201E+03  0.00000000000E+00 0. -1.
         22    1    3    3    0    0  0.25408156669E+02  0.24410319927E+02 -0.46130297336E+02  0.58046898940E+02  0.00000000000E+00 0. -1.
</event>
<event>
 7    1  0.6510186E-006  0.1960646E+03  0.7818608E-02  0.1249122E+00
          2   -1    0    0  502    0  0.00000000000E+00  0.00000000000E+00  0.14826622586E+04  0.14826622586E+04  0.00000000000E+00 0. -1.
          1   -1    0    0  501    0 -0.00000000000E+00 -0.00000000000E+00 -0.37448643509E+03  0.37448643509E+03  0.00000000000E+00 0. -1.
         25    2    1    2    0    0  0.12879813343E+03  0.69626682108E+02  0.32286197994E+03  0.37590001641E+03  0.12499652079E+03 0.  0.
          2    1    1    2  501    0  0.63870115457E+02  0.26446554394E+02 -0.33417276171E+03  0.34124807187E+03  0.00000000000E+00 0. -1.
          1    1    1    2  502    0 -0.19266824889E+03 -0.96073236502E+02  0.11194866052E+04  0.11400006054E+04  0.00000000000E+00 0. -1.
         22    1    3    3    0    0  0.53139493860E+02  0.16566624928E+02  0.25563240360E+03  0.26162221741E+03  0.00000000000E+00 0. -1.
         22    1    3    3    0    0  0.75658639575E+02  0.53060057180E+02  0.67229576333E+02  0.11427779900E+03  0.00000000000E+00 0. -1.
</event>
<event>
 7    1  0.6510186E-006  0.8541930E+02  0.7818608E-02  0.1362542E+00
          2   -1    0    0  502    0  0.00000000000E+00  0.00000000000E+00  0.79555883133E+02  0.79555883133E+02  0.00000000000E+00 0. -1.
          1   -1    0    0  501    0 -0.00000000000E+00 -0.00000000000E+00 -0.16301343694E+04  0.16301343694E+04  0.00000000000E+00 0. -1.
         25    2    1    2    0    0  0.57769587786E+02 -0.11645315544E+03 -0.78736730467E+03  0.80776369367E+03  0.12504499054E+03 0.  0.
          2    1    1    2  501    0 -0.48097321636E+02  0.61093756567E+02 -0.81903335204E+03  0.82271588728E+03  0.00000000000E+00 0. -1.
          1    1    1    2  502    0 -0.96722661492E+01  0.55359398871E+02  0.55822170455E+02  0.79210671567E+02  0.00000000000E+00 0. -1.
         22    1    3    3    0    0  0.44849125711E+01  0.24538360375E+02 -0.19200673982E+03  0.19362033392E+03  0.00000000000E+00 0.  1.
         22    1    3    3    0    0  0.53284675215E+02 -0.14099151581E+03 -0.59536056485E+03  0.61414335975E+03  0.00000000000E+00 0.  1.
</event>
<event>
 7    1  0.6510186E-006  0.1092518E+03  0.7818608E-02  0.1355196E+00
          2   -1    0    0  502    0  0.00000000000E+00  0.00000000000E+00  0.87043899442E+02  0.87043899442E+02  0.00000000000E+00 0. -1.
          1   -1    0    0  501    0 -0.00000000000E+00 -0.00000000000E+00 -0.15099760345E+04  0.15099760345E+04  0.00000000000E+00 0. -1.
         25    2    1    2    0    0  0.67354377066E+02  0.21238721552E+02 -0.27631252168E+03  0.31138609317E+03  0.12499997591E+03 0.  0.
          2    1    1    2  501    0  0.46710395721E+02 -0.17101582252E+01 -0.11671643533E+04  0.11680999158E+04  0.00000000000E+00 0. -1.
          1    1    1    2  502    0 -0.11406477279E+03 -0.19528563327E+02  0.20544739928E+02  0.11753392495E+03  0.00000000000E+00 0. -1.
         22    1    3    3    0    0  0.80054029653E+02 -0.33771255476E+02 -0.15880976113E+03  0.18102399176E+03  0.00000000000E+00 0.  1.
         22    1    3    3    0    0 -0.12699652587E+02  0.55009977027E+02 -0.11750276055E+03  0.13036210141E+03  0.00000000000E+00 0.  1.
</event>
<event>
 7    1  0.6510186E-006  0.4314095E+02  0.7818608E-02  0.1603046E+00
          2   -1    0    0  502    0  0.00000000000E+00  0.00000000000E+00  0.10025559209E+04  0.10025559209E+04  0.00000000000E+00 0. -1.
          1   -1    0    0  501    0 -0.00000000000E+00 -0.00000000000E+00 -0.26141049965E+03  0.26141049965E+03  0.00000000000E+00 0. -1.
         25    2    1    2    0    0  0.55816531870E+02 -0.84490705407E+01  0.62634209492E+02  0.15078237580E+03  0.12500163452E+03 0.  0.
          2    1    1    2  501    0 -0.13339373025E+02  0.15234584826E+02 -0.21634699559E+03  0.21729255383E+03  0.00000000000E+00 0. -1.
          1    1    1    2  502    0 -0.42477158845E+02 -0.67855142856E+01  0.89485820737E+03  0.89589149093E+03  0.00000000000E+00 0. -1.
         22    1    3    3    0    0  0.32915249549E+02 -0.66217185481E+02  0.43351403680E+02  0.85717404924E+02  0.00000000000E+00 0.  1.
         22    1    3    3    0    0  0.22901282322E+02  0.57768114940E+02  0.19282805812E+02  0.65064970881E+02  0.00000000000E+00 0.  1.
</event>
<event>
 7    1  0.6510186E-006  0.5073550E+02  0.7818608E-02  0.1458667E+00
          2   -1    0    0  502    0  0.00000000000E+00  0.00000000000E+00  0.63541609829E+03  0.63541609829E+03  0.00000000000E+00 0. -1.
          1   -1    0    0  501    0 -0.00000000000E+00 -0.00000000000E+00 -0.89647685598E+03  0.89647685598E+03  0.00000000000E+00 0. -1.
         25    2    1    2    0    0  0.98365018775E+01  0.29617284552E+02  0.82767102164E+02  0.15313646348E+03  0.12500577160E+03 0.  0.
          2    1    1    2  501    0  0.40871991889E+02 -0.18049314698E+02 -0.85940344280E+03  0.86056410277E+03  0.00000000000E+00 0. -1.
          1    1    1    2  502    0 -0.50708493767E+02 -0.11567969854E+02  0.51557558294E+03  0.51819238801E+03  0.00000000000E+00 0. -1.
         22    1    3    3    0    0  0.64882203300E+01  0.49515227554E+02  0.10908570854E+03  0.11997310770E+03  0.00000000000E+00 0.  1.
         22    1    3    3    0    0  0.33482815476E+01 -0.19897943002E+02 -0.26318606378E+02  0.33163355782E+02  0.00000000000E+00 0.  1.
</event>
<event>
 7    1  0.6510186E-006  0.9497364E+02  0.7818608E-02  0.1478420E+00
          2   -1    0    0  502    0  0.00000000000E+00  0.00000000000E+00  0.78540443446E+03  0.78540443446E+03  0.00000000000E+00 0. -1.
          1   -1    0    0  501    0 -0.00000000000E+00 -0.00000000000E+00 -0.77274118071E+03  0.77274118071E+03  0.00000000000E+00 0. -1.
         25    2    1    2    0    0  0.32342583606E+02  0.10910816329E+03  0.15834280853E+03  0.23162014184E+03  0.12499924432E+03 0.  0.
          2    1    1    2  501    0 -0.59330045989E+01 -0.19845274906E+02 -0.73228604250E+03  0.73257892647E+03  0.00000000000E+00 0. -1.
          1    1    1    2  502    0 -0.26409579007E+02 -0.89262888385E+02  0.58660648771E+03  0.59394654686E+03  0.00000000000E+00 0. -1.
         22    1    3    3    0    0  0.41349895486E+02  0.42019986402E+02  0.15271199850E+03  0.16369620521E+03  0.00000000000E+00 0. -1.
         22    1    3    3    0    0 -0.90073118805E+01  0.67088176889E+02  0.56308100310E+01  0.67923936629E+02  0.00000000000E+00 0. -1.
</event>
<event>
 7    1  0.6510186E-006  0.2222600E+03  0.7818608E-02  0.1209911E+00
          2   -1    0    0  502    0  0.00000000000E+00  0.00000000000E+00  0.20048828574E+04  0.20048828574E+04  0.00000000000E+00 0. -1.
          1   -1    0    0  501    0 -0.00000000000E+00 -0.00000000000E+00 -0.76572636418E+03  0.76572636418E+03  0.00000000000E+00 0. -1.
         25    2    1    2    0    0  0.14670744156E+03  0.18170030428E+02  0.12444241563E+04  0.12593925544E+04  0.12499960710E+03 0.  0.
          2    1    1    2  501    0 -0.20496114826E+03 -0.88670438259E+02 -0.73889807339E+03  0.77190794903E+03  0.00000000000E+00 0. -1.
          1    1    1    2  502    0  0.58253706699E+02  0.70500407831E+02  0.73363041028E+03  0.73930871816E+03  0.00000000000E+00 0. -1.
         22    1    3    3    0    0  0.10525291246E+03  0.28529411536E+02  0.42210980411E+03  0.43596879433E+03  0.00000000000E+00 0.  1.
         22    1    3    3    0    0  0.41454529098E+02 -0.10359381108E+02  0.82231435220E+03  0.82342376004E+03  0.00000000000E+00 0.  1.
</event>
<event>
 7    1  0.6510186E-006  0.4509377E+02  0.7818608E-02  0.1537345E+00
          2   -1    0    0  502    0  0.00000000000E+00  0.00000000000E+00  0.14219896375E+04  0.14219896375E+04  0.00000000000E+00 0. -1.
          1   -1    0    0  501    0 -0.00000000000E+00 -0.00000000000E+00 -0.20543589125E+03  0.20543589125E+03  0.00000000000E+00 0. -1.
         25    2    1    2    0    0 -0.34554299548E+02 -0.78325987137E+01  0.35343302016E+03  0.37655654140E+03  0.12499831962E+03 0.  0.
          2    1    1    2  501    0  0.40129409910E+02 -0.20852790162E+02 -0.19103160678E+03  0.19631169906E+03  0.00000000000E+00 0. -1.
          1    1    1    2  502    0 -0.55751103610E+01  0.28685388876E+02  0.10541523329E+04  0.10545572883E+04  0.00000000000E+00 0. -1.
         22    1    3    3    0    0 -0.87976918352E+01  0.45877947067E+02  0.27017697755E+03  0.27418567542E+03  0.00000000000E+00 0. -1.
         22    1    3    3    0    0 -0.25756607713E+02 -0.53710545781E+02  0.83256042613E+02  0.10237086598E+03  0.00000000000E+00 0. -1.
</event>
<event>
 7    1  0.6510186E-006  0.1151799E+03  0.7818608E-02  0.1436437E+00
          2   -1    0    0  502    0  0.00000000000E+00  0.00000000000E+00  0.78412512188E+03  0.78412512188E+03  0.00000000000E+00 0. -1.
          1   -1    0    0  501    0 -0.00000000000E+00 -0.00000000000E+00 -0.13225710167E+03  0.13225710167E+03  0.00000000000E+00 0. -1.
         25    2    1    2    0    0 -0.10789254309E+03  0.96975746704E+01  0.88537501470E+02  0.18761432589E+03  0.12500160920E+03 0.  0.
          2    1    1    2  501    0 -0.75625343399E+01 -0.21929287918E+02 -0.75752494524E+02  0.79224529161E+02  0.00000000000E+00 0. -1.
          1    1    1    2  502    0  0.11545507743E+03  0.12231713247E+02  0.63908301327E+03  0.64954336850E+03  0.00000000000E+00 0. -1.
         22    1    3    3    0    0 -0.42530903318E+02 -0.56553867721E+02  0.25535591537E+02  0.75228213633E+02  0.00000000000E+00 0.  1.
         22    1    3    3    0    0 -0.65361639772E+02  0.66251442392E+02  0.63001909933E+02  0.11238611226E+03  0.00000000000E+00 0.  1.
</event>
<event>
 7    1  0.6510186E-006  0.6475884E+02  0.7818608E-02  0.1450659E+00
          2   -1    0    0  502    0  0.00000000000E+00  0.00000000000E+00  0.14286557053E+04  0.14286557053E+04  0.00000000000E+00 0. -1.
          1   -1    0    0  501    0 -0.00000000000E+00 -0.00000000000E+00 -0.66702372133E+02  0.66702372133E+02  0.00000000000E+00 0. -1.
         25    2    1    2    0    0 -0.95268785331E+01  0.33618400162E+02  0.20671556331E+03  0.24408415096E+03  0.12499916157E+03 0.  0.
          2    1    1    2  501    0  0.18583584870E+02  0.32130323229E+02 -0.39784178923E+02  0.54410368405E+02  0.00000000000E+00 0. -1.
          1    1    1    2  502    0 -0.90567063364E+01 -0.65748723391E+02  0.11950219488E+04  0.11968635581E+04  0.00000000000E+00 0. -1.
         22    1    3    3    0    0  0.28508731267E+02 -0.36278325114E+02  0.48247005883E+02  0.66758057253E+02  0.00000000000E+00 0. -1.
         22    1    3    3    0    0 -0.38035609800E+02  0.69896725276E+02  0.15846855742E+03  0.17732609371E+03  0.00000000000E+00 0. -1.
</event>
<event>
 7    1  0.6510186E-006  0.5239492E+02  0.7818608E-02  0.1435505E+00
          2   -1    0    0  502    0  0.00000000000E+00  0.00000000000E+00  0.20061189904E+03  0.20061189904E+03  0.00000000000E+00 0. -1.
          1   -1    0    0  501    0 -0.00000000000E+00 -0.00000000000E+00 -0.11282096321E+04  0.11282096321E+04  0.00000000000E+00 0. -1.
         25    2    1    2    0    0  0.42949195725E+02 -0.42543396363E+02  0.73032462415E+02  0.15688656315E+03  0.12500031658E+03 0.  0.
          2    1    1    2  501    0  0.75353130847E+01  0.51941909041E+02 -0.10778893681E+04  0.10791664527E+04  0.00000000000E+00 0. -1.
          1    1    1    2  502    0 -0.50484508810E+02 -0.93985126774E+01  0.77259172616E+02  0.92768515260E+02  0.00000000000E+00 0. -1.
         22    1    3    3    0    0  0.73175164000E+02 -0.67552540599E+02  0.50885067022E+02  0.11183577430E+03  0.00000000000E+00 0.  1.
         22    1    3    3    0    0 -0.30225968275E+02  0.25009144236E+02  0.22147395393E+02  0.45050788853E+02  0.00000000000E+00 0.  1.
</event>
<event>
 7    1  0.6510186E-006  0.4302858E+02  0.7818608E-02  0.1523385E+00
          2   -1    0    0  502    0  0.00000000000E+00  0.00000000000E+00  0.78629154908E+03  0.78629154908E+03  0.00000000000E+00 0. -1.
          1   -1    0    0  501    0 -0.00000000000E+00 -0.00000000000E+00 -0.26801975666E+03  0.26801975666E+03  0.00000000000E+00 0. -1.
         25    2    1    2    0    0  0.29136676362E+02  0.26181500031E+02 -0.80244520546E+02  0.15361571533E+03  0.12499675222E+03 0.  0.
          2    1    1    2  501    0 -0.93000908511E+00 -0.44397821901E+02 -0.14744078383E+03  0.15398316870E+03  0.00000000000E+00 0. -1.
          1    1    1    2  502    0 -0.28206667276E+02  0.18216321870E+02  0.74595709680E+03  0.74671242171E+03  0.00000000000E+00 0. -1.
         22    1    3    3    0    0 -0.26937761954E+02  0.23137775828E+02  0.18484190968E+02  0.40033298704E+02  0.00000000000E+00 0.  1.
         22    1    3    3    0    0  0.56074438316E+02  0.30437242028E+01 -0.98728711514E+02  0.11358241663E+03  0.00000000000E+00 0.  1.
</event>
<event>
 7    1  0.6510186E-006  0.7805010E+02  0.7818608E-02  0.1439557E+00
          2   -1    0    0  502    0  0.00000000000E+00  0.00000000000E+00  0.24217819818E+04  0.24217819818E+04  0.00000000000E+00 0. -1.
          1   -1    0    0  501    0 -0.00000000000E+00 -0.00000000000E+00 -0.60183624480E+03  0.60183624480E+03  0.00000000000E+00 0. -1.
         25    2    1    2    0    0 -0.47259821950E+00  0.11017545979E+03  0.57964686381E+02  0.17642143689E+03  0.12500305292E+03 0.  0.
          2    1    1    2  501    0 -0.65450798204E+01 -0.32793780912E+02 -0.54143696306E+03  0.54246866740E+03  0.00000000000E+00 0. -1.
          1    1    1    2  502    0  0.70176780399E+01 -0.77381678874E+02  0.23034180137E+04  0.23047281223E+04  0.00000000000E+00 0. -1.
         22    1    3    3    0    0  0.60849727635E+02  0.58031974755E+02  0.43380311586E+02  0.94616335167E+02  0.00000000000E+00 0. -1.
         22    1    3    3    0    0 -0.61322325854E+02  0.52143485031E+02  0.14584374795E+02  0.81805101721E+02  0.00000000000E+00 0. -1.
</event>
<event>
 7    1  0.6510186E-006  0.7867104E+02  0.7818608E-02  0.1415619E+00
          2   -1    0    0  502    0  0.00000000000E+00  0.00000000000E+00  0.56908403638E+03  0.56908403638E+03  0.00000000000E+00 0. -1.
          1   -1    0    0  501    0 -0.00000000000E+00 -0.00000000000E+00 -0.91287474748E+03  0.91287474748E+03  0.00000000000E+00 0. -1.
         25    2    1    2    0    0  0.60845982760E+02 -0.20984167640E+02  0.12427019914E+03  0.18763820428E+03  0.12498977718E+03 0.  0.
          2    1    1    2  501    0 -0.61678549511E+01 -0.39322496599E+02 -0.87672482970E+03  0.87762789848E+03  0.00000000000E+00 0. -1.
          1    1    1    2  502    0 -0.54678127808E+02  0.60306664239E+02  0.40866391946E+03  0.41669268110E+03  0.00000000000E+00 0. -1.
         22    1    3    3    0    0 -0.31313052482E+02 -0.35388793895E+02  0.44322229140E+02  0.64786834967E+02  0.00000000000E+00 0.  1.
         22    1    3    3    0    0  0.92159035242E+02  0.14404626255E+02  0.79947970001E+02  0.12285136931E+03  0.00000000000E+00 0.  1.
</event>
<event>
 7    1  0.6510186E-006  0.7364846E+02  0.7818608E-02  0.1489541E+00
          2   -1    0    0  502    0  0.00000000000E+00  0.00000000000E+00  0.14678386551E+04  0.14678386551E+04  0.00000000000E+00 0. -1.
          1   -1    0    0  501    0 -0.00000000000E+00 -0.00000000000E+00 -0.11075499537E+04  0.11075499537E+04  0.00000000000E+00 0. -1.
         25    2    1    2    0    0  0.46552217785E+01  0.87382365784E+02  0.17002498320E+03  0.22845253252E+03  0.12499886304E+03 0.  0.
          2    1    1    2  501    0  0.14743396487E+02 -0.72086605986E+02 -0.10769605171E+04  0.10794710751E+04  0.00000000000E+00 0. -1.
          1    1    1    2  502    0 -0.19398618265E+02 -0.15295759798E+02  0.12672242353E+04  0.12674650012E+04  0.00000000000E+00 0. -1.
         22    1    3    3    0    0 -0.54730636204E+02  0.10987986872E+02  0.62458104315E+02  0.83768688598E+02  0.00000000000E+00 0.  1.
         22    1    3    3    0    0  0.59385857983E+02  0.76394378912E+02  0.10756687889E+03  0.14468384392E+03  0.00000000000E+00 0.  1.
</event>
<event>
 7    1  0.6510186E-006  0.7209727E+02  0.7818608E-02  0.1373517E+00
          2   -1    0    0  502    0  0.00000000000E+00  0.00000000000E+00  0.28624396145E+04  0.28624396145E+04  0.00000000000E+00 0. -1.
          1   -1    0    0  501    0 -0.00000000000E+00 -0.00000000000E+00 -0.12536921047E+03  0.12536921047E+03  0.00000000000E+00 0. -1.
         25    2    1    2    0    0  0.22652259388E+02 -0.92573289004E+02  0.10496472533E+04  0.10613515619E+04  0.12499937129E+03 0.  0.
          2    1    1    2  501    0  0.34792944735E+02  0.49840307085E+02 -0.11103024313E+03  0.12657930361E+03  0.00000000000E+00 0. -1.
          1    1    1    2  502    0 -0.57445204122E+02  0.42732981919E+02  0.17984533938E+04  0.17998779595E+04  0.00000000000E+00 0. -1.
         22    1    3    3    0    0  0.68615014868E+02 -0.68874915417E+02  0.50634923842E+03  0.51559802704E+03  0.00000000000E+00 0.  1.
         22    1    3    3    0    0 -0.45962755480E+02 -0.23698373588E+02  0.54329801492E+03  0.54575353487E+03  0.00000000000E+00 0.  1.
</event>
<event>
 7    1  0.6510186E-006  0.1017339E+03  0.7818608E-02  0.1310750E+00
          2   -1    0    0  502    0  0.00000000000E+00  0.00000000000E+00  0.52538872140E+03  0.52538872140E+03  0.00000000000E+00 0. -1.
          1   -1    0    0  501    0 -0.00000000000E+00 -0.00000000000E+00 -0.15481283660E+04  0.15481283660E+04  0.00000000000E+00 0. -1.
         25    2    1    2    0    0  0.31414141454E+02  0.15508090583E+03 -0.94255040393E+03  0.96387924240E+03  0.12499997738E+03 0.  0.
          2    1    1    2  501    0 -0.63944610513E+01 -0.85347152776E+02 -0.58913941826E+03  0.59532367647E+03  0.00000000000E+00 0. -1.
          1    1    1    2  502    0 -0.25019680403E+02 -0.69733753051E+02  0.50895017757E+03  0.51431416855E+03  0.00000000000E+00 0. -1.
         22    1    3    3    0    0 -0.48058681608E+02  0.48697367229E+02 -0.35127491370E+03  0.35787586597E+03  0.00000000000E+00 0.  1.
         22    1    3    3    0    0  0.79472823063E+02  0.10638353860E+03 -0.59127549024E+03  0.60600337643E+03  0.00000000000E+00 0.  1.
</event>
<event>
 7    1  0.6510186E-006  0.4093808E+02  0.7818608E-02  0.1519425E+00
          2   -1    0    0  502    0  0.00000000000E+00  0.00000000000E+00  0.59762480179E+03  0.59762480179E+03  0.00000000000E+00 0. -1.
          1   -1    0    0  501    0 -0.00000000000E+00 -0.00000000000E+00 -0.12676455898E+04  0.12676455898E+04  0.00000000000E+00 0. -1.
         25    2    1    2    0    0 -0.14849590165E+02 -0.26798388535E+02  0.39772047314E+01  0.12875917459E+03  0.12499777169E+03 0.  0.
          2    1    1    2  501    0 -0.20272962042E+02  0.35717103822E+02 -0.12042862139E+04  0.12049863026E+04  0.00000000000E+00 0. -1.
          1    1    1    2  502    0  0.35122552208E+02 -0.89187152875E+01  0.53028822114E+03  0.53152491441E+03  0.00000000000E+00 0. -1.
         22    1    3    3    0    0 -0.43047961129E+02  0.17660887708E+02  0.42897838293E+02  0.63287111186E+02  0.00000000000E+00 0. -1.
         22    1    3    3    0    0  0.28198370964E+02 -0.44459276243E+02 -0.38920633562E+02  0.65472063400E+02  0.00000000000E+00 0. -1.
</event>
<event>
 7    1  0.6510186E-006  0.1473342E+03  0.7818608E-02  0.1215184E+00
          2   -1    0    0  502    0  0.00000000000E+00  0.00000000000E+00  0.13270924230E+04  0.13270924230E+04  0.00000000000E+00 0. -1.
          1   -1    0    0  501    0 -0.00000000000E+00 -0.00000000000E+00 -0.79327610723E+03  0.79327610723E+03  0.00000000000E+00 0. -1.
         25    2    1    2    0    0  0.15330475550E+03  0.51660613533E+02 -0.15022971571E+01  0.20444664912E+03  0.12500003356E+03 0.  0.
          2    1    1    2  501    0 -0.56701422883E+02 -0.13930966264E+03 -0.67857299612E+03  0.69504211709E+03  0.00000000000E+00 0. -1.
          1    1    1    2  502    0 -0.96603332619E+02  0.87649049111E+02  0.12138916091E+04  0.12208797641E+04  0.00000000000E+00 0. -1.
         22    1    3    3    0    0  0.33993428407E+02  0.56374968044E+02 -0.42317684992E+02  0.78259035644E+02  0.00000000000E+00 0.  1.
         22    1    3    3    0    0  0.11931132710E+03 -0.47143545109E+01  0.40815387835E+02  0.12618761348E+03  0.00000000000E+00 0.  1.
</event>
<event>
 7    1  0.6510186E-006  0.6734905E+02  0.7818608E-02  0.1418930E+00
          2   -1    0    0  502    0  0.00000000000E+00  0.00000000000E+00  0.69985638957E+03  0.69985638957E+03  0.00000000000E+00 0. -1.
          1   -1    0    0  501    0 -0.00000000000E+00 -0.00000000000E+00 -0.12220198592E+03  0.12220198592E+03  0.00000000000E+00 0. -1.
         25    2    1    2    0    0  0.56403970871E+02 -0.69492682813E+02  0.57156114083E+03  0.59187697392E+03  0.12500229460E+03 0.  0.
          2    1    1    2  501    0 -0.42377422414E+02  0.16066917850E+02 -0.10043343131E+03  0.11018559753E+03  0.00000000000E+00 0. -1.
          1    1    1    2  502    0 -0.14026548457E+02  0.53425764963E+02  0.10652669412E+03  0.11999580403E+03  0.00000000000E+00 0. -1.
         22    1    3    3    0    0  0.88723771175E+02 -0.79886406739E+02  0.46195837177E+03  0.47713654523E+03  0.00000000000E+00 0. -1.
         22    1    3    3    0    0 -0.32319800304E+02  0.10393723926E+02  0.10960276907E+03  0.11474042869E+03  0.00000000000E+00 0. -1.
</event>
<event>
 7    1  0.6510186E-006  0.7253530E+02  0.7818608E-02  0.1382062E+00
          2   -1    0    0  502    0  0.00000000000E+00  0.00000000000E+00  0.21683056430E+03  0.21683056430E+03  0.00000000000E+00 0. -1.
          1   -1    0    0  501    0 -0.00000000000E+00 -0.00000000000E+00 -0.11490655412E+04  0.11490655412E+04  0.00000000000E+00 0. -1.
         25    2    1    2    0    0 -0.91954565052E+01 -0.21905750854E+02 -0.51095103417E+03  0.52655506050E+03  0.12499941628E+03 0.  0.
          2    1    1    2  501    0  0.28145500296E+02 -0.48802222538E+02 -0.62259233852E+03  0.62513602208E+03  0.00000000000E+00 0. -1.
          1    1    1    2  502    0 -0.18950043791E+02  0.70707973391E+02  0.20130839576E+03  0.21420502297E+03  0.00000000000E+00 0. -1.
         22    1    3    3    0    0  0.20321522983E+02 -0.68065545028E+02 -0.24893042822E+03  0.25886722622E+03  0.00000000000E+00 0. -1.
         22    1    3    3    0    0 -0.29516979489E+02  0.46159794175E+02 -0.26202060595E+03  0.26768783427E+03  0.00000000000E+00 0. -1.
</event>
<event>
 7    1  0.6510186E-006  0.1637121E+03  0.7818608E-02  0.1259494E+00
          2   -1    0    0  502    0  0.00000000000E+00  0.00000000000E+00  0.15599275123E+03  0.15599275123E+03  0.00000000000E+00 0. -1.
          1   -1    0    0  501    0 -0.00000000000E+00 -0.00000000000E+00 -0.13862953220E+04  0.13862953220E+04  0.00000000000E+00 0. -1.
         25    2    1    2    0    0  0.20387899506E+03 -0.10891305374E+03 -0.46059326069E+03  0.53028331042E+03  0.12500215842E+03 0.  0.
          2    1    1    2  501    0 -0.68216216578E+02  0.30430770083E+02 -0.83780060977E+03  0.84112385872E+03  0.00000000000E+00 0. -1.
          1    1    1    2  502    0 -0.13566277848E+03  0.78482283657E+02  0.68091299644E+02  0.17088090414E+03  0.00000000000E+00 0. -1.
         22    1    3    3    0    0  0.55813400240E+02 -0.70880809487E+02 -0.27730222384E+03  0.29160889587E+03  0.00000000000E+00 0. -1.
         22    1    3    3    0    0  0.14806559482E+03 -0.38032244253E+02 -0.18329103685E+03  0.23867441455E+03  0.00000000000E+00 0. -1.
</event>
<event>
 7    1  0.6510186E-006  0.4644495E+02  0.7818608E-02  0.1476544E+00
          2   -1    0    0  502    0  0.00000000000E+00  0.00000000000E+00  0.13168946487E+04  0.13168946487E+04  0.00000000000E+00 0. -1.
          1   -1    0    0  501    0 -0.00000000000E+00 -0.00000000000E+00 -0.75480652613E+02  0.75480652613E+02  0.00000000000E+00 0. -1.
         25    2    1    2    0    0  0.56391050852E+01 -0.73185190564E+01  0.78793625912E+02  0.14804697597E+03  0.12499644548E+03 0.  0.
          2    1    1    2  501    0 -0.39242483153E+02  0.34023735354E+02 -0.23800077908E+02  0.57131696630E+02  0.00000000000E+00 0. -1.
          1    1    1    2  502    0  0.33603378068E+02 -0.26705216297E+02  0.11864204481E+04  0.11871966287E+04  0.00000000000E+00 0. -1.
         22    1    3    3    0    0 -0.45849468800E+02 -0.13959999495E+02  0.83124235565E+02  0.95951518557E+02  0.00000000000E+00 0. -1.
         22    1    3    3    0    0  0.51488573886E+02  0.66414804390E+01 -0.43306096525E+01  0.52095457414E+02  0.00000000000E+00 0. -1.
</event>
<event>
 7    1  0.6510186E-006  0.9804964E+02  0.7818608E-02  0.1392089E+00
          2   -1    0    0  502    0  0.00000000000E+00  0.00000000000E+00  0.72814586965E+03  0.72814586965E+03  0.00000000000E+00 0. -1.
          1   -1    0    0  501    0 -0.00000000000E+00 -0.00000000000E+00 -0.33618958182E+03  0.33618958182E+03  0.00000000000E+00 0. -1.
         25    2    1    2    0    0 -0.19662202485E+01 -0.11044478166E+03  0.28420549059E+03  0.32954339845E+03  0.12499669901E+03 0.  0.
          2    1    1    2  501    0  0.35305485878E+02  0.91316000208E+02 -0.30496267793E+03  0.32029256026E+03  0.00000000000E+00 0. -1.
          1    1    1    2  502    0 -0.33339265630E+02  0.19128781453E+02  0.41271347517E+03  0.41449949276E+03  0.00000000000E+00 0. -1.
         22    1    3    3    0    0 -0.12717126957E+02 -0.12132290852E+03  0.28885555631E+03  0.31355781901E+03  0.00000000000E+00 0. -1.
         22    1    3    3    0    0  0.10750906709E+02  0.10878126859E+02 -0.46500657171E+01  0.15985579445E+02  0.00000000000E+00 0. -1.
</event>
<event>
 7    1  0.6510186E-006  0.7003955E+02  0.7818608E-02  0.1525326E+00
          2   -1    0    0  502    0  0.00000000000E+00  0.00000000000E+00  0.99637542087E+03  0.99637542087E+03  0.00000000000E+00 0. -1.
          1   -1    0    0  501    0 -0.00000000000E+00 -0.00000000000E+00 -0.37753641316E+03  0.37753641316E+03  0.00000000000E+00 0. -1.
         25    2    1    2    0    0 -0.15323916819E+02  0.48149704464E+02  0.74314124013E+01  0.13502847717E+03  0.12499698913E+03 0.  0.
          2    1    1    2  501    0 -0.12508741444E+01  0.20325323784E+02 -0.31206425245E+03  0.31272796666E+03  0.00000000000E+00 0. -1.
          1    1    1    2  502    0  0.16574790963E+02 -0.68475028247E+02  0.92347184776E+03  0.92615539020E+03  0.00000000000E+00 0. -1.
         22    1    3    3    0    0 -0.15281349030E+02 -0.25044784430E+02 -0.38659063850E+02  0.48531269024E+02  0.00000000000E+00 0.  1.
         22    1    3    3    0    0 -0.42567789166E-01  0.73194488894E+02  0.46090476251E+02  0.86497208149E+02  0.00000000000E+00 0.  1.
</event>
<event>
 7    1  0.6510186E-006  0.2608021E+03  0.7818608E-02  0.1154023E+00
          2   -1    0    0  502    0  0.00000000000E+00  0.00000000000E+00  0.13752997662E+04  0.13752997662E+04  0.00000000000E+00 0. -1.
          1   -1    0    0  501    0 -0.00000000000E+00 -0.00000000000E+00 -0.65503161736E+03  0.65503161736E+03  0.00000000000E+00 0. -1.
         25    2    1    2    0    0 -0.38352393857E+03  0.17128888314E+02  0.11478645683E+03  0.41974176827E+03  0.12499284413E+03 0.  0.
          2    1    1    2  501    0  0.13614247117E+03 -0.52200810056E+02 -0.47744513124E+03  0.49921293090E+03  0.00000000000E+00 0. -1.
          1    1    1    2  502    0  0.24738146740E+03  0.35071921743E+02  0.10829268232E+04  0.11113766844E+04  0.00000000000E+00 0. -1.
         22    1    3    3    0    0 -0.24048161578E+03 -0.31618936820E+02  0.24696897910E+02  0.24380545823E+03  0.00000000000E+00 0. -1.
         22    1    3    3    0    0 -0.14304232279E+03  0.48747825134E+02  0.90089558921E+02  0.17593631004E+03  0.00000000000E+00 0. -1.
</event>
<event>
 7    1  0.6510186E-006  0.1889139E+03  0.7818608E-02  0.1179302E+00
          2   -1    0    0  502    0  0.00000000000E+00  0.00000000000E+00  0.29775386286E+03  0.29775386286E+03  0.00000000000E+00 0. -1.
          1   -1    0    0  501    0 -0.00000000000E+00 -0.00000000000E+00 -0.34764819504E+03  0.34764819504E+03  0.00000000000E+00 0. -1.
         25    2    1    2    0    0  0.97580128815E+01  0.12405488579E+03 -0.50476036303E+02  0.18345872504E+03  0.12499776018E+03 0.  0.
          2    1    1    2  501    0 -0.19672275273E+03 -0.96987298607E+02 -0.10753971158E+03  0.24427682473E+03  0.00000000000E+00 0. -1.
          1    1    1    2  502    0  0.18696473985E+03 -0.27067587182E+02  0.10812141571E+03  0.21766650812E+03  0.00000000000E+00 0. -1.
         22    1    3    3    0    0  0.16990517606E+02  0.14866399639E+03 -0.35604473228E+02  0.15380942762E+03  0.00000000000E+00 0. -1.
         22    1    3    3    0    0 -0.72325047243E+01 -0.24609110601E+02 -0.14871563075E+02  0.29649297419E+02  0.00000000000E+00 0. -1.
</event>
<event>
 7    1  0.6510186E-006  0.9488559E+02  0.7818608E-02  0.1312513E+00
          2   -1    0    0  502    0  0.00000000000E+00  0.00000000000E+00  0.23635516963E+04  0.23635516963E+04  0.00000000000E+00 0. -1.
          1   -1    0    0  501    0 -0.00000000000E+00 -0.00000000000E+00 -0.19489976303E+04  0.19489976303E+04  0.00000000000E+00 0. -1.
         25    2    1    2    0    0 -0.15536749277E+03 -0.51332252264E+02  0.12811881330E+02  0.20630928441E+03  0.12500127438E+03 0.  0.
          2    1    1    2  501    0  0.61149910512E+02  0.48704437011E+02 -0.18504379145E+04  0.18520885262E+04  0.00000000000E+00 0. -1.
          1    1    1    2  502    0  0.94217582259E+02  0.26278152540E+01  0.22521800991E+04  0.22541515160E+04  0.00000000000E+00 0. -1.
         22    1    3    3    0    0  0.13547677991E+02  0.18091490492E+02  0.67310411660E+01  0.23582801410E+02  0.00000000000E+00 0. -1.
         22    1    3    3    0    0 -0.16891517076E+03 -0.69423742756E+02  0.60808401639E+01  0.18272648300E+03  0.00000000000E+00 0. -1.
</event>
<event>
 7    1  0.6510186E-006  0.1379221E+03  0.7818608E-02  0.1343145E+00
          2   -1    0    0  502    0  0.00000000000E+00  0.00000000000E+00  0.49806523360E+04  0.49806523360E+04  0.00000000000E+00 0. -1.
          1   -1    0    0  501    0 -0.00000000000E+00 -0.00000000000E+00 -0.27219739059E+03  0.27219739059E+03  0.00000000000E+00 0. -1.
         25    2    1    2    0    0  0.10809338694E+03  0.14234396431E+03  0.35146603574E+04  0.35214213454E+04  0.12499951697E+03 0.  0.
          2    1    1    2  501    0 -0.84238053555E+02 -0.10894953201E+03 -0.25086790381E+03  0.28618308013E+03  0.00000000000E+00 0. -1.
          1    1    1    2  502    0 -0.23855333380E+02 -0.33394432301E+02  0.14446624917E+04  0.14452453010E+04  0.00000000000E+00 0. -1.
         22    1    3    3    0    0  0.69472917898E+02  0.36475838850E+02  0.23529236588E+04  0.23542316618E+04  0.00000000000E+00 0. -1.
         22    1    3    3    0    0  0.38620469037E+02  0.10586812546E+03  0.11617366986E+04  0.11671896836E+04  0.00000000000E+00 0. -1.
</event>
<event>
 7    1  0.6510186E-006  0.9604445E+02  0.7818608E-02  0.1419990E+00
          2   -1    0    0  502    0  0.00000000000E+00  0.00000000000E+00  0.75386148314E+03  0.75386148314E+03  0.00000000000E+00 0. -1.
          1   -1    0    0  501    0 -0.00000000000E+00 -0.00000000000E+00 -0.29951916438E+03  0.29951916438E+03  0.00000000000E+00 0. -1.
         25    2    1    2    0    0 -0.57551036938E+01 -0.72105368664E+02  0.25041604413E+02  0.14657312961E+03  0.12499717983E+03 0.  0.
          2    1    1    2  501    0  0.19965794312E+02 -0.24393072787E+02 -0.23413122641E+03  0.23624370070E+03  0.00000000000E+00 0. -1.
          1    1    1    2  502    0 -0.14210690619E+02  0.96498441451E+02  0.66343194076E+03  0.67056381721E+03  0.00000000000E+00 0. -1.
         22    1    3    3    0    0 -0.25553090857E+02  0.25356746028E+02  0.30196877180E+02  0.46986981313E+02  0.00000000000E+00 0.  1.
         22    1    3    3    0    0  0.19797987163E+02 -0.97462114692E+02 -0.51552727668E+01  0.99586148300E+02  0.00000000000E+00 0.  1.
</event>
<event>
 7    1  0.6510186E-006  0.9591979E+02  0.7818608E-02  0.1475618E+00
          2   -1    0    0  502    0  0.00000000000E+00  0.00000000000E+00  0.65012388443E+03  0.65012388443E+03  0.00000000000E+00 0. -1.
          1   -1    0    0  501    0 -0.00000000000E+00 -0.00000000000E+00 -0.98214607378E+03  0.98214607378E+03  0.00000000000E+00 0. -1.
         25    2    1    2    0    0 -0.74866411750E+02  0.90295395831E+01  0.81041668551E+02  0.16696704940E+03  0.12499492530E+03 0.  0.
          2    1    1    2  501    0  0.95664432165E+02 -0.11290849905E+02 -0.93650387180E+03  0.94144498978E+03  0.00000000000E+00 0. -1.
          1    1    1    2  502    0 -0.20798020415E+02  0.22613103217E+01  0.52344001390E+03  0.52385791903E+03  0.00000000000E+00 0. -1.
         22    1    3    3    0    0 -0.87882677068E+02  0.12902620751E+02  0.41887419007E+01  0.88923495824E+02  0.00000000000E+00 0. -1.
         22    1    3    3    0    0  0.13016265318E+02 -0.38730811675E+01  0.76852926651E+02  0.78043553580E+02  0.00000000000E+00 0. -1.
</event>
<event>
 7    1  0.6510186E-006  0.4923020E+02  0.7818608E-02  0.1495130E+00
          2   -1    0    0  502    0  0.00000000000E+00  0.00000000000E+00  0.89083269844E+03  0.89083269844E+03  0.00000000000E+00 0. -1.
          1   -1    0    0  501    0 -0.00000000000E+00 -0.00000000000E+00 -0.52619561002E+03  0.52619561002E+03  0.00000000000E+00 0. -1.
         25    2    1    2    0    0 -0.83857538353E+02  0.10636826081E+02 -0.95039373431E+02  0.17833241083E+03  0.12499894977E+03 0.  0.
          2    1    1    2  501    0  0.35018110836E+02 -0.61250906328E+01 -0.38798820154E+03  0.38961343580E+03  0.00000000000E+00 0. -1.
          1    1    1    2  502    0  0.48839427517E+02 -0.45117354486E+01  0.84766466338E+03  0.84908246183E+03  0.00000000000E+00 0. -1.
         22    1    3    3    0    0 -0.50518456205E+02  0.42654276961E+02  0.68273697955E+01  0.66468900538E+02  0.00000000000E+00 0. -1.
         22    1    3    3    0    0 -0.33339082148E+02 -0.32017450880E+02 -0.10186674323E+03  0.11186351029E+03  0.00000000000E+00 0. -1.
</event>
<event>
 7    1  0.6510186E-006  0.5917906E+02  0.7818608E-02  0.1416516E+00
          2   -1    0    0  502    0  0.00000000000E+00  0.00000000000E+00  0.36549549336E+03  0.36549549336E+03  0.00000000000E+00 0. -1.
          1   -1    0    0  501    0 -0.00000000000E+00 -0.00000000000E+00 -0.47527272469E+03  0.47527272469E+03  0.00000000000E+00 0. -1.
         25    2    1    2    0    0  0.20533528814E+02  0.92381439167E+02  0.12317604407E+03  0.19938410646E+03  0.12500291183E+03 0.  0.
          2    1    1    2  501    0  0.16691388784E+02 -0.49826130816E+02 -0.43163116332E+03  0.43481801587E+03  0.00000000000E+00 0. -1.
          1    1    1    2  502    0 -0.37224917598E+02 -0.42555308351E+02  0.19867788791E+03  0.20656609573E+03  0.00000000000E+00 0. -1.
         22    1    3    3    0    0 -0.27998285152E+02  0.70887723622E+02  0.13312486716E+02  0.77370508816E+02  0.00000000000E+00 0.  1.
         22    1    3    3    0    0  0.48531813966E+02  0.21493715545E+02  0.10986355735E+03  0.12201359764E+03  0.00000000000E+00 0.  1.
</event>
<event>
 7    1  0.6510186E-006  0.6852212E+02  0.7818608E-02  0.1426619E+00
          2   -1    0    0  502    0  0.00000000000E+00  0.00000000000E+00  0.58625661710E+03  0.58625661710E+03  0.00000000000E+00 0. -1.
          1   -1    0    0  501    0 -0.00000000000E+00 -0.00000000000E+00 -0.41766350880E+02  0.41766350880E+02  0.00000000000E+00 0. -1.
         25    2    1    2    0    0  0.74697348644E+02  0.14124553384E+02  0.46224517888E+03  0.48484566618E+03  0.12500207086E+03 0.  0.
          2    1    1    2  501    0 -0.26987991846E+02  0.32178144203E+02  0.66749259397E+01  0.42524572950E+02  0.00000000000E+00 0. -1.
          1    1    1    2  502    0 -0.47709356798E+02 -0.46302697587E+02  0.75570161404E+02  0.10065272885E+03  0.00000000000E+00 0. -1.
         22    1    3    3    0    0  0.90068628676E+02  0.52747896209E+02  0.31483408033E+03  0.33168538792E+03  0.00000000000E+00 0. -1.
         22    1    3    3    0    0 -0.15371280032E+02 -0.38623342826E+02  0.14741109855E+03  0.15316027826E+03  0.00000000000E+00 0. -1.
</event>
<event>
 7    1  0.6510186E-006  0.6965657E+02  0.7818608E-02  0.1447982E+00
          2   -1    0    0  502    0  0.00000000000E+00  0.00000000000E+00  0.11968271223E+04  0.11968271223E+04  0.00000000000E+00 0. -1.
          1   -1    0    0  501    0 -0.00000000000E+00 -0.00000000000E+00 -0.66707618721E+02  0.66707618721E+02  0.00000000000E+00 0. -1.
         25    2    1    2    0    0  0.36268158390E+02  0.36936920707E+02  0.82922178382E+03  0.84018669703E+03  0.12500081473E+03 0.  0.
          2    1    1    2  501    0  0.25162793181E+02  0.24608328249E+02 -0.50386171337E+02  0.61461388220E+02  0.00000000000E+00 0. -1.
          1    1    1    2  502    0 -0.61430951571E+02 -0.61545248955E+02  0.35128389107E+03  0.36188665574E+03  0.00000000000E+00 0. -1.
         22    1    3    3    0    0  0.35317131002E+02 -0.19034450485E+00  0.76636015977E+03  0.76717353347E+03  0.00000000000E+00 0.  1.
         22    1    3    3    0    0  0.95102738784E+00  0.37127265212E+02  0.62861624056E+02  0.73013163567E+02  0.00000000000E+00 0.  1.
</event>
<event>
 7    1  0.6510186E-006  0.6832919E+02  0.7818608E-02  0.1420671E+00
          2   -1    0    0  502    0  0.00000000000E+00  0.00000000000E+00  0.15362879867E+04  0.15362879867E+04  0.00000000000E+00 0. -1.
          1   -1    0    0  501    0 -0.00000000000E+00 -0.00000000000E+00 -0.42374479872E+03  0.42374479872E+03  0.00000000000E+00 0. -1.
         25    2    1    2    0    0 -0.33976528892E+01  0.97317722604E+02  0.21706417302E+02  0.15993327923E+03  0.12500080830E+03 0.  0.
          2    1    1    2  501    0 -0.24308924824E+02 -0.63037966536E+02 -0.35107362524E+03  0.35751559322E+03  0.00000000000E+00 0. -1.
          1    1    1    2  502    0  0.27706577713E+02 -0.34279756068E+02  0.14419103959E+04  0.14425839129E+04  0.00000000000E+00 0. -1.
         22    1    3    3    0    0  0.47481310141E+02  0.70926347909E+02 -0.21662161665E+02  0.88058337983E+02  0.00000000000E+00 0. -1.
         22    1    3    3    0    0 -0.50878963030E+02  0.26391374695E+02  0.43368578967E+02  0.71874941245E+02  0.00000000000E+00 0. -1.
</event>
<event>
 7    1  0.6510186E-006  0.7493216E+02  0.7818608E-02  0.1378926E+00
          2   -1    0    0  502    0  0.00000000000E+00  0.00000000000E+00  0.10777167171E+04  0.10777167171E+04  0.00000000000E+00 0. -1.
          1   -1    0    0  501    0 -0.00000000000E+00 -0.00000000000E+00 -0.74377378559E+02  0.74377378559E+02  0.00000000000E+00 0. -1.
         25    2    1    2    0    0  0.40262517004E+02  0.14073550401E+02  0.54306032888E+02  0.14280250927E+03  0.12499710536E+03 0.  0.
          2    1    1    2  501    0  0.28116226652E+02 -0.48367857988E+02 -0.12246654821E+01  0.55959554082E+02  0.00000000000E+00 0. -1.
          1    1    1    2  502    0 -0.68378743656E+02  0.34294307587E+02  0.95025797110E+03  0.95333203227E+03  0.00000000000E+00 0. -1.
         22    1    3    3    0    0  0.68699335832E+02  0.43684122582E+02  0.93908161795E+01  0.81951746400E+02  0.00000000000E+00 0. -1.
         22    1    3    3    0    0 -0.28436818828E+02 -0.29610572181E+02  0.44915216709E+02  0.60850762870E+02  0.00000000000E+00 0. -1.
</event>
<event>
 7    1  0.6510186E-006  0.5219082E+02  0.7818608E-02  0.1504689E+00
          2   -1    0    0  502    0  0.00000000000E+00  0.00000000000E+00  0.96836156457E+03  0.96836156457E+03  0.00000000000E+00 0. -1.
          1   -1    0    0  501    0 -0.00000000000E+00 -0.00000000000E+00 -0.18711273106E+03  0.18711273106E+03  0.00000000000E+00 0. -1.
         25    2    1    2    0    0 -0.42908763086E+02 -0.67757962815E+02  0.27510653000E+03  0.31263767512E+03  0.12500563819E+03 0.  0.
          2    1    1    2  501    0  0.23545730894E+02  0.20775562738E+02 -0.16591527789E+03  0.16886060786E+03  0.00000000000E+00 0. -1.
          1    1    1    2  502    0  0.19363032192E+02  0.46982400077E+02  0.67205758139E+03  0.67397601266E+03  0.00000000000E+00 0. -1.
         22    1    3    3    0    0  0.40971758149E+02 -0.10411960502E+02  0.11984851248E+03  0.12708563975E+03  0.00000000000E+00 0.  1.
         22    1    3    3    0    0 -0.83880521235E+02 -0.57346002313E+02  0.15525801752E+03  0.18555203537E+03  0.00000000000E+00 0.  1.
</event>
<event>
 7    1  0.6510186E-006  0.3883022E+02  0.7818608E-02  0.1561670E+00
          2   -1    0    0  502    0  0.00000000000E+00  0.00000000000E+00  0.22879178749E+02  0.22879178749E+02  0.00000000000E+00 0. -1.
          1   -1    0    0  501    0 -0.00000000000E+00 -0.00000000000E+00 -0.66012476880E+03  0.66012476880E+03  0.00000000000E+00 0. -1.
         25    2    1    2    0    0  0.53546213167E+02 -0.23079083496E+02 -0.32994928934E+03  0.35761847974E+03  0.12499840989E+03 0.  0.
          2    1    1    2  501    0 -0.16533764629E+02  0.23854268251E+02 -0.27418766311E+03  0.27571954245E+03  0.00000000000E+00 0. -1.
          1    1    1    2  502    0 -0.37012448538E+02 -0.77518475492E+00 -0.33108637602E+02  0.49665925361E+02  0.00000000000E+00 0. -1.
         22    1    3    3    0    0 -0.27157450319E+02 -0.45692629517E+02 -0.14912771692E+03  0.15831746415E+03  0.00000000000E+00 0.  1.
         22    1    3    3    0    0  0.80703663485E+02  0.22613546021E+02 -0.18082157242E+03  0.19930101559E+03  0.00000000000E+00 0.  1.
</event>
<event>
 7    1  0.6510186E-006  0.1096404E+03  0.7818608E-02  0.1384588E+00
          2   -1    0    0  502    0  0.00000000000E+00  0.00000000000E+00  0.19410552609E+03  0.19410552609E+03  0.00000000000E+00 0. -1.
          1   -1    0    0  501    0 -0.00000000000E+00 -0.00000000000E+00 -0.13420416794E+04  0.13420416794E+04  0.00000000000E+00 0. -1.
         25    2    1    2    0    0  0.56346469454E+02  0.52298143058E+02 -0.55725073862E+02  0.15697399009E+03  0.12500211726E+03 0.  0.
          2    1    1    2  501    0 -0.90821073392E+02 -0.64332407400E+02 -0.12308166855E+04  0.12358385167E+04  0.00000000000E+00 0. -1.
          1    1    1    2  502    0  0.34474603938E+02  0.12034264342E+02  0.13860560604E+03  0.14333469874E+03  0.00000000000E+00 0. -1.
         22    1    3    3    0    0  0.50719009150E+02  0.92799263843E+02 -0.42828773889E+02  0.11409831345E+03  0.00000000000E+00 0.  1.
         22    1    3    3    0    0  0.56274603044E+01 -0.40501120785E+02 -0.12896299974E+02  0.42875676640E+02  0.00000000000E+00 0.  1.
</event>
<event>
 7    1  0.6510186E-006  0.6167520E+02  0.7818608E-02  0.1476245E+00
          2   -1    0    0  502    0  0.00000000000E+00  0.00000000000E+00  0.57435936177E+03  0.57435936177E+03  0.00000000000E+00 0. -1.
          1   -1    0    0  501    0 -0.00000000000E+00 -0.00000000000E+00 -0.10625268226E+03  0.10625268226E+03  0.00000000000E+00 0. -1.
         25    2    1    2    0    0  0.96718737261E+01  0.41905568423E+02  0.31238014997E+03  0.33919878852E+03  0.12499935292E+03 0.  0.
          2    1    1    2  501    0  0.28081474992E+02  0.16145497110E+02 -0.84979868415E+02  0.90944072652E+02  0.00000000000E+00 0. -1.
          1    1    1    2  502    0 -0.37753348718E+02 -0.58051065533E+02  0.24070639794E+03  0.25046918285E+03  0.00000000000E+00 0. -1.
         22    1    3    3    0    0  0.11372848037E+02  0.36661677484E+02  0.32403776421E+03  0.32630337556E+03  0.00000000000E+00 0.  1.
         22    1    3    3    0    0 -0.17009743109E+01  0.52438909388E+01 -0.11657614235E+02  0.12895412961E+02  0.00000000000E+00 0.  1.
</event>
<event>
 7    1  0.6510186E-006  0.1482434E+03  0.7818608E-02  0.1236886E+00
          2   -1    0    0  502    0  0.00000000000E+00  0.00000000000E+00  0.36800772542E+03  0.36800772542E+03  0.00000000000E+00 0. -1.
          1   -1    0    0  501    0 -0.00000000000E+00 -0.00000000000E+00 -0.57516050975E+03  0.57516050975E+03  0.00000000000E+00 0. -1.
         25    2    1    2    0    0 -0.11285386224E+03  0.15936775264E+03 -0.32434418366E+02  0.23411799499E+03  0.12500067712E+03 0.  0.
          2    1    1    2  501    0  0.10376228225E+02 -0.14513316055E+03 -0.41911628557E+03  0.44365500249E+03  0.00000000000E+00 0. -1.
          1    1    1    2  502    0  0.10247763401E+03 -0.14234592095E+02  0.24439791960E+03  0.26539523770E+03  0.00000000000E+00 0. -1.
         22    1    3    3    0    0 -0.77788440355E+02  0.15918407867E+02  0.11074063872E+02  0.80169021776E+02  0.00000000000E+00 0.  1.
         22    1    3    3    0    0 -0.35065421880E+02  0.14344934477E+03 -0.43508482238E+02  0.15394897322E+03  0.00000000000E+00 0.  1.
</event>
<event>
 7    1  0.6510186E-006  0.6193243E+02  0.7818608E-02  0.1464488E+00
          2   -1    0    0  502    0  0.00000000000E+00  0.00000000000E+00  0.23269770366E+04  0.23269770366E+04  0.00000000000E+00 0. -1.
          1   -1    0    0  501    0 -0.00000000000E+00 -0.00000000000E+00 -0.17909361883E+02  0.17909361883E+02  0.00000000000E+00 0. -1.
         25    2    1    2    0    0 -0.12084820590E+01 -0.51992734066E+02  0.85521389752E+03  0.86586424521E+03  0.12500150316E+03 0.  0.
          2    1    1    2  501    0 -0.35073188405E+02 -0.10906645791E+01  0.14073944081E+02  0.37807327281E+02  0.00000000000E+00 0. -1.
          1    1    1    2  502    0  0.36281670464E+02  0.53083398645E+02  0.14397798331E+04  0.14412148260E+04  0.00000000000E+00 0. -1.
         22    1    3    3    0    0  0.43271643815E+02 -0.33225802391E+02  0.72397121363E+03  0.72602390269E+03  0.00000000000E+00 0. -1.
         22    1    3    3    0    0 -0.44480125875E+02 -0.18766931674E+02  0.13124268389E+03  0.13984034252E+03  0.00000000000E+00 0. -1.
</event>
<event>
 7    1  0.6510186E-006  0.9405945E+02  0.7818608E-02  0.1421015E+00
          2   -1    0    0  502    0  0.00000000000E+00  0.00000000000E+00  0.13149558328E+03  0.13149558328E+03  0.00000000000E+00 0. -1.
          1   -1    0    0  501    0 -0.00000000000E+00 -0.00000000000E+00 -0.47197496331E+03  0.47197496331E+03  0.00000000000E+00 0. -1.
         25    2    1    2    0    0  0.10884181729E+03  0.47169160204E+02 -0.86748927203E+02  0.19293154422E+03  0.12500293405E+03 0.  0.
          2    1    1    2  501    0 -0.88438083654E+02 -0.22602549379E+02 -0.32225764204E+03  0.33493605021E+03  0.00000000000E+00 0. -1.
          1    1    1    2  502    0 -0.20403733634E+02 -0.24566610824E+02  0.68527189214E+02  0.75602952159E+02  0.00000000000E+00 0. -1.
         22    1    3    3    0    0  0.12944744004E+03  0.48746358379E+02 -0.97888046837E+02  0.16945476358E+03  0.00000000000E+00 0. -1.
         22    1    3    3    0    0 -0.20605622750E+02 -0.15771981750E+01  0.11139119635E+02  0.23476780640E+02  0.00000000000E+00 0. -1.
</event>
<event>
 7    1  0.1020804E-005  0.6309310E+02  0.7818608E-02  0.1396669E+00
          2   -1    0    0  502    0  0.00000000000E+00  0.00000000000E+00  0.58780356172E+03  0.58780356172E+03  0.00000000000E+00 0. -1.
          1   -1    0    0  501    0 -0.00000000000E+00 -0.00000000000E+00 -0.12836903972E+04  0.12836903972E+04  0.00000000000E+00 0. -1.
         25    2    1    2    0    0 -0.51875117233E+02 -0.68721880039E+02 -0.37470784287E+03  0.40428286275E+03  0.12499976410E+03 0.  0.
          2    1    1    2  501    0 -0.10057975125E+02  0.56703365814E+02 -0.89152671245E+03  0.89338475114E+03  0.00000000000E+00 0. -1.
          1    1    1    2  502    0  0.61933092357E+02  0.12018514224E+02  0.57034771988E+03  0.57382634497E+03  0.00000000000E+00 0. -1.
         22    1    3    3    0    0 -0.66472496766E+00 -0.45315196765E+02 -0.28522738330E+02  0.53548627611E+02  0.00000000000E+00 0.  1.
         22    1    3    3    0    0 -0.51210392265E+02 -0.23406683274E+02 -0.34618510454E+03  0.35073423514E+03  0.00000000000E+00 0.  1.
</event>
<event>
 7    1  0.6510186E-006  0.1521527E+03  0.7818608E-02  0.1224726E+00
          2   -1    0    0  502    0  0.00000000000E+00  0.00000000000E+00  0.49087827179E+03  0.49087827179E+03  0.00000000000E+00 0. -1.
          1   -1    0    0  501    0 -0.00000000000E+00 -0.00000000000E+00 -0.86249775795E+03  0.86249775795E+03  0.00000000000E+00 0. -1.
         25    2    1    2    0    0  0.62292508325E+02 -0.12002507937E+03 -0.35127443103E+03  0.39661770821E+03  0.12500201718E+03 0.  0.
          2    1    1    2  501    0  0.85385205692E+02  0.75938221265E+02 -0.46881800571E+03  0.48254281601E+03  0.00000000000E+00 0. -1.
          1    1    1    2  502    0 -0.14767771402E+03  0.44086858106E+02  0.44847295059E+03  0.47421550553E+03  0.00000000000E+00 0. -1.
         22    1    3    3    0    0  0.22890626785E+02 -0.12371882187E+03 -0.32656049596E+03  0.34996011945E+03  0.00000000000E+00 0. -1.
         22    1    3    3    0    0  0.39401881540E+02  0.36937425036E+01 -0.24713935070E+02  0.46657588763E+02  0.00000000000E+00 0. -1.
</event>
<event>
 7    1  0.6510186E-006  0.9796298E+02  0.7818608E-02  0.1293186E+00
          2   -1    0    0  502    0  0.00000000000E+00  0.00000000000E+00  0.71703217255E+03  0.71703217255E+03  0.00000000000E+00 0. -1.
          1   -1    0    0  501    0 -0.00000000000E+00 -0.00000000000E+00 -0.91071592778E+03  0.91071592778E+03  0.00000000000E+00 0. -1.
         25    2    1    2    0    0  0.17961124760E+02  0.62814211544E+01 -0.44513225887E+03  0.46274067272E+03  0.12499657615E+03 0.  0.
          2    1    1    2  501    0  0.57563501450E+02 -0.69723210131E+02 -0.44881493785E+03  0.45783155327E+03  0.00000000000E+00 0. -1.
          1    1    1    2  502    0 -0.75524626210E+02  0.63441788977E+02  0.70026344150E+03  0.70717587434E+03  0.00000000000E+00 0. -1.
         22    1    3    3    0    0  0.14928206184E+02  0.62408324331E+02 -0.30653094138E+03  0.31317545930E+03  0.00000000000E+00 0.  1.
         22    1    3    3    0    0  0.30329185755E+01 -0.56126903177E+02 -0.13860131749E+03  0.14956521342E+03  0.00000000000E+00 0.  1.
</event>
<event>
 7    1  0.6510186E-006  0.9151800E+02  0.7818608E-02  0.1345439E+00
          2   -1    0    0  502    0  0.00000000000E+00  0.00000000000E+00  0.67126917780E+03  0.67126917780E+03  0.00000000000E+00 0. -1.
          1   -1    0    0  501    0 -0.00000000000E+00 -0.00000000000E+00 -0.93442915255E+03  0.93442915255E+03  0.00000000000E+00 0. -1.
         25    2    1    2    0    0  0.96793614380E+02  0.94838858478E+02 -0.28653350626E+02  0.18657293317E+03  0.12500012811E+03 0.  0.
          2    1    1    2  501    0 -0.83028829014E+02 -0.35781886027E+02 -0.82278119994E+03  0.82773367262E+03  0.00000000000E+00 0. -1.
          1    1    1    2  502    0 -0.13764785366E+02 -0.59056972451E+02  0.58827457582E+03  0.59139172456E+03  0.00000000000E+00 0. -1.
         22    1    3    3    0    0 -0.19919258786E+02 -0.89786827386E+01  0.12320346217E+02  0.25083551288E+02  0.00000000000E+00 0. -1.
         22    1    3    3    0    0  0.11671287317E+03  0.10381754122E+03 -0.40973696843E+02  0.16148938188E+03  0.00000000000E+00 0. -1.
</event>
<event>
 7    1  0.6510186E-006  0.5335016E+02  0.7818608E-02  0.1542793E+00
          2   -1    0    0  502    0  0.00000000000E+00  0.00000000000E+00  0.11087028034E+04  0.11087028034E+04  0.00000000000E+00 0. -1.
          1   -1    0    0  501    0 -0.00000000000E+00 -0.00000000000E+00 -0.42130846116E+02  0.42130846116E+02  0.00000000000E+00 0. -1.
         25    2    1    2    0    0  0.56075270303E+02 -0.11416836029E+02  0.34790699951E+03  0.37407693308E+03  0.12497796396E+03 0.  0.
          2    1    1    2  501    0 -0.40389985050E+01  0.23494657640E+02 -0.23026436355E+02  0.33144067610E+02  0.00000000000E+00 0. -1.
          1    1    1    2  502    0 -0.52036271798E+02 -0.12077821611E+02  0.74169139410E+03  0.74361264879E+03  0.00000000000E+00 0. -1.
         22    1    3    3    0    0  0.48007508333E+02  0.45923216440E+02  0.10413713007E+03  0.12352410503E+03  0.00000000000E+00 0.  1.
         22    1    3    3    0    0  0.80677619703E+01 -0.57340052470E+02  0.24376986944E+03  0.25055282805E+03  0.00000000000E+00 0.  1.
</event>
<event>
 7    1  0.6510186E-006  0.2088197E+03  0.7818608E-02  0.1315955E+00
          2   -1    0    0  502    0  0.00000000000E+00  0.00000000000E+00  0.53597612972E+03  0.53597612972E+03  0.00000000000E+00 0. -1.
          1   -1    0    0  501    0 -0.00000000000E+00 -0.00000000000E+00 -0.38077398161E+04  0.38077398161E+04  0.00000000000E+00 0. -1.
         25    2    1    2    0    0  0.29232972174E+02 -0.23292452080E+03 -0.69080546773E+02  0.27478215211E+03  0.12499884049E+03 0.  0.
          2    1    1    2  501    0 -0.54388968140E+01  0.20802973209E+03 -0.36321409172E+04  0.36380975239E+04  0.00000000000E+00 0. -1.
          1    1    1    2  502    0 -0.23794075360E+02  0.24894788718E+02  0.42945777766E+03  0.43083626974E+03  0.00000000000E+00 0. -1.
         22    1    3    3    0    0  0.14875688368E+02  0.11963698753E+02 -0.13142853751E+02  0.23176513909E+02  0.00000000000E+00 0.  1.
         22    1    3    3    0    0  0.14357283807E+02 -0.24488821956E+03 -0.55937693022E+02  0.25160563820E+03  0.00000000000E+00 0.  1.
</event>
<event>
 7    1  0.6510186E-006  0.5611032E+02  0.7818608E-02  0.1453540E+00
          2   -1    0    0  502    0  0.00000000000E+00  0.00000000000E+00  0.92480359924E+03  0.92480359924E+03  0.00000000000E+00 0. -1.
          1   -1    0    0  501    0 -0.00000000000E+00 -0.00000000000E+00 -0.48449138538E+02  0.48449138538E+02  0.00000000000E+00 0. -1.
         25    2    1    2    0    0 -0.44625396182E+02 -0.66676956514E+02  0.57763779636E+03  0.59642911049E+03  0.12500007015E+03 0.  0.
          2    1    1    2  501    0  0.49657559658E+02  0.25038437175E+02 -0.17140157368E+02  0.58194343041E+02  0.00000000000E+00 0. -1.
          1    1    1    2  502    0 -0.50321634760E+01  0.41638519339E+02  0.31585682171E+03  0.31862928425E+03  0.00000000000E+00 0. -1.
         22    1    3    3    0    0 -0.80025146601E+02 -0.77430916554E+02  0.44604087818E+03  0.45973039483E+03  0.00000000000E+00 0.  1.
         22    1    3    3    0    0  0.35399750419E+02  0.10753960040E+02  0.13159691818E+03  0.13669871566E+03  0.00000000000E+00 0.  1.
</event>
<event>
 7    1  0.6510186E-006  0.1752748E+03  0.7818608E-02  0.1292302E+00
          2   -1    0    0  502    0  0.00000000000E+00  0.00000000000E+00  0.35308911333E+03  0.35308911333E+03  0.00000000000E+00 0. -1.
          1   -1    0    0  501    0 -0.00000000000E+00 -0.00000000000E+00 -0.17990417738E+04  0.17990417738E+04  0.00000000000E+00 0. -1.
         25    2    1    2    0    0 -0.17636501957E+02  0.15114303004E+03 -0.52646313601E+02  0.20384300367E+03  0.12500029632E+03 0.  0.
          2    1    1    2  501    0  0.42052459135E+02  0.28769412877E+02 -0.16406603869E+04  0.16414513680E+04  0.00000000000E+00 0. -1.
          1    1    1    2  502    0 -0.24415957177E+02 -0.17991244292E+03  0.24735404003E+03  0.30683651543E+03  0.00000000000E+00 0. -1.
         22    1    3    3    0    0  0.15792156223E+02 -0.80147699377E+01  0.19137726497E+02  0.26074533760E+02  0.00000000000E+00 0.  1.
         22    1    3    3    0    0 -0.33428658181E+02  0.15915779998E+03 -0.71784040098E+02  0.17776846991E+03  0.00000000000E+00 0.  1.
</event>
<event>
 7    1  0.6510186E-006  0.1337895E+03  0.7818608E-02  0.1322731E+00
          2   -1    0    0  502    0  0.00000000000E+00  0.00000000000E+00  0.50978951312E+03  0.50978951312E+03  0.00000000000E+00 0. -1.
          1   -1    0    0  501    0 -0.00000000000E+00 -0.00000000000E+00 -0.12315244512E+03  0.12315244512E+03  0.00000000000E+00 0. -1.
         25    2    1    2    0    0 -0.14106509245E+03 -0.75431689559E+01  0.54878320989E+02  0.19644704372E+03  0.12499420453E+03 0.  0.
          2    1    1    2  501    0  0.13679002663E+02  0.48704767302E+02 -0.24284332263E+02  0.56115935930E+02  0.00000000000E+00 0. -1.
          1    1    1    2  502    0  0.12738608978E+03 -0.41161598347E+02  0.35604307928E+03  0.38037897859E+03  0.00000000000E+00 0. -1.
         22    1    3    3    0    0 -0.10969091803E+03  0.33190548352E+02 -0.84043043105E+01  0.11491014894E+03  0.00000000000E+00 0.  1.
         22    1    3    3    0    0 -0.31374174421E+02 -0.40733717308E+02  0.63282625299E+02  0.81536894784E+02  0.00000000000E+00 0.  1.
</event>
<event>
 7    1  0.6510186E-006  0.1012604E+03  0.7818608E-02  0.1321634E+00
          2   -1    0    0  502    0  0.00000000000E+00  0.00000000000E+00  0.26524640790E+04  0.26524640790E+04  0.00000000000E+00 0. -1.
          1   -1    0    0  501    0 -0.00000000000E+00 -0.00000000000E+00 -0.56767075943E+03  0.56767075943E+03  0.00000000000E+00 0. -1.
         25    2    1    2    0    0 -0.15776898912E+03 -0.45757086318E+02  0.36444661612E+03  0.41884497260E+03  0.12500004078E+03 0.  0.
          2    1    1    2  501    0  0.60116646629E+02  0.30688654709E+02 -0.53727943050E+03  0.54150253108E+03  0.00000000000E+00 0. -1.
          1    1    1    2  502    0  0.97652342493E+02  0.15068431609E+02  0.22576261340E+04  0.22597873348E+04  0.00000000000E+00 0. -1.
         22    1    3    3    0    0 -0.10569896594E+03 -0.87982613405E+02  0.21754624575E+03  0.25737051249E+03  0.00000000000E+00 0. -1.
         22    1    3    3    0    0 -0.52070023185E+02  0.42225527086E+02  0.14690037037E+03  0.16147446011E+03  0.00000000000E+00 0. -1.
</event>
<event>
 7    1  0.6510186E-006  0.1137656E+03  0.7818608E-02  0.1319599E+00
          2   -1    0    0  502    0  0.00000000000E+00  0.00000000000E+00  0.54141578414E+02  0.54141578414E+02  0.00000000000E+00 0. -1.
          1   -1    0    0  501    0 -0.00000000000E+00 -0.00000000000E+00 -0.27198037887E+04  0.27198037887E+04  0.00000000000E+00 0. -1.
         25    2    1    2    0    0 -0.34622305216E+02  0.61933678189E+02 -0.89719434063E+03  0.90863958364E+03  0.12503488947E+03 0.  0.
          2    1    1    2  501    0  0.58160689056E+02 -0.11840274927E+03 -0.17941227250E+04  0.17989658777E+04  0.00000000000E+00 0. -1.
          1    1    1    2  502    0 -0.23538383840E+02  0.56469071084E+02  0.25654855300E+02  0.66339905814E+02  0.00000000000E+00 0. -1.
         22    1    3    3    0    0  0.18257664835E+02  0.45564154958E+02 -0.74629142062E+03  0.74790395041E+03  0.00000000000E+00 0.  1.
         22    1    3    3    0    0 -0.52879970051E+02  0.16369523231E+02 -0.15090292001E+03  0.16073563324E+03  0.00000000000E+00 0.  1.
</event>
<event>
 7    1  0.6510186E-006  0.2379092E+03  0.7818608E-02  0.1215406E+00
          2   -1    0    0  502    0  0.00000000000E+00  0.00000000000E+00  0.49189901495E+03  0.49189901495E+03  0.00000000000E+00 0. -1.
          1   -1    0    0  501    0 -0.00000000000E+00 -0.00000000000E+00 -0.78974686363E+03  0.78974686363E+03  0.00000000000E+00 0. -1.
         25    2    1    2    0    0 -0.12736745892E+03  0.10709071486E+03 -0.23066477440E+03  0.31067898334E+03  0.12499720694E+03 0.  0.
          2    1    1    2  501    0 -0.58287423223E+02  0.55654278859E+02 -0.48175482923E+03  0.48844911500E+03  0.00000000000E+00 0. -1.
          1    1    1    2  502    0  0.18565488214E+03 -0.16274499372E+03  0.41457175494E+03  0.48251778023E+03  0.00000000000E+00 0. -1.
         22    1    3    3    0    0 -0.30141870838E+02  0.89645940131E+02 -0.55711379579E+02  0.10976650115E+03  0.00000000000E+00 0.  1.
         22    1    3    3    0    0 -0.97225588080E+02  0.17444774726E+02 -0.17495339482E+03  0.20091248220E+03  0.00000000000E+00 0.  1.
</event>
<event>
 7    1  0.6510186E-006  0.1886780E+03  0.7818608E-02  0.1204839E+00
          2   -1    0    0  502    0  0.00000000000E+00  0.00000000000E+00  0.23420259468E+04  0.23420259468E+04  0.00000000000E+00 0. -1.
          1   -1    0    0  501    0 -0.00000000000E+00 -0.00000000000E+00 -0.66378655297E+02  0.66378655297E+02  0.00000000000E+00 0. -1.
         25    2    1    2    0    0 -0.51904237514E+02 -0.20594111470E+03  0.27763461502E+03  0.37123019595E+03  0.12500034535E+03 0.  0.
          2    1    1    2  501    0  0.12630181747E+03  0.11989057054E+03  0.41468961715E+03  0.44977035982E+03  0.00000000000E+00 0. -1.
          1    1    1    2  502    0 -0.74397579958E+02  0.86050544159E+02  0.15833230593E+04  0.15874040463E+04  0.00000000000E+00 0. -1.
         22    1    3    3    0    0  0.34014672885E+02 -0.12072172448E+03  0.14144726014E+03  0.18904512724E+03  0.00000000000E+00 0. -1.
         22    1    3    3    0    0 -0.85918910399E+02 -0.85219390214E+02  0.13618735488E+03  0.18218506871E+03  0.00000000000E+00 0. -1.
</event>
<event>
 7    1  0.6510186E-006  0.1145445E+03  0.7818608E-02  0.1265682E+00
          2   -1    0    0  502    0  0.00000000000E+00  0.00000000000E+00  0.14110469940E+04  0.14110469940E+04  0.00000000000E+00 0. -1.
          1   -1    0    0  501    0 -0.00000000000E+00 -0.00000000000E+00 -0.22453140414E+04  0.22453140414E+04  0.00000000000E+00 0. -1.
         25    2    1    2    0    0 -0.78589590349E+02  0.19544318628E+03  0.19260780631E+03  0.31160487659E+03  0.12500187715E+03 0.  0.
          2    1    1    2  501    0  0.33909935432E+02 -0.94591275518E+02 -0.21820319411E+04  0.21843444749E+04  0.00000000000E+00 0. -1.
          1    1    1    2  502    0  0.44679654917E+02 -0.10085191076E+03  0.11551570874E+04  0.11604116839E+04  0.00000000000E+00 0. -1.
         22    1    3    3    0    0  0.33697892499E+02  0.38563226589E+02  0.51113809224E+02  0.72355316993E+02  0.00000000000E+00 0.  1.
         22    1    3    3    0    0 -0.11228748285E+03  0.15687995969E+03  0.14149399708E+03  0.23924955960E+03  0.00000000000E+00 0.  1.
</event>
<event>
 7    1  0.6510186E-006  0.2906910E+03  0.7818608E-02  0.1215115E+00
          2   -1    0    0  502    0  0.00000000000E+00  0.00000000000E+00  0.15443097512E+04  0.15443097512E+04  0.00000000000E+00 0. -1.
          1   -1    0    0  501    0 -0.00000000000E+00 -0.00000000000E+00 -0.38540273967E+03  0.38540273967E+03  0.00000000000E+00 0. -1.
         25    2    1    2    0    0 -0.22023240831E+03 -0.97986933891E+02  0.25975018698E+03  0.37575877726E+03  0.12498298351E+03 0.  0.
          2    1    1    2  501    0 -0.60038859104E+02 -0.27794992433E+02 -0.30455548596E+03  0.31165890045E+03  0.00000000000E+00 0. -1.
          1    1    1    2  502    0  0.28027126741E+03  0.12578192632E+03  0.12037123105E+04  0.12422948131E+04  0.00000000000E+00 0. -1.
         22    1    3    3    0    0 -0.21491498871E+03 -0.69911186505E+02  0.17355780778E+03  0.28495322250E+03  0.00000000000E+00 0.  1.
         22    1    3    3    0    0 -0.53174195952E+01 -0.28075747386E+02  0.86192379200E+02  0.90805554756E+02  0.00000000000E+00 0.  1.
</event>
<event>
 7    1  0.6510186E-006  0.1504639E+03  0.7818608E-02  0.1335125E+00
          2   -1    0    0  502    0  0.00000000000E+00  0.00000000000E+00  0.48379851309E+03  0.48379851309E+03  0.00000000000E+00 0. -1.
          1   -1    0    0  501    0 -0.00000000000E+00 -0.00000000000E+00 -0.20228562517E+03  0.20228562517E+03  0.00000000000E+00 0. -1.
         25    2    1    2    0    0  0.25833413056E+02 -0.11322893492E+03  0.17772571645E+03  0.24637447059E+03  0.12500317010E+03 0.  0.
          2    1    1    2  501    0 -0.36955678543E+02  0.15199423336E+03 -0.12943238199E+03  0.20302884194E+03  0.00000000000E+00 0. -1.
          1    1    1    2  502    0  0.11122265487E+02 -0.38765298437E+02  0.23321955346E+03  0.23668082573E+03  0.00000000000E+00 0. -1.
         22    1    3    3    0    0  0.55619565552E+02 -0.11303074203E+03  0.17613137494E+03  0.21654502061E+03  0.00000000000E+00 0. -1.
         22    1    3    3    0    0 -0.29786152496E+02 -0.19819289247E+00  0.15943415178E+01  0.29829449975E+02  0.00000000000E+00 0. -1.
</event>
<event>
 7    1  0.6510186E-006  0.6170193E+02  0.7818608E-02  0.1457139E+00
          2   -1    0    0  502    0  0.00000000000E+00  0.00000000000E+00  0.11958495776E+04  0.11958495776E+04  0.00000000000E+00 0. -1.
          1   -1    0    0  501    0 -0.00000000000E+00 -0.00000000000E+00 -0.19476759026E+04  0.19476759026E+04  0.00000000000E+00 0. -1.
         25    2    1    2    0    0  0.55847739551E+02  0.38155876989E+01  0.88946288157E+03  0.89994556730E+03  0.12499711067E+03 0.  0.
          2    1    1    2  501    0 -0.52057140713E+02  0.33140716500E+02 -0.19407965219E+04  0.19417773797E+04  0.00000000000E+00 0. -1.
          1    1    1    2  502    0 -0.37905988383E+01 -0.36956304199E+02  0.29950731533E+03  0.30180253312E+03  0.00000000000E+00 0. -1.
         22    1    3    3    0    0  0.30668947896E+02  0.33932296346E+02  0.10534633132E+03  0.11484700528E+03  0.00000000000E+00 0. -1.
         22    1    3    3    0    0  0.25178791655E+02 -0.30116708647E+02  0.78411655026E+03  0.78509856201E+03  0.00000000000E+00 0. -1.
</event>
<event>
 7    1  0.6510186E-006  0.6832607E+02  0.7818608E-02  0.1461006E+00
          2   -1    0    0  502    0  0.00000000000E+00  0.00000000000E+00  0.64292272158E+03  0.64292272158E+03  0.00000000000E+00 0. -1.
          1   -1    0    0  501    0 -0.00000000000E+00 -0.00000000000E+00 -0.28225412763E+03  0.28225412763E+03  0.00000000000E+00 0. -1.
         25    2    1    2    0    0 -0.84012052362E+02  0.23666222514E+02 -0.13671881376E+03  0.20478096743E+03  0.12500038222E+03 0.  0.
          2    1    1    2  501    0  0.28488644891E+02  0.15885191260E+02 -0.10716143017E+03  0.11201568776E+03  0.00000000000E+00 0. -1.
          1    1    1    2  502    0  0.55523407470E+02 -0.39551413774E+02  0.60454883788E+03  0.60838019403E+03  0.00000000000E+00 0. -1.
         22    1    3    3    0    0 -0.19582942463E+02 -0.41648373644E+02 -0.91666975301E+02  0.10257150200E+03  0.00000000000E+00 0. -1.
         22    1    3    3    0    0 -0.64429109899E+02  0.65314596159E+02 -0.45051838459E+02  0.10220946542E+03  0.00000000000E+00 0. -1.
</event>
<event>
 7    1  0.6510186E-006  0.7514666E+02  0.7818608E-02  0.1348555E+00
          2   -1    0    0  502    0  0.00000000000E+00  0.00000000000E+00  0.30746256287E+03  0.30746256287E+03  0.00000000000E+00 0. -1.
          1   -1    0    0  501    0 -0.00000000000E+00 -0.00000000000E+00 -0.12332831807E+04  0.12332831807E+04  0.00000000000E+00 0. -1.
         25    2    1    2    0    0  0.83755662204E+01 -0.31829622336E+01 -0.31624010851E+03  0.34016660213E+03  0.12500091845E+03 0.  0.
          2    1    1    2  501    0  0.60068458632E+01 -0.71653741210E+02 -0.89870665744E+03  0.90157861385E+03  0.00000000000E+00 0. -1.
          1    1    1    2  502    0 -0.14382412084E+02  0.74836703444E+02  0.28912614814E+03  0.29900052758E+03  0.00000000000E+00 0. -1.
         22    1    3    3    0    0 -0.25277154955E+02 -0.31004029945E+02 -0.28161079456E+03  0.28443773316E+03  0.00000000000E+00 0. -1.
         22    1    3    3    0    0  0.33652721176E+02  0.27821067711E+02 -0.34629313951E+02  0.55728868962E+02  0.00000000000E+00 0. -1.
</event>
<event>
 7    1  0.6510186E-006  0.7104611E+02  0.7818608E-02  0.1379153E+00
          2   -1    0    0  502    0  0.00000000000E+00  0.00000000000E+00  0.14368413116E+04  0.14368413116E+04  0.00000000000E+00 0. -1.
          1   -1    0    0  501    0 -0.00000000000E+00 -0.00000000000E+00 -0.32222429846E+02  0.32222429846E+02  0.00000000000E+00 0. -1.
         25    2    1    2    0    0  0.97009228304E+02  0.46291918652E+02  0.48534233550E+03  0.51257737344E+03  0.12499859609E+03 0.  0.
          2    1    1    2  501    0 -0.67639485939E+02  0.47598211962E+01  0.47656784303E+02  0.82878978312E+02  0.00000000000E+00 0. -1.
          1    1    1    2  502    0 -0.29369742365E+02 -0.51051739848E+02  0.87161976195E+03  0.87360738970E+03  0.00000000000E+00 0. -1.
         22    1    3    3    0    0 -0.24779614483E+02  0.28228321512E+02  0.16891363099E+03  0.17303953931E+03  0.00000000000E+00 0. -1.
         22    1    3    3    0    0  0.12178884279E+03  0.18063597140E+02  0.31642870450E+03  0.33953783413E+03  0.00000000000E+00 0. -1.
</event>
<event>
 7    1  0.6510186E-006  0.1448411E+03  0.7818608E-02  0.1336323E+00
          2   -1    0    0  502    0  0.00000000000E+00  0.00000000000E+00  0.39425757454E+03  0.39425757454E+03  0.00000000000E+00 0. -1.
          1   -1    0    0  501    0 -0.00000000000E+00 -0.00000000000E+00 -0.15946193027E+04  0.15946193027E+04  0.00000000000E+00 0. -1.
         25    2    1    2    0    0  0.16028319780E+02  0.13604889111E+03 -0.13032303683E+04  0.13163587897E+04  0.12499944967E+03 0.  0.
          2    1    1    2  501    0 -0.18746314919E+02 -0.17741903601E+03 -0.25557486289E+03  0.31168485558E+03  0.00000000000E+00 0. -1.
          1    1    1    2  502    0  0.27179951389E+01  0.41370144899E+02  0.35844350308E+03  0.36083323196E+03  0.00000000000E+00 0. -1.
         22    1    3    3    0    0 -0.99293974885E+01 -0.22091588627E+02 -0.22184155672E+03  0.22315982503E+03  0.00000000000E+00 0.  1.
         22    1    3    3    0    0  0.25957717268E+02  0.15814047974E+03 -0.10813888116E+04  0.10931989646E+04  0.00000000000E+00 0.  1.
</event>
<event>
 7    1  0.6510186E-006  0.1352917E+03  0.7818608E-02  0.1266577E+00
          2   -1    0    0  502    0  0.00000000000E+00  0.00000000000E+00  0.68641162821E+03  0.68641162821E+03  0.00000000000E+00 0. -1.
          1   -1    0    0  501    0 -0.00000000000E+00 -0.00000000000E+00 -0.65760683546E+03  0.65760683546E+03  0.00000000000E+00 0. -1.
         25    2    1    2    0    0  0.22785266488E+02  0.61110412146E+02  0.16158543185E+03  0.21444919000E+03  0.12499980986E+03 0.  0.
          2    1    1    2  501    0 -0.99472565920E+02 -0.96210964532E+02 -0.61992214618E+03  0.63518092571E+03  0.00000000000E+00 0. -1.
          1    1    1    2  502    0  0.76687299432E+02  0.35100552386E+02  0.48714150708E+03  0.49438834796E+03  0.00000000000E+00 0. -1.
         22    1    3    3    0    0  0.43301184765E+02  0.90831211573E+02  0.93403816182E+02  0.13729375250E+03  0.00000000000E+00 0.  1.
         22    1    3    3    0    0 -0.20515918277E+02 -0.29720799427E+02  0.68181615670E+02  0.77155437506E+02  0.00000000000E+00 0.  1.
</event>
<event>
 7    1  0.6510186E-006  0.1957218E+03  0.7818608E-02  0.1234900E+00
          2   -1    0    0  502    0  0.00000000000E+00  0.00000000000E+00  0.35448303205E+04  0.35448303205E+04  0.00000000000E+00 0. -1.
          1   -1    0    0  501    0 -0.00000000000E+00 -0.00000000000E+00 -0.13386291873E+04  0.13386291873E+04  0.00000000000E+00 0. -1.
         25    2    1    2    0    0  0.21007365329E+03 -0.17623043981E+03 -0.42495653292E+02  0.30433336148E+03  0.12499922655E+03 0.  0.
          2    1    1    2  501    0 -0.57813517389E+02  0.55254402627E+02 -0.11610687020E+04  0.11638195662E+04  0.00000000000E+00 0. -1.
          1    1    1    2  502    0 -0.15226013590E+03  0.12097603718E+03  0.34097654884E+04  0.34153065802E+04  0.00000000000E+00 0. -1.
         22    1    3    3    0    0 -0.46191990416E+01 -0.35759969880E+02  0.18634315734E+02  0.40587561746E+02  0.00000000000E+00 0. -1.
         22    1    3    3    0    0  0.21469285233E+03 -0.14047046993E+03 -0.61129969025E+02  0.26374579973E+03  0.00000000000E+00 0. -1.
</event>
<event>
 7    1  0.6510186E-006  0.4615137E+02  0.7818608E-02  0.1505316E+00
          2   -1    0    0  502    0  0.00000000000E+00  0.00000000000E+00  0.42927319107E+03  0.42927319107E+03  0.00000000000E+00 0. -1.
          1   -1    0    0  501    0 -0.00000000000E+00 -0.00000000000E+00 -0.86755198803E+02  0.86755198803E+02  0.00000000000E+00 0. -1.
         25    2    1    2    0    0  0.32608693665E+02  0.64346271464E+02  0.17909747440E+03  0.23000770717E+03  0.12499548179E+03 0.  0.
          2    1    1    2  501    0  0.85995131834E+00 -0.35348265033E+02 -0.53774114196E+02  0.64357553672E+02  0.00000000000E+00 0. -1.
          1    1    1    2  502    0 -0.33468644984E+02 -0.28998006431E+02  0.21719463207E+03  0.22166312903E+03  0.00000000000E+00 0. -1.
         22    1    3    3    0    0 -0.47825434992E+02  0.20387507785E+02  0.75653271274E+02  0.91795098782E+02  0.00000000000E+00 0. -1.
         22    1    3    3    0    0  0.80434128658E+02  0.43958763679E+02  0.10344420312E+03  0.13821260839E+03  0.00000000000E+00 0. -1.
</event>
<event>
 7    1  0.6510186E-006  0.1153847E+03  0.7818608E-02  0.1422554E+00
          2   -1    0    0  502    0  0.00000000000E+00  0.00000000000E+00  0.16439858077E+04  0.16439858077E+04  0.00000000000E+00 0. -1.
          1   -1    0    0  501    0 -0.00000000000E+00 -0.00000000000E+00 -0.40070054654E+02  0.40070054654E+02  0.00000000000E+00 0. -1.
         25    2    1    2    0    0 -0.93730785642E+02  0.98082139318E+02  0.58541034569E+03  0.61378648929E+03  0.12499206121E+03 0.  0.
          2    1    1    2  501    0  0.11934514404E+02 -0.22791527467E+02 -0.15677938659E+02  0.30127796450E+02  0.00000000000E+00 0. -1.
          1    1    1    2  502    0  0.81796271238E+02 -0.75290611851E+02  0.10341833461E+04  0.10401415767E+04  0.00000000000E+00 0. -1.
         22    1    3    3    0    0 -0.65599616990E+02 -0.10626432143E+02  0.14875428255E+03  0.16292350164E+03  0.00000000000E+00 0. -1.
         22    1    3    3    0    0 -0.28131168652E+02  0.10870857146E+03  0.43665606313E+03  0.45086298765E+03  0.00000000000E+00 0. -1.
</event>
<event>
 7    1  0.6510186E-006  0.1459178E+03  0.7818608E-02  0.1295450E+00
          2   -1    0    0  502    0  0.00000000000E+00  0.00000000000E+00  0.39595799000E+03  0.39595799000E+03  0.00000000000E+00 0. -1.
          1   -1    0    0  501    0 -0.00000000000E+00 -0.00000000000E+00 -0.43531062634E+03  0.43531062634E+03  0.00000000000E+00 0. -1.
         25    2    1    2    0    0  0.16896495628E+03  0.90347570694E+02  0.93143611985E+02  0.24700626551E+03  0.12499809105E+03 0.  0.
          2    1    1    2  501    0 -0.10953213796E+03 -0.90949253982E+02 -0.33989912920E+03  0.36851115868E+03  0.00000000000E+00 0. -1.
          1    1    1    2  502    0 -0.59432818315E+02  0.60168328836E+00  0.20740288087E+03  0.21575119214E+03  0.00000000000E+00 0. -1.
         22    1    3    3    0    0  0.14355677980E+03  0.11816807480E+03  0.56211916402E+02  0.19424732295E+03  0.00000000000E+00 0. -1.
         22    1    3    3    0    0  0.25408176479E+02 -0.27820504110E+02  0.36931695583E+02  0.52758942555E+02  0.00000000000E+00 0. -1.
</event>
<event>
 7    1  0.6510186E-006  0.1538619E+03  0.7818608E-02  0.1271233E+00
          2   -1    0    0  502    0  0.00000000000E+00  0.00000000000E+00  0.93046145157E+03  0.93046145157E+03  0.00000000000E+00 0. -1.
          1   -1    0    0  501    0 -0.00000000000E+00 -0.00000000000E+00 -0.13016799248E+04  0.13016799248E+04  0.00000000000E+00 0. -1.
         25    2    1    2    0    0  0.15842465641E+03 -0.11372231515E+03  0.12827603389E+03  0.26476786989E+03  0.12496458432E+03 0.  0.
          2    1    1    2  501    0 -0.14671598156E+03  0.43806908848E+02 -0.12269525474E+04  0.12364696430E+04  0.00000000000E+00 0. -1.
          1    1    1    2  502    0 -0.11708674850E+02  0.69915406298E+02  0.72745804034E+03  0.73090386342E+03  0.00000000000E+00 0. -1.
         22    1    3    3    0    0  0.34542150785E+02 -0.97295401749E+02  0.80734056077E+02  0.13106312675E+03  0.00000000000E+00 0.  1.
         22    1    3    3    0    0  0.12388250563E+03 -0.16426913398E+02  0.47541977810E+02  0.13370474314E+03  0.00000000000E+00 0.  1.
</event>
<event>
 7    1  0.6510186E-006  0.9713911E+02  0.7818608E-02  0.1439721E+00
          2   -1    0    0  502    0  0.00000000000E+00  0.00000000000E+00  0.48624640410E+03  0.48624640410E+03  0.00000000000E+00 0. -1.
          1   -1    0    0  501    0 -0.00000000000E+00 -0.00000000000E+00 -0.18423547263E+03  0.18423547263E+03  0.00000000000E+00 0. -1.
         25    2    1    2    0    0 -0.86646161841E+02  0.68620515269E+02  0.10058058884E+03  0.19482640862E+03  0.12499816865E+03 0.  0.
          2    1    1    2  501    0  0.86294507025E+02 -0.41786659895E+02 -0.11972268997E+03  0.15338314569E+03  0.00000000000E+00 0. -1.
          1    1    1    2  502    0  0.35165481595E+00 -0.26833855374E+02  0.32115303260E+03  0.32227232243E+03  0.00000000000E+00 0. -1.
         22    1    3    3    0    0 -0.72349020435E+02  0.11307673961E+02  0.11282116869E+03  0.13450226895E+03  0.00000000000E+00 0.  1.
         22    1    3    3    0    0 -0.14297141406E+02  0.57312841308E+02 -0.12240579851E+02  0.60324139664E+02  0.00000000000E+00 0.  1.
</event>
<event>
 7    1  0.6510186E-006  0.8885907E+02  0.7818608E-02  0.1339238E+00
          2   -1    0    0  502    0  0.00000000000E+00  0.00000000000E+00  0.70070181757E+03  0.70070181757E+03  0.00000000000E+00 0. -1.
          1   -1    0    0  501    0 -0.00000000000E+00 -0.00000000000E+00 -0.15677849368E+04  0.15677849368E+04  0.00000000000E+00 0. -1.
         25    2    1    2    0    0  0.86633566183E+02 -0.69659363932E+02  0.21391874906E+03  0.27155389447E+03  0.12498993811E+03 0.  0.
          2    1    1    2  501    0  0.15764962795E+01  0.65869588443E+02 -0.15339981575E+04  0.15354125294E+04  0.00000000000E+00 0. -1.
          1    1    1    2  502    0 -0.88210062463E+02  0.37897754884E+01  0.45299628919E+03  0.46152033058E+03  0.00000000000E+00 0. -1.
         22    1    3    3    0    0  0.18989857724E+02  0.24818174255E+02  0.11431538290E+03  0.11850976010E+03  0.00000000000E+00 0.  1.
         22    1    3    3    0    0  0.67643708459E+02 -0.94477538187E+02  0.99603366160E+02  0.15304413437E+03  0.00000000000E+00 0.  1.
</event>
<event>
 7    1  0.6510186E-006  0.5035317E+02  0.7818608E-02  0.1449356E+00
          2   -1    0    0  502    0  0.00000000000E+00  0.00000000000E+00  0.87684717811E+02  0.87684717811E+02  0.00000000000E+00 0. -1.
          1   -1    0    0  501    0 -0.00000000000E+00 -0.00000000000E+00 -0.99161838109E+03  0.99161838109E+03  0.00000000000E+00 0. -1.
         25    2    1    2    0    0  0.53221202012E+02  0.14939450478E+02 -0.55482626110E+03  0.57141274399E+03  0.12499864184E+03 0.  0.
          2    1    1    2  501    0 -0.38480736307E+02  0.33207823767E+02 -0.41882081967E+03  0.42189383216E+03  0.00000000000E+00 0. -1.
          1    1    1    2  502    0 -0.14740465704E+02 -0.48147274245E+02  0.69713417494E+02  0.85996522750E+02  0.00000000000E+00 0. -1.
         22    1    3    3    0    0  0.49707418059E+02 -0.20956394856E+02 -0.51446033978E+03  0.51728081262E+03  0.00000000000E+00 0.  1.
         22    1    3    3    0    0  0.35137839528E+01  0.35895845334E+02 -0.40365921320E+02  0.54131931371E+02  0.00000000000E+00 0.  1.
</event>
<event>
 7    1  0.6510186E-006  0.7917973E+02  0.7818608E-02  0.1465722E+00
          2   -1    0    0  502    0  0.00000000000E+00  0.00000000000E+00  0.18740375366E+04  0.18740375366E+04  0.00000000000E+00 0. -1.
          1   -1    0    0  501    0 -0.00000000000E+00 -0.00000000000E+00 -0.16383794085E+03  0.16383794085E+03  0.00000000000E+00 0. -1.
         25    2    1    2    0    0 -0.95773641987E+02  0.25430724922E+02  0.10517417300E+04  0.10637690569E+04  0.12499851019E+03 0.  0.
          2    1    1    2  501    0  0.27150883847E+02  0.16881437579E+01 -0.15496962246E+03  0.15733913756E+03  0.00000000000E+00 0. -1.
          1    1    1    2  502    0  0.68622758140E+02 -0.27118868680E+02  0.81342748819E+03  0.81676728296E+03  0.00000000000E+00 0. -1.
         22    1    3    3    0    0 -0.51688862956E+02 -0.14496353042E+02  0.13770229133E+03  0.14779649469E+03  0.00000000000E+00 0. -1.
         22    1    3    3    0    0 -0.44084779031E+02  0.39927077963E+02  0.91403943869E+03  0.91597256224E+03  0.00000000000E+00 0. -1.
</event>
<event>
 7    1  0.6510186E-006  0.1611069E+03  0.7818608E-02  0.1249749E+00
          2   -1    0    0  502    0  0.00000000000E+00  0.00000000000E+00  0.14924261663E+04  0.14924261663E+04  0.00000000000E+00 0. -1.
          1   -1    0    0  501    0 -0.00000000000E+00 -0.00000000000E+00 -0.13642065027E+03  0.13642065027E+03  0.00000000000E+00 0. -1.
         25    2    1    2    0    0 -0.76188778340E+02 -0.14923574139E+03  0.57508352726E+03  0.61190003836E+03  0.12499822861E+03 0.  0.
          2    1    1    2  501    0  0.13515872000E+03  0.89974319163E+02 -0.59089324319E+02  0.17278543327E+03  0.00000000000E+00 0. -1.
          1    1    1    2  502    0 -0.58969941658E+02  0.59261422223E+02  0.84001131309E+03  0.84416134495E+03  0.00000000000E+00 0. -1.
         22    1    3    3    0    0 -0.10060912908E+03 -0.98512924691E+02  0.30391634663E+03  0.33495095005E+03  0.00000000000E+00 0. -1.
         22    1    3    3    0    0  0.24420350743E+02 -0.50722816695E+02  0.27116718063E+03  0.27694908831E+03  0.00000000000E+00 0. -1.
</event>
<event>
 7    1  0.6510186E-006  0.5916563E+02  0.7818608E-02  0.1406095E+00
          2   -1    0    0  502    0  0.00000000000E+00  0.00000000000E+00  0.16397666983E+04  0.16397666983E+04  0.00000000000E+00 0. -1.
          1   -1    0    0  501    0 -0.00000000000E+00 -0.00000000000E+00 -0.36816236437E+03  0.36816236437E+03  0.00000000000E+00 0. -1.
         25    2    1    2    0    0 -0.76973094643E+01 -0.56588964340E+01 -0.87471663415E+02  0.15287656180E+03  0.12501471740E+03 0.  0.
          2    1    1    2  501    0  0.58484187331E+02 -0.24693446722E+02 -0.24337048413E+03  0.25151413285E+03  0.00000000000E+00 0. -1.
          1    1    1    2  502    0 -0.50786877867E+02  0.30352343156E+02  0.16024464815E+04  0.16035383681E+04  0.00000000000E+00 0. -1.
         22    1    3    3    0    0  0.44179974541E+01 -0.27410404447E+02 -0.11350642348E+03  0.11685271561E+03  0.00000000000E+00 0.  1.
         22    1    3    3    0    0 -0.12115306918E+02  0.21751508013E+02  0.26034760069E+02  0.36023846191E+02  0.00000000000E+00 0.  1.
</event>
<event>
 7    1  0.6510186E-006  0.9035798E+02  0.7818608E-02  0.1354868E+00
          2   -1    0    0  502    0  0.00000000000E+00  0.00000000000E+00  0.10517197345E+04  0.10517197345E+04  0.00000000000E+00 0. -1.
          1   -1    0    0  501    0 -0.00000000000E+00 -0.00000000000E+00 -0.16717770432E+04  0.16717770432E+04  0.00000000000E+00 0. -1.
         25    2    1    2    0    0  0.10764494725E+02 -0.91992695034E+02  0.55019069345E+02  0.16502006633E+03  0.12500397600E+03 0.  0.
          2    1    1    2  501    0  0.50824110256E+02  0.25073044156E+02 -0.16140822127E+04  0.16150768208E+04  0.00000000000E+00 0. -1.
          1    1    1    2  502    0 -0.61588604981E+02  0.66919650878E+02  0.93900583472E+03  0.94339989059E+03  0.00000000000E+00 0. -1.
         22    1    3    3    0    0 -0.20693080822E+02 -0.11228381869E+03  0.56841996006E+02  0.12754164827E+03  0.00000000000E+00 0.  1.
         22    1    3    3    0    0  0.31457575547E+02  0.20291123661E+02 -0.18229266611E+01  0.37478418061E+02  0.00000000000E+00 0.  1.
</event>
<event>
 7    1  0.6510186E-006  0.1178446E+03  0.7818608E-02  0.1425278E+00
          2   -1    0    0  502    0  0.00000000000E+00  0.00000000000E+00  0.10133910954E+03  0.10133910954E+03  0.00000000000E+00 0. -1.
          1   -1    0    0  501    0 -0.00000000000E+00 -0.00000000000E+00 -0.11933685022E+04  0.11933685022E+04  0.00000000000E+00 0. -1.
         25    2    1    2    0    0 -0.90226950756E+02  0.44403835560E+02 -0.12048912759E+03  0.20063700892E+03  0.12499990491E+03 0.  0.
          2    1    1    2  501    0 -0.19122551188E+02  0.15587949875E+02 -0.96900583508E+03  0.96931984637E+03  0.00000000000E+00 0. -1.
          1    1    1    2  502    0  0.10934950194E+03 -0.59991785436E+02 -0.25344299735E+01  0.12475075643E+03  0.00000000000E+00 0. -1.
         22    1    3    3    0    0 -0.79551805997E+02  0.29249064031E+02 -0.63430024630E+01  0.84995477905E+02  0.00000000000E+00 0. -1.
         22    1    3    3    0    0 -0.10675144759E+02  0.15154771529E+02 -0.11414612512E+03  0.11564153102E+03  0.00000000000E+00 0. -1.
</event>
<event>
 7    1  0.6510186E-006  0.1786429E+03  0.7818608E-02  0.1275755E+00
          2   -1    0    0  502    0  0.00000000000E+00  0.00000000000E+00  0.27451230981E+04  0.27451230981E+04  0.00000000000E+00 0. -1.
          1   -1    0    0  501    0 -0.00000000000E+00 -0.00000000000E+00 -0.65588181268E+03  0.65588181268E+03  0.00000000000E+00 0. -1.
         25    2    1    2    0    0 -0.21187532444E+03  0.98109252923E+02 -0.74650756813E+02  0.27516130661E+03  0.12499772216E+03 0.  0.
          2    1    1    2  501    0  0.44782142469E+02 -0.37574356286E+02 -0.47620098036E+03  0.47977562071E+03  0.00000000000E+00 0. -1.
          1    1    1    2  502    0  0.16709318197E+03 -0.60534896636E+02  0.26400930226E+04  0.26460679835E+04  0.00000000000E+00 0. -1.
         22    1    3    3    0    0 -0.19489996551E+03  0.33159583123E+02 -0.54716458583E+02  0.20513275055E+03  0.00000000000E+00 0.  1.
         22    1    3    3    0    0 -0.16975358937E+02  0.64949669800E+02 -0.19934298230E+02  0.70028556061E+02  0.00000000000E+00 0.  1.
</event>
<event>
 7    1  0.6510186E-006  0.8080704E+02  0.7818608E-02  0.1355089E+00
          2   -1    0    0  502    0  0.00000000000E+00  0.00000000000E+00  0.14612051367E+04  0.14612051367E+04  0.00000000000E+00 0. -1.
          1   -1    0    0  501    0 -0.00000000000E+00 -0.00000000000E+00 -0.28267775547E+03  0.28267775547E+03  0.00000000000E+00 0. -1.
         25    2    1    2    0    0 -0.20044635551E+02 -0.14199955744E+03  0.11878244627E+04  0.12029611167E+04  0.12499132891E+03 0.  0.
          2    1    1    2  501    0  0.16091173500E+02  0.78870914479E+02 -0.26528838218E+03  0.27723180326E+03  0.00000000000E+00 0. -1.
          1    1    1    2  502    0  0.39534620508E+01  0.63128642960E+02  0.25599130066E+03  0.26368997219E+03  0.00000000000E+00 0. -1.
         22    1    3    3    0    0  0.23604879238E+02 -0.18516825785E+02  0.55519917487E+02  0.63107245216E+02  0.00000000000E+00 0.  1.
         22    1    3    3    0    0 -0.43649514789E+02 -0.12348273165E+03  0.11323045452E+04  0.11398538715E+04  0.00000000000E+00 0.  1.
</event>
<event>
 7    1  0.6510186E-006  0.1065734E+03  0.7818608E-02  0.1405912E+00
          2   -1    0    0  502    0  0.00000000000E+00  0.00000000000E+00  0.10861224684E+04  0.10861224684E+04  0.00000000000E+00 0. -1.
          1   -1    0    0  501    0 -0.00000000000E+00 -0.00000000000E+00 -0.40296198239E+02  0.40296198239E+02  0.00000000000E+00 0. -1.
         25    2    1    2    0    0 -0.10370701872E+03  0.75984843915E+01  0.23103104161E+03  0.28251150584E+03  0.12499810418E+03 0.  0.
          2    1    1    2  501    0  0.10822915012E+03  0.23768880018E+02  0.20285134834E+03  0.23114319829E+03  0.00000000000E+00 0. -1.
          1    1    1    2  502    0 -0.45221314049E+01 -0.31367364409E+02  0.61194388021E+03  0.61276396251E+03  0.00000000000E+00 0. -1.
         22    1    3    3    0    0 -0.10375357999E+03  0.10955910124E+02  0.80073304599E+02  0.13151643029E+03  0.00000000000E+00 0. -1.
         22    1    3    3    0    0  0.46561272921E-01 -0.33574257327E+01  0.15095773702E+03  0.15099507555E+03  0.00000000000E+00 0. -1.
</event>
<event>
 7    1  0.6510186E-006  0.5629162E+02  0.7818608E-02  0.1512663E+00
          2   -1    0    0  502    0  0.00000000000E+00  0.00000000000E+00  0.11871606279E+04  0.11871606279E+04  0.00000000000E+00 0. -1.
          1   -1    0    0  501    0 -0.00000000000E+00 -0.00000000000E+00 -0.32260897835E+03  0.32260897835E+03  0.00000000000E+00 0. -1.
         25    2    1    2    0    0 -0.30825441845E+02  0.31221922851E+02  0.76162041684E+03  0.77305617345E+03  0.12500068656E+03 0.  0.
          2    1    1    2  501    0 -0.26677115092E+02 -0.69958113532E+01 -0.31396476202E+03  0.31517373247E+03  0.00000000000E+00 0. -1.
          1    1    1    2  502    0  0.57502556938E+02 -0.24226111497E+02  0.41689599472E+03  0.42153970032E+03  0.00000000000E+00 0. -1.
         22    1    3    3    0    0  0.12227082659E+02  0.60210738272E+02  0.60385277038E+03  0.60697034758E+03  0.00000000000E+00 0.  1.
         22    1    3    3    0    0 -0.43052524504E+02 -0.28988815421E+02  0.15776764646E+03  0.16608582587E+03  0.00000000000E+00 0.  1.
</event>
<event>
 7    1  0.6510186E-006  0.3854554E+02  0.7818608E-02  0.1594519E+00
          2   -1    0    0  502    0  0.00000000000E+00  0.00000000000E+00  0.47059810488E+03  0.47059810488E+03  0.00000000000E+00 0. -1.
          1   -1    0    0  501    0 -0.00000000000E+00 -0.00000000000E+00 -0.16102749859E+03  0.16102749859E+03  0.00000000000E+00 0. -1.
         25    2    1    2    0    0  0.57398887598E+02 -0.13955268236E+02  0.20671724218E+03  0.24868957057E+03  0.12500040995E+03 0.  0.
          2    1    1    2  501    0 -0.23773813754E+02 -0.20058069820E+01 -0.13758269587E+03  0.13963601142E+03  0.00000000000E+00 0. -1.
          1    1    1    2  502    0 -0.33625073845E+02  0.15961075218E+02  0.24043605998E+03  0.24330002148E+03  0.00000000000E+00 0. -1.
         22    1    3    3    0    0  0.26851088681E+02  0.41291692053E+02  0.22869025693E+02  0.54304485377E+02  0.00000000000E+00 0. -1.
         22    1    3    3    0    0  0.30547798917E+02 -0.55246960289E+02  0.18384821649E+03  0.19438508520E+03  0.00000000000E+00 0. -1.
</event>
<event>
 7    1  0.6510186E-006  0.1255726E+03  0.7818608E-02  0.1360330E+00
          2   -1    0    0  502    0  0.00000000000E+00  0.00000000000E+00  0.18322888761E+04  0.18322888761E+04  0.00000000000E+00 0. -1.
          1   -1    0    0  501    0 -0.00000000000E+00 -0.00000000000E+00 -0.48448225909E+02  0.48448225909E+02  0.00000000000E+00 0. -1.
         25    2    1    2    0    0  0.25218631742E+02  0.10507991791E+03  0.36641301000E+03  0.40194916666E+03  0.12500748036E+03 0.  0.
          2    1    1    2  501    0  0.38261617971E+02  0.72574441643E+01 -0.14129192072E+02  0.41427719876E+02  0.00000000000E+00 0. -1.
          1    1    1    2  502    0 -0.63480249713E+02 -0.11233736208E+03  0.14315568322E+04  0.14373602154E+04  0.00000000000E+00 0. -1.
         22    1    3    3    0    0  0.18520585264E+02  0.83119170624E+01  0.24822068725E+03  0.24904941201E+03  0.00000000000E+00 0. -1.
         22    1    3    3    0    0  0.66980464776E+01  0.96768000849E+02  0.11819232275E+03  0.15289975465E+03  0.00000000000E+00 0. -1.
</event>
<event>
 7    1  0.6510186E-006  0.5060954E+02  0.7818608E-02  0.1447457E+00
          2   -1    0    0  502    0  0.00000000000E+00  0.00000000000E+00  0.14907065683E+03  0.14907065683E+03  0.00000000000E+00 0. -1.
          1   -1    0    0  501    0 -0.00000000000E+00 -0.00000000000E+00 -0.57226493671E+03  0.57226493671E+03  0.00000000000E+00 0. -1.
         25    2    1    2    0    0 -0.60865490279E+02  0.62501345331E+02 -0.14436532245E+03  0.20994674679E+03  0.12500105634E+03 0.  0.
          2    1    1    2  501    0  0.46287796725E+02 -0.14910407558E+02 -0.38819503901E+03  0.39122917669E+03  0.00000000000E+00 0. -1.
          1    1    1    2  502    0  0.14577693555E+02 -0.47590937773E+02  0.10936608158E+03  0.12015967006E+03  0.00000000000E+00 0. -1.
         22    1    3    3    0    0 -0.90430706026E+02  0.97829949034E+01 -0.74579009395E+02  0.11762418214E+03  0.00000000000E+00 0.  1.
         22    1    3    3    0    0  0.29565215746E+02  0.52718350427E+02 -0.69786313060E+02  0.92322564655E+02  0.00000000000E+00 0.  1.
</event>
<event>
 7    1  0.6510186E-006  0.9830505E+02  0.7818608E-02  0.1287886E+00
          2   -1    0    0  502    0  0.00000000000E+00  0.00000000000E+00  0.88096124497E+03  0.88096124497E+03  0.00000000000E+00 0. -1.
          1   -1    0    0  501    0 -0.00000000000E+00 -0.00000000000E+00 -0.19514939403E+03  0.19514939403E+03  0.00000000000E+00 0. -1.
         25    2    1    2    0    0  0.73854660936E+01 -0.27501469272E+02  0.11933395842E+01  0.12820425642E+03  0.12499612548E+03 0.  0.
          2    1    1    2  501    0 -0.43400955610E+02  0.11897150006E+03 -0.97380657543E+02  0.15975247490E+03  0.00000000000E+00 0. -1.
          1    1    1    2  502    0  0.36015489516E+02 -0.91470030784E+02  0.78199916890E+03  0.78815390767E+03  0.00000000000E+00 0. -1.
         22    1    3    3    0    0 -0.54903517539E+01  0.42450804276E+02  0.29141898706E+02  0.51782864021E+02  0.00000000000E+00 0.  1.
         22    1    3    3    0    0  0.12875817847E+02 -0.69952273548E+02 -0.27948559122E+02  0.76421392403E+02  0.00000000000E+00 0.  1.
</event>
<event>
 7    1  0.6510186E-006  0.6974607E+02  0.7818608E-02  0.1443089E+00
          2   -1    0    0  502    0  0.00000000000E+00  0.00000000000E+00  0.18937249344E+04  0.18937249344E+04  0.00000000000E+00 0. -1.
          1   -1    0    0  501    0 -0.00000000000E+00 -0.00000000000E+00 -0.33088167593E+02  0.33088167593E+02  0.00000000000E+00 0. -1.
         25    2    1    2    0    0 -0.37701191436E+02 -0.97407270704E+02  0.11650236043E+04  0.11763571962E+04  0.12500679290E+03 0.  0.
          2    1    1    2  501    0  0.20273491526E+02  0.65394440271E+02  0.16578323560E+02  0.70443509914E+02  0.00000000000E+00 0. -1.
          1    1    1    2  502    0  0.17427699910E+02  0.32012830434E+02  0.67903483894E+03  0.68001239587E+03  0.00000000000E+00 0. -1.
         22    1    3    3    0    0 -0.55662197535E+01 -0.11706872813E+02  0.70189368704E+01  0.14741070117E+02  0.00000000000E+00 0. -1.
         22    1    3    3    0    0 -0.32134971682E+02 -0.85700397891E+02  0.11580046675E+04  0.11616161261E+04  0.00000000000E+00 0. -1.
</event>
<event>
 7    1  0.6510186E-006  0.9162082E+02  0.7818608E-02  0.1443119E+00
          2   -1    0    0  502    0  0.00000000000E+00  0.00000000000E+00  0.14201857983E+04  0.14201857983E+04  0.00000000000E+00 0. -1.
          1   -1    0    0  501    0 -0.00000000000E+00 -0.00000000000E+00 -0.59931609439E+03  0.59931609439E+03  0.00000000000E+00 0. -1.
         25    2    1    2    0    0 -0.18184505205E+02 -0.70739560093E+02  0.70657889733E+02  0.16109748349E+03  0.12500040085E+03 0.  0.
          2    1    1    2  501    0  0.73470727098E+00  0.92304308576E+02 -0.55010295700E+03  0.55779376877E+03  0.00000000000E+00 0. -1.
          1    1    1    2  502    0  0.17449797934E+02 -0.21564748483E+02  0.13003147712E+04  0.13006106404E+04  0.00000000000E+00 0. -1.
         22    1    3    3    0    0 -0.33724122763E+02 -0.10135169514E+03  0.37058738181E+02  0.11306118980E+03  0.00000000000E+00 0.  1.
         22    1    3    3    0    0  0.15539617558E+02  0.30612135048E+02  0.33599151552E+02  0.48036293686E+02  0.00000000000E+00 0.  1.
</event>
<event>
 7    1  0.6510186E-006  0.6322754E+02  0.7818608E-02  0.1424665E+00
          2   -1    0    0  502    0  0.00000000000E+00  0.00000000000E+00  0.49524662912E+03  0.49524662912E+03  0.00000000000E+00 0. -1.
          1   -1    0    0  501    0 -0.00000000000E+00 -0.00000000000E+00 -0.30902290519E+03  0.30902290519E+03  0.00000000000E+00 0. -1.
         25    2    1    2    0    0 -0.12163027002E+02 -0.36733539676E+02  0.48321259619E+02  0.13948422240E+03  0.12499444790E+03 0.  0.
          2    1    1    2  501    0 -0.28878460289E+02  0.57942761378E+02 -0.25810076267E+03  0.26609647265E+03  0.00000000000E+00 0. -1.
          1    1    1    2  502    0  0.41041487290E+02 -0.21209221702E+02  0.39600322698E+03  0.39868883925E+03  0.00000000000E+00 0. -1.
         22    1    3    3    0    0  0.26297175074E+02  0.38154820292E+02  0.21859432261E+02  0.51236378748E+02  0.00000000000E+00 0.  1.
         22    1    3    3    0    0 -0.38460202075E+02 -0.74888359968E+02  0.26461827358E+02  0.88247843654E+02  0.00000000000E+00 0.  1.
</event>
<event>
 7    1  0.6510186E-006  0.4752399E+02  0.7818608E-02  0.1516707E+00
          2   -1    0    0  502    0  0.00000000000E+00  0.00000000000E+00  0.19346691239E+04  0.19346691239E+04  0.00000000000E+00 0. -1.
          1   -1    0    0  501    0 -0.00000000000E+00 -0.00000000000E+00 -0.62027264729E+01  0.62027264729E+01  0.00000000000E+00 0. -1.
         25    2    1    2    0    0 -0.26277641037E+02  0.36098980962E+02  0.11630591855E+04  0.11706085702E+04  0.12499641960E+03 0.  0.
          2    1    1    2  501    0  0.48848284709E+02 -0.13712842705E+02  0.35229033176E+03  0.35592509721E+03  0.00000000000E+00 0. -1.
          1    1    1    2  502    0 -0.22570643673E+02 -0.22386138258E+02  0.41311688020E+03  0.41433818294E+03  0.00000000000E+00 0. -1.
         22    1    3    3    0    0  0.22288745921E+02  0.67907455896E+02  0.51171066099E+03  0.51667786031E+03  0.00000000000E+00 0. -1.
         22    1    3    3    0    0 -0.48566386957E+02 -0.31808474933E+02  0.65134852449E+03  0.65393070992E+03  0.00000000000E+00 0. -1.
</event>
<event>
 7    1  0.6510186E-006  0.1106212E+03  0.7818608E-02  0.1285959E+00
          2   -1    0    0  502    0  0.00000000000E+00  0.00000000000E+00  0.14752840728E+04  0.14752840728E+04  0.00000000000E+00 0. -1.
          1   -1    0    0  501    0 -0.00000000000E+00 -0.00000000000E+00 -0.35787086063E+03  0.35787086063E+03  0.00000000000E+00 0. -1.
         25    2    1    2    0    0 -0.76240486641E+02 -0.74787345166E+02 -0.39035460686E+02  0.16898125695E+03  0.12500055684E+03 0.  0.
          2    1    1    2  501    0  0.11694336323E+03 -0.60662610478E+00 -0.23901047874E+03  0.26608669104E+03  0.00000000000E+00 0. -1.
          1    1    1    2  502    0 -0.40702876589E+02  0.75393971270E+02  0.13954591516E+04  0.13980869854E+04  0.00000000000E+00 0. -1.
         22    1    3    3    0    0  0.21818119700E+02 -0.57151774350E+02  0.20534859393E+01  0.61209251451E+02  0.00000000000E+00 0. -1.
         22    1    3    3    0    0 -0.98058606341E+02 -0.17635570815E+02 -0.41088946626E+02  0.10777200550E+03  0.00000000000E+00 0. -1.
</event>
<event>
 7    1  0.6510186E-006  0.8846381E+02  0.7818608E-02  0.1321159E+00
          2   -1    0    0  502    0  0.00000000000E+00  0.00000000000E+00  0.33089802539E+04  0.33089802539E+04  0.00000000000E+00 0. -1.
          1   -1    0    0  501    0 -0.00000000000E+00 -0.00000000000E+00 -0.17240943392E+04  0.17240943392E+04  0.00000000000E+00 0. -1.
         25    2    1    2    0    0 -0.41908434704E+02 -0.28502505679E+02  0.21258076162E+04  0.21300826538E+04  0.12500152511E+03 0.  0.
          2    1    1    2  501    0 -0.13881083537E+02 -0.87367964598E+02 -0.17173141055E+04  0.17195911092E+04  0.00000000000E+00 0. -1.
          1    1    1    2  502    0  0.55789518241E+02  0.11587047028E+03  0.11763924041E+04  0.11834008301E+04  0.00000000000E+00 0. -1.
         22    1    3    3    0    0 -0.65806996594E+01  0.46924319738E+02  0.10433315473E+04  0.10444069681E+04  0.00000000000E+00 0.  1.
         22    1    3    3    0    0 -0.35327735045E+02 -0.75426825417E+02  0.10824760688E+04  0.10856756857E+04  0.00000000000E+00 0.  1.
</event>
<event>
 7    1  0.6510186E-006  0.7849195E+02  0.7818608E-02  0.1415611E+00
          2   -1    0    0  502    0  0.00000000000E+00  0.00000000000E+00  0.15565487646E+04  0.15565487646E+04  0.00000000000E+00 0. -1.
          1   -1    0    0  501    0 -0.00000000000E+00 -0.00000000000E+00 -0.15900457191E+04  0.15900457191E+04  0.00000000000E+00 0. -1.
         25    2    1    2    0    0  0.26616880748E+02 -0.54433278909E+02  0.86235926524E+02  0.16349377484E+03  0.12498855626E+03 0.  0.
          2    1    1    2  501    0  0.51823103867E+01  0.78528063330E+02 -0.15501404305E+04  0.15521368713E+04  0.00000000000E+00 0. -1.
          1    1    1    2  502    0 -0.31799191134E+02 -0.24094784421E+02  0.14304075494E+04  0.14309638376E+04  0.00000000000E+00 0. -1.
         22    1    3    3    0    0  0.21479914208E+02 -0.56418688832E+02 -0.14921888278E+02  0.62186155321E+02  0.00000000000E+00 0. -1.
         22    1    3    3    0    0  0.51369665401E+01  0.19854099228E+01  0.10115781480E+03  0.10130761952E+03  0.00000000000E+00 0. -1.
</event>
<event>
 7    1  0.6510186E-006  0.7262998E+02  0.7818608E-02  0.1366765E+00
          2   -1    0    0  502    0  0.00000000000E+00  0.00000000000E+00  0.56169097843E+03  0.56169097843E+03  0.00000000000E+00 0. -1.
          1   -1    0    0  501    0 -0.00000000000E+00 -0.00000000000E+00 -0.16825579521E+04  0.16825579521E+04  0.00000000000E+00 0. -1.
         25    2    1    2    0    0  0.19999117432E+02 -0.57181163244E+02  0.51577810524E+02  0.14817523704E+03  0.12500392076E+03 0.  0.
          2    1    1    2  501    0  0.43795539750E+02  0.58336289583E+02 -0.16312363801E+04  0.16328665897E+04  0.00000000000E+00 0. -1.
          1    1    1    2  502    0 -0.63794657182E+02 -0.11551263390E+01  0.45879159587E+03  0.46320710384E+03  0.00000000000E+00 0. -1.
         22    1    3    3    0    0  0.17194023224E+02  0.38805959695E+02  0.10460113295E+02  0.43714424537E+02  0.00000000000E+00 0. -1.
         22    1    3    3    0    0  0.28050942083E+01 -0.95987122939E+02  0.41117697229E+02  0.10446081250E+03  0.00000000000E+00 0. -1.
</event>
<event>
 7    1  0.6510186E-006  0.5469743E+02  0.7818608E-02  0.1486281E+00
          2   -1    0    0  502    0  0.00000000000E+00  0.00000000000E+00  0.28929701963E+04  0.28929701963E+04  0.00000000000E+00 0. -1.
          1   -1    0    0  501    0 -0.00000000000E+00 -0.00000000000E+00 -0.58359764943E+01  0.58359764943E+01  0.00000000000E+00 0. -1.
         25    2    1    2    0    0  0.77857005975E+01 -0.71576801395E+01  0.98204406962E+03  0.99002337076E+03  0.12499548172E+03 0.  0.
          2    1    1    2  501    0 -0.13534673795E+02  0.61552147182E+02  0.11392446035E+04  0.11409864683E+04  0.00000000000E+00 0. -1.
          1    1    1    2  502    0  0.57489731975E+01 -0.54394467042E+02  0.76584554675E+03  0.76779633381E+03  0.00000000000E+00 0. -1.
         22    1    3    3    0    0  0.16388764517E+02 -0.40894275539E+02  0.12988511731E+03  0.13715347999E+03  0.00000000000E+00 0.  1.
         22    1    3    3    0    0 -0.86030639196E+01  0.33736595399E+02  0.85215895231E+03  0.85286989077E+03  0.00000000000E+00 0.  1.
</event>
<event>
 7    1  0.6510186E-006  0.1764612E+03  0.7818608E-02  0.1347925E+00
          2   -1    0    0  502    0  0.00000000000E+00  0.00000000000E+00  0.10934128704E+03  0.10934128704E+03  0.00000000000E+00 0. -1.
          1   -1    0    0  501    0 -0.00000000000E+00 -0.00000000000E+00 -0.22881256278E+04  0.22881256278E+04  0.00000000000E+00 0. -1.
         25    2    1    2    0    0 -0.37027807152E+02 -0.19513228514E+03 -0.12704178640E+04  0.12919106657E+04  0.12499580634E+03 0.  0.
          2    1    1    2  501    0 -0.13835914378E+02  0.27502130286E+02 -0.92869366694E+03  0.92920381333E+03  0.00000000000E+00 0. -1.
          1    1    1    2  502    0  0.50863721531E+02  0.16763015486E+03  0.20327190167E+02  0.17635243589E+03  0.00000000000E+00 0. -1.
         22    1    3    3    0    0 -0.84953641102E+01 -0.97017379358E+01 -0.45520975574E+03  0.45539237658E+03  0.00000000000E+00 0. -1.
         22    1    3    3    0    0 -0.28532443042E+02 -0.18543054721E+03 -0.81520810829E+03  0.83651828908E+03  0.00000000000E+00 0. -1.
</event>
<event>
 7    1  0.6510186E-006  0.9031871E+02  0.7818608E-02  0.1426978E+00
          2   -1    0    0  502    0  0.00000000000E+00  0.00000000000E+00  0.20934550343E+04  0.20934550343E+04  0.00000000000E+00 0. -1.
          1   -1    0    0  501    0 -0.00000000000E+00 -0.00000000000E+00 -0.78028250972E+03  0.78028250972E+03  0.00000000000E+00 0. -1.
         25    2    1    2    0    0 -0.54186611318E+02 -0.85433553678E+02 -0.47677962656E+03  0.50316952504E+03  0.12500271070E+03 0.  0.
          2    1    1    2  501    0  0.65942446237E+02  0.55913007874E+02 -0.28374667212E+03  0.29662576524E+03  0.00000000000E+00 0. -1.
          1    1    1    2  502    0 -0.11755834919E+02  0.29520545804E+02  0.20736988233E+04  0.20739422538E+04  0.00000000000E+00 0. -1.
         22    1    3    3    0    0  0.29283197601E+02 -0.60514882457E+02 -0.13997295316E+03  0.15528034092E+03  0.00000000000E+00 0.  1.
         22    1    3    3    0    0 -0.83469808919E+02 -0.24918671221E+02 -0.33680667341E+03  0.34788918412E+03  0.00000000000E+00 0.  1.
</event>
<event>
 7    1  0.6510186E-006  0.7868491E+02  0.7818608E-02  0.1335029E+00
          2   -1    0    0  502    0  0.00000000000E+00  0.00000000000E+00  0.31914582379E+03  0.31914582379E+03  0.00000000000E+00 0. -1.
          1   -1    0    0  501    0 -0.00000000000E+00 -0.00000000000E+00 -0.40016504733E+04  0.40016504733E+04  0.00000000000E+00 0. -1.
         25    2    1    2    0    0  0.23707468395E+02  0.63471147229E+02  0.15556689807E+03  0.21075012204E+03  0.12499569423E+03 0.  0.
          2    1    1    2  501    0  0.69324060359E+02 -0.33932358430E+02 -0.39561185758E+04  0.39568714177E+04  0.00000000000E+00 0. -1.
          1    1    1    2  502    0 -0.93031528754E+02 -0.29538788799E+02  0.11804702828E+03  0.15317475729E+03  0.00000000000E+00 0. -1.
         22    1    3    3    0    0  0.24213221470E+02 -0.22458927714E+02  0.10713548499E+03  0.11211019433E+03  0.00000000000E+00 0.  1.
         22    1    3    3    0    0 -0.50575307523E+00  0.85930074943E+02  0.48431413083E+02  0.98639927712E+02  0.00000000000E+00 0.  1.
</event>
<event>
 7    1  0.6510186E-006  0.5884308E+02  0.7818608E-02  0.1545332E+00
          2   -1    0    0  502    0  0.00000000000E+00  0.00000000000E+00  0.72731866040E+03  0.72731866040E+03  0.00000000000E+00 0. -1.
          1   -1    0    0  501    0 -0.00000000000E+00 -0.00000000000E+00 -0.47778025103E+02  0.47778025103E+02  0.00000000000E+00 0. -1.
         25    2    1    2    0    0 -0.35641276586E+02  0.26111706827E+02  0.21858245580E+03  0.25564704815E+03  0.12500000565E+03 0.  0.
          2    1    1    2  501    0  0.56624155993E+02 -0.22680330499E+02  0.30769511181E+01  0.61075036322E+02  0.00000000000E+00 0. -1.
          1    1    1    2  502    0 -0.20982879408E+02 -0.34313763282E+01  0.45788122837E+03  0.45837460103E+03  0.00000000000E+00 0. -1.
         22    1    3    3    0    0 -0.96196422107E-01  0.12218950961E+02  0.21711150945E+03  0.21745509779E+03  0.00000000000E+00 0.  1.
         22    1    3    3    0    0 -0.35545080164E+02  0.13892755866E+02  0.14709463494E+01  0.38191950363E+02  0.00000000000E+00 0.  1.
</event>
<event>
 7    1  0.6510186E-006  0.3673812E+02  0.7818608E-02  0.1558815E+00
          2   -1    0    0  502    0  0.00000000000E+00  0.00000000000E+00  0.13445410583E+03  0.13445410583E+03  0.00000000000E+00 0. -1.
          1   -1    0    0  501    0 -0.00000000000E+00 -0.00000000000E+00 -0.79497120464E+02  0.79497120464E+02  0.00000000000E+00 0. -1.
         25    2    1    2    0    0  0.48063673854E+02  0.16063961794E+02  0.51977611804E+02  0.14455058155E+03  0.12500012354E+03 0.  0.
          2    1    1    2  501    0 -0.19726953168E+02 -0.29207907493E+02  0.11409527791E+02  0.37046347537E+02  0.00000000000E+00 0. -1.
          1    1    1    2  502    0 -0.28336720685E+02  0.13143945699E+02 -0.84301542270E+01  0.32354297211E+02  0.00000000000E+00 0. -1.
         22    1    3    3    0    0  0.56533274144E+02  0.51391304004E+02 -0.54523121092E+01  0.76595071121E+02  0.00000000000E+00 0. -1.
         22    1    3    3    0    0 -0.84696002901E+01 -0.35327342210E+02  0.57429923913E+02  0.67955510427E+02  0.00000000000E+00 0. -1.
</event>
<event>
 7    1  0.6510186E-006  0.4542185E+02  0.7818608E-02  0.1517971E+00
          2   -1    0    0  502    0  0.00000000000E+00  0.00000000000E+00  0.91053820476E+02  0.91053820476E+02  0.00000000000E+00 0. -1.
          1   -1    0    0  501    0 -0.00000000000E+00 -0.00000000000E+00 -0.10606215790E+04  0.10606215790E+04  0.00000000000E+00 0. -1.
         25    2    1    2    0    0  0.27606629234E+02 -0.49846983464E+02 -0.59559803070E+03  0.61123585001E+03  0.12500160970E+03 0.  0.
          2    1    1    2  501    0 -0.32640709473E+02  0.47172359616E+01 -0.45036305636E+03  0.45156898782E+03  0.00000000000E+00 0. -1.
          1    1    1    2  502    0  0.50340802389E+01  0.45129747503E+02  0.76393328560E+02  0.88870561616E+02  0.00000000000E+00 0. -1.
         22    1    3    3    0    0 -0.96733539836E+01 -0.56963077646E+02 -0.11085019967E+03  0.12500453096E+03  0.00000000000E+00 0. -1.
         22    1    3    3    0    0  0.37279983218E+02  0.71160941817E+01 -0.48474783103E+03  0.48623131906E+03  0.00000000000E+00 0. -1.
</event>
<event>
 7    1  0.6510186E-006  0.1941859E+03  0.7818608E-02  0.1157942E+00
          2   -1    0    0  502    0  0.00000000000E+00  0.00000000000E+00  0.19701743966E+03  0.19701743966E+03  0.00000000000E+00 0. -1.
          1   -1    0    0  501    0 -0.00000000000E+00 -0.00000000000E+00 -0.15920262527E+04  0.15920262527E+04  0.00000000000E+00 0. -1.
         25    2    1    2    0    0  0.15033104862E+03 -0.96815733888E+01 -0.29904430774E+03  0.35741536300E+03  0.12500034671E+03 0.  0.
          2    1    1    2  501    0 -0.41978392512E+02  0.18959429768E+03 -0.11869616488E+04  0.12027410939E+04  0.00000000000E+00 0. -1.
          1    1    1    2  502    0 -0.10835265610E+03 -0.17991272430E+03  0.90997143495E+02  0.22888723550E+03  0.00000000000E+00 0. -1.
         22    1    3    3    0    0 -0.83995718283E+01  0.23826941518E+02 -0.86007807083E+02  0.89641613262E+02  0.00000000000E+00 0.  1.
         22    1    3    3    0    0  0.15873062045E+03 -0.33508514906E+02 -0.21303650065E+03  0.26777374974E+03  0.00000000000E+00 0.  1.
</event>
<event>
 7    1  0.6510186E-006  0.1290620E+03  0.7818608E-02  0.1270844E+00
          2   -1    0    0  502    0  0.00000000000E+00  0.00000000000E+00  0.32277671282E+04  0.32277671282E+04  0.00000000000E+00 0. -1.
          1   -1    0    0  501    0 -0.00000000000E+00 -0.00000000000E+00 -0.79203070102E+02  0.79203070102E+02  0.00000000000E+00 0. -1.
         25    2    1    2    0    0  0.19050147472E+03  0.37108375073E+02  0.19231471523E+04  0.19369533323E+04  0.12500159605E+03 0.  0.
          2    1    1    2  501    0 -0.11010482020E+03 -0.64168302389E+02 -0.13542992736E+02  0.12815636978E+03  0.00000000000E+00 0. -1.
          1    1    1    2  502    0 -0.80396654516E+02  0.27059927316E+02  0.12389598986E+04  0.12418604962E+04  0.00000000000E+00 0. -1.
         22    1    3    3    0    0  0.19301221245E+03  0.57462309042E+02  0.15196941114E+04  0.15329793943E+04  0.00000000000E+00 0.  1.
         22    1    3    3    0    0 -0.25107377315E+01 -0.20353933970E+02  0.40345304087E+03  0.40397393804E+03  0.00000000000E+00 0.  1.
</event>
<event>
 7    1  0.6510186E-006  0.4200381E+02  0.7818608E-02  0.1513717E+00
          2   -1    0    0  502    0  0.00000000000E+00  0.00000000000E+00  0.23721422350E+04  0.23721422350E+04  0.00000000000E+00 0. -1.
          1   -1    0    0  501    0 -0.00000000000E+00 -0.00000000000E+00 -0.92315423022E+03  0.92315423022E+03  0.00000000000E+00 0. -1.
         25    2    1    2    0    0 -0.23514974857E+02 -0.55013561568E+02  0.49808272856E+03  0.51700258881E+03  0.12500330538E+03 0.  0.
          2    1    1    2  501    0 -0.10285086698E+02  0.40719660291E+02 -0.91303096693E+03  0.91399640060E+03  0.00000000000E+00 0. -1.
          1    1    1    2  502    0  0.33800061555E+02  0.14293901276E+02  0.18639362432E+04  0.18642974758E+04  0.00000000000E+00 0. -1.
         22    1    3    3    0    0 -0.64498253588E+02 -0.19845078793E+02  0.39406517052E+03  0.39980146384E+03  0.00000000000E+00 0. -1.
         22    1    3    3    0    0  0.40983278732E+02 -0.35168482774E+02  0.10401755804E+03  0.11720112498E+03  0.00000000000E+00 0. -1.
</event>
<event>
 7    1  0.6510186E-006  0.4762826E+02  0.7818608E-02  0.1481359E+00
          2   -1    0    0  502    0  0.00000000000E+00  0.00000000000E+00  0.19143792055E+04  0.19143792055E+04  0.00000000000E+00 0. -1.
          1   -1    0    0  501    0 -0.00000000000E+00 -0.00000000000E+00 -0.26934037985E+02  0.26934037985E+02  0.00000000000E+00 0. -1.
         25    2    1    2    0    0  0.21493927155E+02 -0.62541245262E+01  0.18024094274E+03  0.22048280010E+03  0.12499905888E+03 0.  0.
          2    1    1    2  501    0 -0.17901104305E+02  0.53746678624E+02  0.11780656835E+03  0.13071932736E+03  0.00000000000E+00 0. -1.
          1    1    1    2  502    0 -0.35928228496E+01 -0.47492554098E+02  0.15893976564E+04  0.15901111160E+04  0.00000000000E+00 0. -1.
         22    1    3    3    0    0  0.14319588913E+02 -0.59812921086E+02  0.49278241286E+02  0.78809778706E+02  0.00000000000E+00 0.  1.
         22    1    3    3    0    0  0.71743382423E+01  0.53558796560E+02  0.13096270145E+03  0.14167302139E+03  0.00000000000E+00 0.  1.
</event>
<event>
 7    1  0.6510186E-006  0.6478812E+02  0.7818608E-02  0.1425106E+00
          2   -1    0    0  502    0  0.00000000000E+00  0.00000000000E+00  0.17272597834E+03  0.17272597834E+03  0.00000000000E+00 0. -1.
          1   -1    0    0  501    0 -0.00000000000E+00 -0.00000000000E+00 -0.32010341788E+03  0.32010341788E+03  0.00000000000E+00 0. -1.
         25    2    1    2    0    0 -0.19922592410E+02 -0.18838099584E+02  0.30578197654E+02  0.13157528561E+03  0.12500098371E+03 0.  0.
          2    1    1    2  501    0  0.64804569539E+02  0.16692298350E+02 -0.25958657858E+03  0.26807360339E+03  0.00000000000E+00 0. -1.
          1    1    1    2  502    0 -0.44881977129E+02  0.21458012339E+01  0.81630941379E+02  0.93180507213E+02  0.00000000000E+00 0. -1.
         22    1    3    3    0    0 -0.48824994148E+02  0.22294838833E+02 -0.22741397127E+02  0.58293318961E+02  0.00000000000E+00 0. -1.
         22    1    3    3    0    0  0.28902401738E+02 -0.41132938417E+02  0.53319594781E+02  0.73281966654E+02  0.00000000000E+00 0. -1.
</event>
<event>
 7    1  0.6510186E-006  0.5036022E+02  0.7818608E-02  0.1559740E+00
          2   -1    0    0  502    0  0.00000000000E+00  0.00000000000E+00  0.10101058797E+04  0.10101058797E+04  0.00000000000E+00 0. -1.
          1   -1    0    0  501    0 -0.00000000000E+00 -0.00000000000E+00 -0.82770440923E+02  0.82770440923E+02  0.00000000000E+00 0. -1.
         25    2    1    2    0    0 -0.19975929566E+01  0.67937840124E+02  0.36978277653E+02  0.14700931041E+03  0.12499921532E+03 0.  0.
          2    1    1    2  501    0  0.77843243713E+01 -0.46035231987E+02 -0.78758547489E+01  0.47348361936E+02  0.00000000000E+00 0. -1.
          1    1    1    2  502    0 -0.57867314146E+01 -0.21902608137E+02  0.89823301587E+03  0.89851864828E+03  0.00000000000E+00 0. -1.
         22    1    3    3    0    0 -0.15637373326E+02  0.10268273390E+03  0.19043805314E+02  0.10559800096E+03  0.00000000000E+00 0. -1.
         22    1    3    3    0    0  0.13639780369E+02 -0.34744893776E+02  0.17934472339E+02  0.41411309447E+02  0.00000000000E+00 0. -1.
</event>
<event>
 7    1  0.6510186E-006  0.7448504E+02  0.7818608E-02  0.1393597E+00
          2   -1    0    0  502    0  0.00000000000E+00  0.00000000000E+00  0.22424932997E+03  0.22424932997E+03  0.00000000000E+00 0. -1.
          1   -1    0    0  501    0 -0.00000000000E+00 -0.00000000000E+00 -0.13980448080E+04  0.13980448080E+04  0.00000000000E+00 0. -1.
         25    2    1    2    0    0 -0.25886256886E+02  0.28185640082E+02 -0.73922269022E+03  0.75069243017E+03  0.12499764152E+03 0.  0.
          2    1    1    2  501    0  0.18755678652E+02  0.46338871976E+02 -0.64568027468E+03  0.64761260307E+03  0.00000000000E+00 0. -1.
          1    1    1    2  502    0  0.71305782349E+01 -0.74524512058E+02  0.21110748685E+03  0.22398910475E+03  0.00000000000E+00 0. -1.
         22    1    3    3    0    0  0.25498906571E+02 -0.38414467263E+02 -0.23121186341E+03  0.23576427064E+03  0.00000000000E+00 0.  1.
         22    1    3    3    0    0 -0.51385163458E+02  0.66600107345E+02 -0.50801082681E+03  0.51492815953E+03  0.00000000000E+00 0.  1.
</event>
<event>
 7    1  0.6510186E-006  0.5786998E+02  0.7818608E-02  0.1480551E+00
          2   -1    0    0  502    0  0.00000000000E+00  0.00000000000E+00  0.29459175713E+03  0.29459175713E+03  0.00000000000E+00 0. -1.
          1   -1    0    0  501    0 -0.00000000000E+00 -0.00000000000E+00 -0.63053260001E+02  0.63053260001E+02  0.00000000000E+00 0. -1.
         25    2    1    2    0    0  0.21254268845E+01 -0.49069596662E+02  0.47001612860E+02  0.14228901268E+03  0.12499867504E+03 0.  0.
          2    1    1    2  501    0  0.33464632717E+02  0.11829551861E+01  0.17084818874E+02  0.37592180860E+02  0.00000000000E+00 0. -1.
          1    1    1    2  502    0 -0.35590059602E+02  0.47886641476E+02  0.16745206539E+03  0.17776382360E+03  0.00000000000E+00 0. -1.
         22    1    3    3    0    0 -0.44765399383E+02 -0.30197959039E+02 -0.20673808580E+02  0.57820965689E+02  0.00000000000E+00 0.  1.
         22    1    3    3    0    0  0.46890826268E+02 -0.18871637623E+02  0.67675421440E+02  0.84468046987E+02  0.00000000000E+00 0.  1.
</event>
<event>
 7    1  0.6510186E-006  0.5398512E+02  0.7818608E-02  0.1437149E+00
          2   -1    0    0  502    0  0.00000000000E+00  0.00000000000E+00  0.10602015869E+04  0.10602015869E+04  0.00000000000E+00 0. -1.
          1   -1    0    0  501    0 -0.00000000000E+00 -0.00000000000E+00 -0.22056312015E+02  0.22056312015E+02  0.00000000000E+00 0. -1.
         25    2    1    2    0    0  0.19675093009E+02 -0.43552926667E+01  0.58668883842E+03  0.60019508505E+03  0.12499707649E+03 0.  0.
          2    1    1    2  501    0  0.24992895316E+02  0.47851318185E+02  0.43390030645E+02  0.69261015208E+02  0.00000000000E+00 0. -1.
          1    1    1    2  502    0 -0.44667988324E+02 -0.43496025518E+02  0.40806640582E+03  0.41280179866E+03  0.00000000000E+00 0. -1.
         22    1    3    3    0    0  0.63647227256E+02 -0.34426689962E+02  0.37404010954E+03  0.38097528800E+03  0.00000000000E+00 0.  1.
         22    1    3    3    0    0 -0.43972134247E+02  0.30071397295E+02  0.21264872888E+03  0.21921979705E+03  0.00000000000E+00 0.  1.
</event>
<event>
 7    1  0.6510186E-006  0.4686674E+02  0.7818608E-02  0.1552628E+00
          2   -1    0    0  502    0  0.00000000000E+00  0.00000000000E+00  0.45403024337E+03  0.45403024337E+03  0.00000000000E+00 0. -1.
          1   -1    0    0  501    0 -0.00000000000E+00 -0.00000000000E+00 -0.25078088564E+03  0.25078088564E+03  0.00000000000E+00 0. -1.
         25    2    1    2    0    0 -0.21784554259E+02  0.16136742981E+02 -0.12089682529E+03  0.17600139431E+03  0.12500194860E+03 0.  0.
          2    1    1    2  501    0 -0.24426400577E+02 -0.72195080716E+01 -0.99423047005E+02  0.10263387656E+03  0.00000000000E+00 0. -1.
          1    1    1    2  502    0  0.46210954836E+02 -0.89172349096E+01  0.42356923003E+03  0.42617585813E+03  0.00000000000E+00 0. -1.
         22    1    3    3    0    0 -0.19438654267E+01 -0.53017943757E+02 -0.70182901481E+02  0.87979092023E+02  0.00000000000E+00 0.  1.
         22    1    3    3    0    0 -0.19840688832E+02  0.69154686738E+02 -0.50713923814E+02  0.88022302287E+02  0.00000000000E+00 0.  1.
</event>
<event>
 7    1  0.6510186E-006  0.8536386E+02  0.7818608E-02  0.1395136E+00
          2   -1    0    0  502    0  0.00000000000E+00  0.00000000000E+00  0.67625712311E+02  0.67625712311E+02  0.00000000000E+00 0. -1.
          1   -1    0    0  501    0 -0.00000000000E+00 -0.00000000000E+00 -0.54809666244E+03  0.54809666244E+03  0.00000000000E+00 0. -1.
         25    2    1    2    0    0 -0.79683533590E+02  0.20484664400E+02 -0.20836082149E+03  0.25653056538E+03  0.12499844816E+03 0.  0.
          2    1    1    2  501    0  0.85586071642E+02  0.22196248637E+02 -0.29669144168E+03  0.30958595039E+03  0.00000000000E+00 0. -1.
          1    1    1    2  502    0 -0.59025380516E+01 -0.42680913037E+02  0.24581313050E+02  0.49605858972E+02  0.00000000000E+00 0. -1.
         22    1    3    3    0    0 -0.11105641963E+03  0.27560309929E+02 -0.13872608224E+03  0.17982776459E+03  0.00000000000E+00 0.  1.
         22    1    3    3    0    0  0.31372886042E+02 -0.70756455286E+01 -0.69634739256E+02  0.76702800793E+02  0.00000000000E+00 0.  1.
</event>
<event>
 7    1  0.6510186E-006  0.4971726E+02  0.7818608E-02  0.1530982E+00
          2   -1    0    0  502    0  0.00000000000E+00  0.00000000000E+00  0.32168459847E+03  0.32168459847E+03  0.00000000000E+00 0. -1.
          1   -1    0    0  501    0 -0.00000000000E+00 -0.00000000000E+00 -0.44912510279E+03  0.44912510279E+03  0.00000000000E+00 0. -1.
         25    2    1    2    0    0  0.76330662511E+02  0.36639769402E+01 -0.12271971429E+03  0.19111444589E+03  0.12499923354E+03 0.  0.
          2    1    1    2  501    0 -0.27017123603E+02 -0.58082524659E+01 -0.28942630180E+03  0.29074257504E+03  0.00000000000E+00 0. -1.
          1    1    1    2  502    0 -0.49313538908E+02  0.21442755256E+01  0.28470551178E+03  0.28895268034E+03  0.00000000000E+00 0. -1.
         22    1    3    3    0    0  0.37905147429E+02 -0.60129247820E+02 -0.49051636629E+02  0.86361969066E+02  0.00000000000E+00 0. -1.
         22    1    3    3    0    0  0.38425515082E+02  0.63793224760E+02 -0.73668077660E+02  0.10475247682E+03  0.00000000000E+00 0. -1.
</event>
<event>
 7    1  0.6510186E-006  0.1344879E+03  0.7818608E-02  0.1357470E+00
          2   -1    0    0  502    0  0.00000000000E+00  0.00000000000E+00  0.18536287637E+04  0.18536287637E+04  0.00000000000E+00 0. -1.
          1   -1    0    0  501    0 -0.00000000000E+00 -0.00000000000E+00 -0.10927258104E+03  0.10927258104E+03  0.00000000000E+00 0. -1.
         25    2    1    2    0    0  0.12089178834E+03 -0.33379483407E+02  0.44746165311E+03  0.48122340299E+03  0.12500007275E+03 0.  0.
          2    1    1    2  501    0 -0.13592757797E+03 -0.69886725044E+00 -0.41996329638E+02  0.14226906400E+03  0.00000000000E+00 0. -1.
          1    1    1    2  502    0  0.15035789621E+02  0.34078350658E+02  0.13388908592E+04  0.13394088777E+04  0.00000000000E+00 0. -1.
         22    1    3    3    0    0  0.51414844938E+02 -0.68666803456E+02  0.32451964886E+03  0.33566593314E+03  0.00000000000E+00 0.  1.
         22    1    3    3    0    0  0.69476943407E+02  0.35287320049E+02  0.12294200425E+03  0.14555746986E+03  0.00000000000E+00 0.  1.
</event>
<event>
 7    1  0.6510186E-006  0.2434779E+03  0.7818608E-02  0.1299934E+00
          2   -1    0    0  502    0  0.00000000000E+00  0.00000000000E+00  0.17504149548E+03  0.17504149548E+03  0.00000000000E+00 0. -1.
          1   -1    0    0  501    0 -0.00000000000E+00 -0.00000000000E+00 -0.55866052607E+03  0.55866052607E+03  0.00000000000E+00 0. -1.
         25    2    1    2    0    0  0.15961043083E+03 -0.17968495694E+03 -0.15633357257E+03  0.31277254036E+03  0.12499721081E+03 0.  0.
          2    1    1    2  501    0  0.27955047076E+02  0.19654293727E+02 -0.16242847292E+03  0.16598429062E+03  0.00000000000E+00 0. -1.
          1    1    1    2  502    0 -0.18756547791E+03  0.16003066322E+03 -0.64856985097E+02  0.25494519056E+03  0.00000000000E+00 0. -1.
         22    1    3    3    0    0  0.99577000323E+02 -0.12587977583E+03 -0.30569556197E+02  0.16338847794E+03  0.00000000000E+00 0. -1.
         22    1    3    3    0    0  0.60033430511E+02 -0.53805181113E+02 -0.12576401637E+03  0.14938406243E+03  0.00000000000E+00 0. -1.
</event>
<event>
 7    1  0.6510186E-006  0.6476679E+02  0.7818608E-02  0.1532984E+00
          2   -1    0    0  502    0  0.00000000000E+00  0.00000000000E+00  0.59567087412E+03  0.59567087412E+03  0.00000000000E+00 0. -1.
          1   -1    0    0  501    0 -0.00000000000E+00 -0.00000000000E+00 -0.78673037130E+02  0.78673037130E+02  0.00000000000E+00 0. -1.
         25    2    1    2    0    0  0.59354370180E+02  0.66960447684E+01  0.95792484589E+02  0.16843092854E+03  0.12499999725E+03 0.  0.
          2    1    1    2  501    0 -0.60234694221E+02 -0.27613042217E+02 -0.16032399099E+02  0.68174308278E+02  0.00000000000E+00 0. -1.
          1    1    1    2  502    0  0.88032404054E+00  0.20916997449E+02  0.43723775150E+03  0.43773867443E+03  0.00000000000E+00 0. -1.
         22    1    3    3    0    0  0.92952617718E+02  0.29561475080E+02  0.62007059379E+02  0.11558090397E+03  0.00000000000E+00 0. -1.
         22    1    3    3    0    0 -0.33598247538E+02 -0.22865430311E+02  0.33785425210E+02  0.52850024575E+02  0.00000000000E+00 0. -1.
</event>
<event>
 7    1  0.6510186E-006  0.8151891E+02  0.7818608E-02  0.1395780E+00
          2   -1    0    0  502    0  0.00000000000E+00  0.00000000000E+00  0.13245799669E+04  0.13245799669E+04  0.00000000000E+00 0. -1.
          1   -1    0    0  501    0 -0.00000000000E+00 -0.00000000000E+00 -0.40467479831E+03  0.40467479831E+03  0.00000000000E+00 0. -1.
         25    2    1    2    0    0 -0.91588153874E+02 -0.52554142236E+02  0.26518091095E+01  0.16365584595E+03  0.12500350406E+03 0.  0.
          2    1    1    2  501    0  0.10824469130E+02  0.43563450305E+02 -0.32128094329E+03  0.32440158424E+03  0.00000000000E+00 0. -1.
          1    1    1    2  502    0  0.80763684744E+02  0.89906919312E+01  0.12385343028E+04  0.12411973351E+04  0.00000000000E+00 0. -1.
         22    1    3    3    0    0 -0.49988343130E+02  0.36537472425E+02 -0.15120368842E+02  0.63737327321E+02  0.00000000000E+00 0. -1.
         22    1    3    3    0    0 -0.41599810744E+02 -0.89091614661E+02  0.17772177952E+02  0.99918518633E+02  0.00000000000E+00 0. -1.
</event>
<event>
 7    1  0.6510186E-006  0.1636269E+03  0.7818608E-02  0.1242839E+00
          2   -1    0    0  502    0  0.00000000000E+00  0.00000000000E+00  0.18800282269E+03  0.18800282269E+03  0.00000000000E+00 0. -1.
          1   -1    0    0  501    0 -0.00000000000E+00 -0.00000000000E+00 -0.22643736901E+04  0.22643736901E+04  0.00000000000E+00 0. -1.
         25    2    1    2    0    0 -0.16358164053E+03 -0.16964508627E+03 -0.13990775277E+03  0.30122689368E+03  0.12500021512E+03 0.  0.
          2    1    1    2  501    0  0.80715542297E+02  0.13933560911E+03 -0.20219159224E+04  0.20283178765E+04  0.00000000000E+00 0. -1.
          1    1    1    2  502    0  0.82866098229E+02  0.30309477161E+02  0.85452807773E+02  0.12283174263E+03  0.00000000000E+00 0. -1.
         22    1    3    3    0    0 -0.64875390706E+02 -0.26282534247E+02  0.11004832694E+02  0.70856857595E+02  0.00000000000E+00 0. -1.
         22    1    3    3    0    0 -0.98706249821E+02 -0.14336255202E+03 -0.15091258546E+03  0.23037003609E+03  0.00000000000E+00 0. -1.
</event>
<event>
 7    1  0.6510186E-006  0.1381891E+03  0.7818608E-02  0.1317564E+00
          2   -1    0    0  502    0  0.00000000000E+00  0.00000000000E+00  0.46818881542E+03  0.46818881542E+03  0.00000000000E+00 0. -1.
          1   -1    0    0  501    0 -0.00000000000E+00 -0.00000000000E+00 -0.92097174716E+03  0.92097174716E+03  0.00000000000E+00 0. -1.
         25    2    1    2    0    0  0.17451603112E+02  0.17690053902E+03 -0.37683633459E+03  0.43500475466E+03  0.12500061742E+03 0.  0.
          2    1    1    2  501    0 -0.21125024319E+02 -0.12574047069E+03 -0.50561149370E+03  0.52144023165E+03  0.00000000000E+00 0. -1.
          1    1    1    2  502    0  0.36734212070E+01 -0.51160068322E+02  0.42966489655E+03  0.43271557626E+03  0.00000000000E+00 0. -1.
         22    1    3    3    0    0  0.16894067609E+02  0.23998387480E+02 -0.11233942168E+01  0.29369952955E+02  0.00000000000E+00 0.  1.
         22    1    3    3    0    0  0.55753550315E+00  0.15290215154E+03 -0.37571294038E+03  0.40563480171E+03  0.00000000000E+00 0.  1.
</event>
<event>
 7    1  0.6510186E-006  0.1348378E+03  0.7818608E-02  0.1273633E+00
          2   -1    0    0  502    0  0.00000000000E+00  0.00000000000E+00  0.77775806819E+03  0.77775806819E+03  0.00000000000E+00 0. -1.
          1   -1    0    0  501    0 -0.00000000000E+00 -0.00000000000E+00 -0.52435005268E+03  0.52435005268E+03  0.00000000000E+00 0. -1.
         25    2    1    2    0    0  0.11644862004E+02  0.63327933816E+02 -0.13146641860E+02  0.14121995184E+03  0.12499684233E+03 0.  0.
          2    1    1    2  501    0 -0.12625875954E+02  0.78027049366E+02 -0.43658376000E+03  0.44368120613E+03  0.00000000000E+00 0. -1.
          1    1    1    2  502    0  0.98101394952E+00 -0.14135498318E+03  0.70313841737E+03  0.71720696290E+03  0.00000000000E+00 0. -1.
         22    1    3    3    0    0  0.28619450412E+02 -0.28614309445E+02 -0.24071000907E+02  0.47087840592E+02  0.00000000000E+00 0. -1.
         22    1    3    3    0    0 -0.16974588408E+02  0.91942243262E+02  0.10924359047E+02  0.94132111249E+02  0.00000000000E+00 0. -1.
</event>
<event>
 7    1  0.6510186E-006  0.8545976E+02  0.7818608E-02  0.1368261E+00
          2   -1    0    0  502    0  0.00000000000E+00  0.00000000000E+00  0.18806063720E+03  0.18806063720E+03  0.00000000000E+00 0. -1.
          1   -1    0    0  501    0 -0.00000000000E+00 -0.00000000000E+00 -0.48574608971E+03  0.48574608971E+03  0.00000000000E+00 0. -1.
         25    2    1    2    0    0 -0.34018962820E+02 -0.10528419819E+03 -0.17954674198E+03  0.24516133240E+03  0.12499997653E+03 0.  0.
          2    1    1    2  501    0 -0.13899255205E+02  0.81364181585E+02 -0.26223449865E+03  0.27491862727E+03  0.00000000000E+00 0. -1.
          1    1    1    2  502    0  0.47918218025E+02  0.23920016600E+02  0.14409578811E+03  0.15372676724E+03  0.00000000000E+00 0. -1.
         22    1    3    3    0    0 -0.51766631727E+02 -0.10326886061E+03 -0.19151790639E+03  0.22365900429E+03  0.00000000000E+00 0. -1.
         22    1    3    3    0    0  0.17747668907E+02 -0.20153375708E+01  0.11971164405E+02  0.21502328116E+02  0.00000000000E+00 0. -1.
</event>
<event>
 7    1  0.6510186E-006  0.8116915E+02  0.7818608E-02  0.1358103E+00
          2   -1    0    0  502    0  0.00000000000E+00  0.00000000000E+00  0.19599254637E+04  0.19599254637E+04  0.00000000000E+00 0. -1.
          1   -1    0    0  501    0 -0.00000000000E+00 -0.00000000000E+00 -0.16328271780E+03  0.16328271780E+03  0.00000000000E+00 0. -1.
         25    2    1    2    0    0 -0.31674126499E+02 -0.42591096074E+02  0.19321296683E+02  0.13717060533E+03  0.12500084282E+03 0.  0.
          2    1    1    2  501    0  0.88913596054E+02  0.20408891884E+02 -0.83818327129E+02  0.12388568276E+03  0.00000000000E+00 0. -1.
          1    1    1    2  502    0 -0.57239469555E+02  0.22182204190E+02  0.18611397764E+04  0.18621518934E+04  0.00000000000E+00 0. -1.
         22    1    3    3    0    0  0.17807306090E+02  0.12906156296E+01 -0.42837134249E+02  0.46408899034E+02  0.00000000000E+00 0.  1.
         22    1    3    3    0    0 -0.49481432589E+02 -0.43881711703E+02  0.62158430932E+02  0.90761706292E+02  0.00000000000E+00 0.  1.
</event>
<event>
 7    1  0.6510186E-006  0.9178527E+02  0.7818608E-02  0.1322553E+00
          2   -1    0    0  502    0  0.00000000000E+00  0.00000000000E+00  0.42993581068E+03  0.42993581068E+03  0.00000000000E+00 0. -1.
          1   -1    0    0  501    0 -0.00000000000E+00 -0.00000000000E+00 -0.20625340000E+04  0.20625340000E+04  0.00000000000E+00 0. -1.
         25    2    1    2    0    0 -0.10756744161E+03 -0.69270487655E+02 -0.11783177819E+03  0.21419140256E+03  0.12499789608E+03 0.  0.
          2    1    1    2  501    0  0.35272715698E+02  0.84382939652E+02 -0.18918350748E+04  0.18940445072E+04  0.00000000000E+00 0. -1.
          1    1    1    2  502    0  0.72294725908E+02 -0.15112451997E+02  0.37706866361E+03  0.38423390100E+03  0.00000000000E+00 0. -1.
         22    1    3    3    0    0 -0.13015260479E+03 -0.42903432327E+02 -0.11579755432E+03  0.17941426539E+03  0.00000000000E+00 0. -1.
         22    1    3    3    0    0  0.22585163185E+02 -0.26367055327E+02 -0.20342238676E+01  0.34777137166E+02  0.00000000000E+00 0. -1.
</event>
<event>
 7    1  0.6510186E-006  0.1480881E+03  0.7818608E-02  0.1275973E+00
          2   -1    0    0  502    0  0.00000000000E+00  0.00000000000E+00  0.11802765397E+04  0.11802765397E+04  0.00000000000E+00 0. -1.
          1   -1    0    0  501    0 -0.00000000000E+00 -0.00000000000E+00 -0.59457564651E+03  0.59457564651E+03  0.00000000000E+00 0. -1.
         25    2    1    2    0    0  0.99520887428E+02  0.45370837733E+02 -0.68634946135E+02  0.17971258255E+03  0.12499174590E+03 0.  0.
          2    1    1    2  501    0 -0.15893281594E+03 -0.76566354024E+01 -0.45580019041E+03  0.48277539045E+03  0.00000000000E+00 0. -1.
          1    1    1    2  502    0  0.59411928515E+02 -0.37714202331E+02  0.11101360298E+04  0.11123642133E+04  0.00000000000E+00 0. -1.
         22    1    3    3    0    0  0.16482796137E+02  0.64217190592E+02 -0.67415994029E+02  0.94553933747E+02  0.00000000000E+00 0. -1.
         22    1    3    3    0    0  0.83038091291E+02 -0.18846352859E+02 -0.12189521056E+01  0.85158648800E+02  0.00000000000E+00 0. -1.
</event>
<event>
 7    1  0.6510186E-006  0.6659545E+02  0.7818608E-02  0.1389893E+00
          2   -1    0    0  502    0  0.00000000000E+00  0.00000000000E+00  0.48775007177E+03  0.48775007177E+03  0.00000000000E+00 0. -1.
          1   -1    0    0  501    0 -0.00000000000E+00 -0.00000000000E+00 -0.24557498575E+03  0.24557498575E+03  0.00000000000E+00 0. -1.
         25    2    1    2    0    0  0.11997999456E+03 -0.20125123105E+02  0.29144808558E+03  0.33965678669E+03  0.12499810591E+03 0.  0.
          2    1    1    2  501    0 -0.62386027358E+02  0.20751885780E+02 -0.21151923127E+03  0.22150178864E+03  0.00000000000E+00 0. -1.
          1    1    1    2  502    0 -0.57593967198E+02 -0.62676267501E+00  0.16224623170E+03  0.17216648219E+03  0.00000000000E+00 0. -1.
         22    1    3    3    0    0 -0.20632098423E+02  0.14244117844E+02  0.76574894638E+02  0.80574765698E+02  0.00000000000E+00 0. -1.
         22    1    3    3    0    0  0.14061209298E+03 -0.34369240949E+02  0.21487319094E+03  0.25908202099E+03  0.00000000000E+00 0. -1.
</event>
<event>
 7    1  0.6510186E-006  0.2558289E+03  0.7818608E-02  0.1316338E+00
          2   -1    0    0  502    0  0.00000000000E+00  0.00000000000E+00  0.43275766015E+03  0.43275766015E+03  0.00000000000E+00 0. -1.
          1   -1    0    0  501    0 -0.00000000000E+00 -0.00000000000E+00 -0.23719812068E+04  0.23719812068E+04  0.00000000000E+00 0. -1.
         25    2    1    2    0    0  0.20230000273E+03  0.12257866625E+03 -0.49708020128E+03  0.56450104657E+03  0.12498753758E+03 0.  0.
          2    1    1    2  501    0  0.70904238001E+01  0.27100412036E+02 -0.17995662662E+04  0.17997842796E+04  0.00000000000E+00 0. -1.
          1    1    1    2  502    0 -0.20939042653E+03 -0.14967907829E+03  0.35742292090E+03  0.44045354078E+03  0.00000000000E+00 0. -1.
         22    1    3    3    0    0 -0.88609838980E+01  0.10381183440E+01 -0.87348164023E+02  0.87802599526E+02  0.00000000000E+00 0. -1.
         22    1    3    3    0    0  0.21116098663E+03  0.12154054791E+03 -0.40973203726E+03  0.47669844705E+03  0.00000000000E+00 0. -1.
</event>
<event>
 7    1  0.6510186E-006  0.5911286E+02  0.7818608E-02  0.1470801E+00
          2   -1    0    0  502    0  0.00000000000E+00  0.00000000000E+00  0.69247327481E+03  0.69247327481E+03  0.00000000000E+00 0. -1.
          1   -1    0    0  501    0 -0.00000000000E+00 -0.00000000000E+00 -0.21157325940E+04  0.21157325940E+04  0.00000000000E+00 0. -1.
         25    2    1    2    0    0  0.64803638810E+02 -0.24920946348E+02  0.36050447062E+03  0.38782581344E+03  0.12499929223E+03 0.  0.
          2    1    1    2  501    0 -0.58325632463E+02 -0.96097307208E+01 -0.21006854457E+04  0.21015169683E+04  0.00000000000E+00 0. -1.
          1    1    1    2  502    0 -0.64780063468E+01  0.34530677069E+02  0.31692165597E+03  0.31886308699E+03  0.00000000000E+00 0. -1.
         22    1    3    3    0    0 -0.26095950416E+02 -0.14805781238E+02  0.22058607889E+02  0.37239655855E+02  0.00000000000E+00 0. -1.
         22    1    3    3    0    0  0.90899589225E+02 -0.10115165110E+02  0.33844586273E+03  0.35058615758E+03  0.00000000000E+00 0. -1.
</event>
<event>
 7    1  0.6510186E-006  0.7710566E+02  0.7818608E-02  0.1373844E+00
          2   -1    0    0  502    0  0.00000000000E+00  0.00000000000E+00  0.77928106613E+03  0.77928106613E+03  0.00000000000E+00 0. -1.
          1   -1    0    0  501    0 -0.00000000000E+00 -0.00000000000E+00 -0.10425490515E+04  0.10425490515E+04  0.00000000000E+00 0. -1.
         25    2    1    2    0    0  0.26719868305E+02  0.15605771896E+02  0.23989045448E+03  0.27226699330E+03  0.12499757602E+03 0.  0.
          2    1    1    2  501    0  0.46872687911E+02  0.31872192058E+02 -0.10219049316E+04  0.10234757323E+04  0.00000000000E+00 0. -1.
          1    1    1    2  502    0 -0.73592556216E+02 -0.47477963954E+02  0.51874649170E+03  0.52608739202E+03  0.00000000000E+00 0. -1.
         22    1    3    3    0    0 -0.27855278733E+02  0.39696316271E+02  0.37599508105E+02  0.61363157420E+02  0.00000000000E+00 0.  1.
         22    1    3    3    0    0  0.54575147038E+02 -0.24090544375E+02  0.20229094638E+03  0.21090383588E+03  0.00000000000E+00 0.  1.
</event>
<event>
 7    1  0.6510186E-006  0.8830046E+02  0.7818608E-02  0.1313617E+00
          2   -1    0    0  502    0  0.00000000000E+00  0.00000000000E+00  0.14127416938E+04  0.14127416938E+04  0.00000000000E+00 0. -1.
          1   -1    0    0  501    0 -0.00000000000E+00 -0.00000000000E+00 -0.63501638474E+03  0.63501638474E+03  0.00000000000E+00 0. -1.
         25    2    1    2    0    0 -0.17981552370E+02 -0.13568416027E+03  0.20476019863E+03  0.27620030951E+03  0.12500537772E+03 0.  0.
          2    1    1    2  501    0 -0.41587444524E+02  0.72028881076E+02 -0.59477782683E+03  0.60056501608E+03  0.00000000000E+00 0. -1.
          1    1    1    2  502    0  0.59568996894E+02  0.63655279195E+02  0.11677429372E+04  0.11709927529E+04  0.00000000000E+00 0. -1.
         22    1    3    3    0    0  0.50240921653E+02 -0.27943772890E+02  0.71640126272E+02  0.91854843880E+02  0.00000000000E+00 0. -1.
         22    1    3    3    0    0 -0.68222474023E+02 -0.10774038738E+03  0.13312007235E+03  0.18434546563E+03  0.00000000000E+00 0. -1.
</event>
<event>
 7    1  0.6510186E-006  0.7958690E+02  0.7818608E-02  0.1441449E+00
          2   -1    0    0  502    0  0.00000000000E+00  0.00000000000E+00  0.93780043896E+02  0.93780043896E+02  0.00000000000E+00 0. -1.
          1   -1    0    0  501    0 -0.00000000000E+00 -0.00000000000E+00 -0.17352544874E+04  0.17352544874E+04  0.00000000000E+00 0. -1.
         25    2    1    2    0    0 -0.22617005719E+01  0.74420790896E+02 -0.84452995205E+03  0.85697161795E+03  0.12500377851E+03 0.  0.
          2    1    1    2  501    0  0.32331463600E+02 -0.46932791467E+00 -0.86594274619E+03  0.86654623852E+03  0.00000000000E+00 0. -1.
          1    1    1    2  502    0 -0.30069763028E+02 -0.73951462982E+02  0.68998254698E+02  0.10551667488E+03  0.00000000000E+00 0. -1.
         22    1    3    3    0    0  0.41500681803E+02  0.80777265595E+02 -0.69890276447E+03  0.70477822570E+03  0.00000000000E+00 0. -1.
         22    1    3    3    0    0 -0.43762382375E+02 -0.63564746989E+01 -0.14562718758E+03  0.15219339225E+03  0.00000000000E+00 0. -1.
</event>
<event>
 7    1  0.6510186E-006  0.5854936E+02  0.7818608E-02  0.1504439E+00
          2   -1    0    0  502    0  0.00000000000E+00  0.00000000000E+00  0.94444880078E+03  0.94444880078E+03  0.00000000000E+00 0. -1.
          1   -1    0    0  501    0 -0.00000000000E+00 -0.00000000000E+00 -0.14978685773E+03  0.14978685773E+03  0.00000000000E+00 0. -1.
         25    2    1    2    0    0 -0.95710621460E+01  0.30183958052E+02  0.23834498352E+03  0.27099051601E+03  0.12499940819E+03 0.  0.
          2    1    1    2  501    0  0.24324676685E+02 -0.54027133520E+02 -0.12658623912E+03  0.13976658037E+03  0.00000000000E+00 0. -1.
          1    1    1    2  502    0 -0.14753614539E+02  0.23843175467E+02  0.68290319866E+03  0.68347856213E+03  0.00000000000E+00 0. -1.
         22    1    3    3    0    0 -0.64476054024E+01  0.79282644014E+02  0.13974282648E+03  0.16079604102E+03  0.00000000000E+00 0. -1.
         22    1    3    3    0    0 -0.31234567436E+01 -0.49098685962E+02  0.98602157042E+02  0.11019447499E+03  0.00000000000E+00 0. -1.
</event>
<event>
 7    1  0.6510186E-006  0.5741752E+02  0.7818608E-02  0.1506419E+00
          2   -1    0    0  502    0  0.00000000000E+00  0.00000000000E+00  0.28995534628E+03  0.28995534628E+03  0.00000000000E+00 0. -1.
          1   -1    0    0  501    0 -0.00000000000E+00 -0.00000000000E+00 -0.95548417479E+03  0.95548417479E+03  0.00000000000E+00 0. -1.
         25    2    1    2    0    0 -0.38472493550E+02 -0.50463327812E+02 -0.20216719857E+03  0.24601928536E+03  0.12500892919E+03 0.  0.
          2    1    1    2  501    0 -0.13011160164E+02  0.25027917982E+02 -0.72803895364E+03  0.72858520777E+03  0.00000000000E+00 0. -1.
          1    1    1    2  502    0  0.51483653714E+02  0.25435409830E+02  0.26467732370E+03  0.27083502793E+03  0.00000000000E+00 0. -1.
         22    1    3    3    0    0  0.28416830293E+02  0.20102860639E+01 -0.13415493430E+03  0.13714628646E+03  0.00000000000E+00 0.  1.
         22    1    3    3    0    0 -0.66889323843E+02 -0.52473613876E+02 -0.68012264272E+02  0.10887299890E+03  0.00000000000E+00 0.  1.
</event>
<event>
 7    1  0.6510186E-006  0.7244011E+02  0.7818608E-02  0.1442919E+00
          2   -1    0    0  502    0  0.00000000000E+00  0.00000000000E+00  0.22550190120E+04  0.22550190120E+04  0.00000000000E+00 0. -1.
          1   -1    0    0  501    0 -0.00000000000E+00 -0.00000000000E+00 -0.45675570143E+02  0.45675570143E+02  0.00000000000E+00 0. -1.
         25    2    1    2    0    0 -0.11588142969E+02 -0.10169962599E+03  0.44974572520E+03  0.47788380205E+03  0.12499844779E+03 0.  0.
          2    1    1    2  501    0  0.19092979381E+02  0.67372370701E+02  0.75731336702E+01  0.70433873591E+02  0.00000000000E+00 0. -1.
          1    1    1    2  502    0 -0.75048364116E+01  0.34327255290E+02  0.17520245830E+04  0.17523769065E+04  0.00000000000E+00 0. -1.
         22    1    3    3    0    0  0.12812576326E+02 -0.92695186070E+02  0.44042295608E+03  0.45025430578E+03  0.00000000000E+00 0. -1.
         22    1    3    3    0    0 -0.24400719295E+02 -0.90044399202E+01  0.93227691196E+01  0.27629496276E+02  0.00000000000E+00 0. -1.
</event>
<event>
 7    1  0.6510186E-006  0.2941528E+03  0.7818608E-02  0.1246863E+00
          2   -1    0    0  502    0  0.00000000000E+00  0.00000000000E+00  0.34092314148E+03  0.34092314148E+03  0.00000000000E+00 0. -1.
          1   -1    0    0  501    0 -0.00000000000E+00 -0.00000000000E+00 -0.20727231522E+04  0.20727231522E+04  0.00000000000E+00 0. -1.
         25    2    1    2    0    0  0.29972995288E+03  0.13956956671E+03 -0.64026116056E+03  0.73135304866E+03  0.12500087785E+03 0.  0.
          2    1    1    2  501    0 -0.27524782637E+02 -0.38259741145E+02 -0.13149919895E+04  0.13158363705E+04  0.00000000000E+00 0. -1.
          1    1    1    2  502    0 -0.27220517025E+03 -0.10130982556E+03  0.22345313929E+03  0.36645687457E+03  0.00000000000E+00 0. -1.
         22    1    3    3    0    0  0.28099023588E+03  0.14279386992E+03 -0.63874382766E+03  0.71227752971E+03  0.00000000000E+00 0.  1.
         22    1    3    3    0    0  0.18739716999E+02 -0.32243032097E+01 -0.15173328978E+01  0.19075518958E+02  0.00000000000E+00 0.  1.
</event>
<event>
 7    1  0.6510186E-006  0.4462019E+02  0.7818608E-02  0.1558632E+00
          2   -1    0    0  502    0  0.00000000000E+00  0.00000000000E+00  0.19676507258E+04  0.19676507258E+04  0.00000000000E+00 0. -1.
          1   -1    0    0  501    0 -0.00000000000E+00 -0.00000000000E+00 -0.93362512608E+03  0.93362512608E+03  0.00000000000E+00 0. -1.
         25    2    1    2    0    0  0.46160985820E+02 -0.22223869981E+02  0.31973223643E+03  0.34710097534E+03  0.12500258821E+03 0.  0.
          2    1    1    2  501    0 -0.25030957312E+02  0.36938570530E+02 -0.91929817031E+03  0.92038042828E+03  0.00000000000E+00 0. -1.
          1    1    1    2  502    0 -0.21130028508E+02 -0.14714700548E+02  0.16335915336E+04  0.16337944482E+04  0.00000000000E+00 0. -1.
         22    1    3    3    0    0  0.53655152958E+02  0.43396123382E+02  0.15917538190E+03  0.17349034892E+03  0.00000000000E+00 0. -1.
         22    1    3    3    0    0 -0.74941671373E+01 -0.65619993363E+02  0.16055685453E+03  0.17361062642E+03  0.00000000000E+00 0. -1.
</event>
<event>
 7    1  0.6510186E-006  0.4475034E+02  0.7818608E-02  0.1518857E+00
          2   -1    0    0  502    0  0.00000000000E+00  0.00000000000E+00  0.30182142026E+03  0.30182142026E+03  0.00000000000E+00 0. -1.
          1   -1    0    0  501    0 -0.00000000000E+00 -0.00000000000E+00 -0.10248815412E+04  0.10248815412E+04  0.00000000000E+00 0. -1.
         25    2    1    2    0    0  0.42356655511E+02  0.85469472588E+01  0.53511698188E+02  0.14267598419E+03  0.12500319216E+03 0.  0.
          2    1    1    2  501    0 -0.37606509018E+02  0.24388795566E+02 -0.97842406195E+03  0.97945020694E+03  0.00000000000E+00 0. -1.
          1    1    1    2  502    0 -0.47501464931E+01 -0.32935742825E+02  0.20185224280E+03  0.20457677036E+03  0.00000000000E+00 0. -1.
         22    1    3    3    0    0  0.54738581064E+02  0.58669628883E+02  0.27170975671E+02  0.84715403139E+02  0.00000000000E+00 0.  1.
         22    1    3    3    0    0 -0.12381925552E+02 -0.50122681624E+02  0.26340722517E+02  0.57960581055E+02  0.00000000000E+00 0.  1.
</event>
<event>
 7    1  0.6510186E-006  0.1067032E+03  0.7818608E-02  0.1413754E+00
          2   -1    0    0  502    0  0.00000000000E+00  0.00000000000E+00  0.10994324332E+04  0.10994324332E+04  0.00000000000E+00 0. -1.
          1   -1    0    0  501    0 -0.00000000000E+00 -0.00000000000E+00 -0.33564699251E+03  0.33564699251E+03  0.00000000000E+00 0. -1.
         25    2    1    2    0    0 -0.38617097119E+02 -0.79647377304E+02  0.45046945383E+03  0.47579765031E+03  0.12500276119E+03 0.  0.
          2    1    1    2  501    0  0.68250363942E+02  0.82536634376E+02 -0.31374144971E+03  0.33151788105E+03  0.00000000000E+00 0. -1.
          1    1    1    2  502    0 -0.29633266823E+02 -0.28892570723E+01  0.62705743657E+03  0.62776389436E+03  0.00000000000E+00 0. -1.
         22    1    3    3    0    0 -0.68542211819E+02 -0.14129119388E+01  0.17810047071E+03  0.19083974635E+03  0.00000000000E+00 0.  1.
         22    1    3    3    0    0  0.29925114700E+02 -0.78234465365E+02  0.27236898312E+03  0.28495790396E+03  0.00000000000E+00 0.  1.
</event>
<event>
 7    1  0.6510186E-006  0.2451784E+03  0.7818608E-02  0.1169936E+00
          2   -1    0    0  502    0  0.00000000000E+00  0.00000000000E+00  0.10250229651E+04  0.10250229651E+04  0.00000000000E+00 0. -1.
          1   -1    0    0  501    0 -0.00000000000E+00 -0.00000000000E+00 -0.70766689936E+03  0.70766689936E+03  0.00000000000E+00 0. -1.
         25    2    1    2    0    0 -0.12790140581E+03 -0.60923392727E+02  0.15702069632E+02  0.18958226173E+03  0.12499779831E+03 0.  0.
          2    1    1    2  501    0 -0.12599019936E+03 -0.27505754839E+02 -0.59407016049E+03  0.60790579242E+03  0.00000000000E+00 0. -1.
          1    1    1    2  502    0  0.25389160517E+03  0.88429147566E+02  0.89572415659E+03  0.93520181031E+03  0.00000000000E+00 0. -1.
         22    1    3    3    0    0 -0.21251493699E+02 -0.34863807548E+02 -0.47711015500E+02  0.62796911240E+02  0.00000000000E+00 0. -1.
         22    1    3    3    0    0 -0.10664991211E+03 -0.26059585179E+02  0.63413085132E+02  0.12678535049E+03  0.00000000000E+00 0. -1.
</event>
<event>
 7    1  0.6510186E-006  0.8431570E+02  0.7818608E-02  0.1412647E+00
          2   -1    0    0  502    0  0.00000000000E+00  0.00000000000E+00  0.12695653977E+03  0.12695653977E+03  0.00000000000E+00 0. -1.
          1   -1    0    0  501    0 -0.00000000000E+00 -0.00000000000E+00 -0.69070725746E+03  0.69070725746E+03  0.00000000000E+00 0. -1.
         25    2    1    2    0    0  0.10404264274E+02  0.11328368926E+03 -0.59585665839E+02  0.17921229068E+03  0.12500060236E+03 0.  0.
          2    1    1    2  501    0  0.89748639433E+01 -0.36929910317E+02 -0.54731504200E+03  0.54863295714E+03  0.00000000000E+00 0. -1.
          1    1    1    2  502    0 -0.19379128217E+02 -0.76353778943E+02  0.43149990148E+02  0.89818549416E+02  0.00000000000E+00 0. -1.
         22    1    3    3    0    0  0.58023305212E+02  0.97480385850E+02 -0.19750638057E+02  0.11514867466E+03  0.00000000000E+00 0.  1.
         22    1    3    3    0    0 -0.47619040938E+02  0.15803303411E+02 -0.39835027782E+02  0.64063616015E+02  0.00000000000E+00 0.  1.
</event>
<event>
 7    1  0.6510186E-006  0.7323753E+02  0.7818608E-02  0.1468940E+00
          2   -1    0    0  502    0  0.00000000000E+00  0.00000000000E+00  0.18829412810E+04  0.18829412810E+04  0.00000000000E+00 0. -1.
          1   -1    0    0  501    0 -0.00000000000E+00 -0.00000000000E+00 -0.19580194383E+03  0.19580194383E+03  0.00000000000E+00 0. -1.
         25    2    1    2    0    0  0.88358517254E+02 -0.25691403113E+02  0.13923786129E+04  0.14010032912E+04  0.12499897739E+03 0.  0.
          2    1    1    2  501    0 -0.28642368457E+02  0.23429472019E+01 -0.18828085880E+03  0.19046143038E+03  0.00000000000E+00 0. -1.
          1    1    1    2  502    0 -0.59716148797E+02  0.23348455911E+02  0.48304158297E+03  0.48727850322E+03  0.00000000000E+00 0. -1.
         22    1    3    3    0    0  0.34367502891E+02  0.41782503404E+02  0.85600593359E+03  0.85771385741E+03  0.00000000000E+00 0.  1.
         22    1    3    3    0    0  0.53991014362E+02 -0.67473906516E+02  0.53637267936E+03  0.54328943378E+03  0.00000000000E+00 0.  1.
</event>
<event>
 7    1  0.6510186E-006  0.3385686E+02  0.7818608E-02  0.1617492E+00
          2   -1    0    0  502    0  0.00000000000E+00  0.00000000000E+00  0.20511536009E+04  0.20511536009E+04  0.00000000000E+00 0. -1.
          1   -1    0    0  501    0 -0.00000000000E+00 -0.00000000000E+00 -0.98590406863E+02  0.98590406863E+02  0.00000000000E+00 0. -1.
         25    2    1    2    0    0  0.23123799409E+02  0.48667179605E+02  0.57222798416E+02  0.14765682598E+03  0.12499954052E+03 0.  0.
          2    1    1    2  501    0 -0.36524563521E+00 -0.23678235735E+02 -0.50592653497E+02  0.55860619758E+02  0.00000000000E+00 0. -1.
          1    1    1    2  502    0 -0.22758553774E+02 -0.24988943870E+02  0.19459330491E+04  0.19462265621E+04  0.00000000000E+00 0. -1.
         22    1    3    3    0    0 -0.13431156449E+02 -0.24727091787E+02 -0.20394078280E+02  0.34752603653E+02  0.00000000000E+00 0.  1.
         22    1    3    3    0    0  0.36554955858E+02  0.73394271392E+02  0.77616876696E+02  0.11290422233E+03  0.00000000000E+00 0.  1.
</event>
<event>
 7    1  0.6510186E-006  0.1181448E+03  0.7818608E-02  0.1339542E+00
          2   -1    0    0  502    0  0.00000000000E+00  0.00000000000E+00  0.63361163770E+03  0.63361163770E+03  0.00000000000E+00 0. -1.
          1   -1    0    0  501    0 -0.00000000000E+00 -0.00000000000E+00 -0.34516613912E+03  0.34516613912E+03  0.00000000000E+00 0. -1.
         25    2    1    2    0    0  0.69806441779E+02 -0.37922121628E+02  0.35993102721E+03  0.38921401362E+03  0.12500470960E+03 0.  0.
          2    1    1    2  501    0 -0.11705119734E+03  0.23403123276E+02 -0.31720570582E+03  0.33892203938E+03  0.00000000000E+00 0. -1.
          1    1    1    2  502    0  0.47244755558E+02  0.14518998352E+02  0.24572017719E+03  0.25064172382E+03  0.00000000000E+00 0. -1.
         22    1    3    3    0    0  0.42474686522E+02 -0.10760738759E+01  0.33364701503E+03  0.33634147465E+03  0.00000000000E+00 0. -1.
         22    1    3    3    0    0  0.27331755257E+02 -0.36846047752E+02  0.26284012182E+02  0.52872538966E+02  0.00000000000E+00 0. -1.
</event>
<event>
 7    1  0.6510186E-006  0.1016802E+03  0.7818608E-02  0.1393019E+00
          2   -1    0    0  502    0  0.00000000000E+00  0.00000000000E+00  0.24999863307E+04  0.24999863307E+04  0.00000000000E+00 0. -1.
          1   -1    0    0  501    0 -0.00000000000E+00 -0.00000000000E+00 -0.45585021944E+02  0.45585021944E+02  0.00000000000E+00 0. -1.
         25    2    1    2    0    0  0.13434002380E+03  0.11401018939E+02  0.72797049152E+03  0.75082807718E+03  0.12499815889E+03 0.  0.
          2    1    1    2  501    0 -0.97597001379E+02 -0.13257694921E+02  0.37467162983E+02  0.10537898014E+03  0.00000000000E+00 0. -1.
          1    1    1    2  502    0 -0.36743022424E+02  0.18566759811E+01  0.16889636543E+04  0.16893642953E+04  0.00000000000E+00 0. -1.
         22    1    3    3    0    0  0.41194952546E+02 -0.91920841784E+01  0.52350766912E+03  0.52520643385E+03  0.00000000000E+00 0.  1.
         22    1    3    3    0    0  0.93145071258E+02  0.20593103118E+02  0.20446282240E+03  0.22562164333E+03  0.00000000000E+00 0.  1.
</event>
<event>
 7    1  0.6510186E-006  0.6756135E+02  0.7818608E-02  0.1412424E+00
          2   -1    0    0  502    0  0.00000000000E+00  0.00000000000E+00  0.12286960560E+04  0.12286960560E+04  0.00000000000E+00 0. -1.
          1   -1    0    0  501    0 -0.00000000000E+00 -0.00000000000E+00 -0.13200803890E+04  0.13200803890E+04  0.00000000000E+00 0. -1.
         25    2    1    2    0    0  0.11079447257E+03  0.21335275500E+02  0.26661983249E+02  0.17049231933E+03  0.12500464178E+03 0.  0.
          2    1    1    2  501    0 -0.47508975320E+02  0.51769437946E+00 -0.12467207035E+04  0.12476256984E+04  0.00000000000E+00 0. -1.
          1    1    1    2  502    0 -0.63285497248E+02 -0.21852969879E+02  0.11286743873E+04  0.11306584272E+04  0.00000000000E+00 0. -1.
         22    1    3    3    0    0  0.82423921063E+02  0.72570722097E+02  0.16510752818E+02  0.11105321890E+03  0.00000000000E+00 0. -1.
         22    1    3    3    0    0  0.28370551505E+02 -0.51235446597E+02  0.10151230431E+02  0.59439100430E+02  0.00000000000E+00 0. -1.
</event>
<event>
 7    1  0.6510186E-006  0.7150747E+02  0.7818608E-02  0.1470234E+00
          2   -1    0    0  502    0  0.00000000000E+00  0.00000000000E+00  0.31989281323E+03  0.31989281323E+03  0.00000000000E+00 0. -1.
          1   -1    0    0  501    0 -0.00000000000E+00 -0.00000000000E+00 -0.42570612510E+03  0.42570612510E+03  0.00000000000E+00 0. -1.
         25    2    1    2    0    0 -0.32010915643E+02 -0.37705332336E+02  0.43581150510E+02  0.14131931520E+03  0.12500176544E+03 0.  0.
          2    1    1    2  501    0 -0.71471380756E+00 -0.29152884782E+02 -0.37015765006E+03  0.37130457499E+03  0.00000000000E+00 0. -1.
          1    1    1    2  502    0  0.32725629451E+02  0.66858217118E+02  0.22076318768E+03  0.23297504814E+03  0.00000000000E+00 0. -1.
         22    1    3    3    0    0 -0.24606286347E+02  0.95618413049E+01  0.78023015900E+02  0.82368010460E+02  0.00000000000E+00 0. -1.
         22    1    3    3    0    0 -0.74046292956E+01 -0.47267173641E+02 -0.34441865390E+02  0.58951304740E+02  0.00000000000E+00 0. -1.
</event>
<event>
 7    1  0.6510186E-006  0.1724398E+03  0.7818608E-02  0.1175333E+00
          2   -1    0    0  502    0  0.00000000000E+00  0.00000000000E+00  0.23833902357E+04  0.23833902357E+04  0.00000000000E+00 0. -1.
          1   -1    0    0  501    0 -0.00000000000E+00 -0.00000000000E+00 -0.77580818353E+03  0.77580818353E+03  0.00000000000E+00 0. -1.
         25    2    1    2    0    0 -0.19024434068E+02 -0.88575395031E+01 -0.12124938060E+03  0.17540473004E+03  0.12500008771E+03 0.  0.
          2    1    1    2  501    0 -0.90800956738E+02  0.14659695835E+03 -0.61226180622E+03  0.63608175677E+03  0.00000000000E+00 0. -1.
          1    1    1    2  502    0  0.10982539081E+03 -0.13773941884E+03  0.23410932390E+04  0.23477119324E+04  0.00000000000E+00 0. -1.
         22    1    3    3    0    0  0.19795679222E+02 -0.15172842377E+02 -0.13223677945E+03  0.13456838373E+03  0.00000000000E+00 0.  1.
         22    1    3    3    0    0 -0.38820113289E+02  0.63153028744E+01  0.10987398850E+02  0.40836346307E+02  0.00000000000E+00 0.  1.
</event>
<event>
 7    1  0.6510186E-006  0.1024946E+03  0.7818608E-02  0.1290174E+00
          2   -1    0    0  502    0  0.00000000000E+00  0.00000000000E+00  0.14480742361E+04  0.14480742361E+04  0.00000000000E+00 0. -1.
          1   -1    0    0  501    0 -0.00000000000E+00 -0.00000000000E+00 -0.29611502004E+03  0.29611502004E+03  0.00000000000E+00 0. -1.
         25    2    1    2    0    0 -0.62110773224E+02 -0.16851504071E+03  0.35774054177E+03  0.41935489358E+03  0.12500065777E+03 0.  0.
          2    1    1    2  501    0  0.46873601842E+01  0.10067195890E+03 -0.25378752909E+03  0.27306578800E+03  0.00000000000E+00 0. -1.
          1    1    1    2  502    0  0.57423413040E+02  0.67843081813E+02  0.10480062034E+04  0.10517685745E+04  0.00000000000E+00 0. -1.
         22    1    3    3    0    0  0.72865350156E+01 -0.10405195438E+02  0.14410789215E+03  0.14466667296E+03  0.00000000000E+00 0.  1.
         22    1    3    3    0    0 -0.69397308240E+02 -0.15810984527E+03  0.21363264962E+03  0.27468822062E+03  0.00000000000E+00 0.  1.
</event>
<event>
 7    1  0.6510186E-006  0.1653508E+03  0.7818608E-02  0.1259224E+00
          2   -1    0    0  502    0  0.00000000000E+00  0.00000000000E+00  0.35911313470E+04  0.35911313470E+04  0.00000000000E+00 0. -1.
          1   -1    0    0  501    0 -0.00000000000E+00 -0.00000000000E+00 -0.12280958528E+03  0.12280958528E+03  0.00000000000E+00 0. -1.
         25    2    1    2    0    0  0.79402266406E+02  0.67589092653E+02  0.11934290722E+03  0.20184295542E+03  0.12499937518E+03 0.  0.
          2    1    1    2  501    0  0.74120056473E+02  0.21789406550E+01 -0.62180704034E+02  0.96772777722E+02  0.00000000000E+00 0. -1.
          1    1    1    2  502    0 -0.15352232288E+03 -0.69768033308E+02  0.34111595585E+04  0.34153251991E+04  0.00000000000E+00 0. -1.
         22    1    3    3    0    0  0.53724618878E+02  0.64718770999E+02  0.46117829156E+01  0.84238486068E+02  0.00000000000E+00 0. -1.
         22    1    3    3    0    0  0.25677647527E+02  0.28703216537E+01  0.11473112430E+03  0.11760446936E+03  0.00000000000E+00 0. -1.
</event>
<event>
 7    1  0.6510186E-006  0.4528459E+02  0.7818608E-02  0.1528629E+00
          2   -1    0    0  502    0  0.00000000000E+00  0.00000000000E+00  0.26626653337E+04  0.26626653337E+04  0.00000000000E+00 0. -1.
          1   -1    0    0  501    0 -0.00000000000E+00 -0.00000000000E+00 -0.39165846693E+03  0.39165846693E+03  0.00000000000E+00 0. -1.
         25    2    1    2    0    0 -0.30691977964E+02  0.14097449481E+02  0.37569582384E+03  0.39738678842E+03  0.12501268722E+03 0.  0.
          2    1    1    2  501    0  0.43107253848E+02  0.14104812547E+02 -0.37935774342E+03  0.38205952227E+03  0.00000000000E+00 0. -1.
          1    1    1    2  502    0 -0.12415275885E+02 -0.28202262028E+02  0.22746687864E+04  0.22748774900E+04  0.00000000000E+00 0. -1.
         22    1    3    3    0    0  0.35390229529E+02  0.44190928735E+02  0.15202247032E+03  0.16222249539E+03  0.00000000000E+00 0.  1.
         22    1    3    3    0    0 -0.66082207493E+02 -0.30093479254E+02  0.22367335352E+03  0.23516429302E+03  0.00000000000E+00 0.  1.
</event>
<event>
 7    1  0.6510186E-006  0.2454540E+03  0.7818608E-02  0.1208178E+00
          2   -1    0    0  502    0  0.00000000000E+00  0.00000000000E+00  0.89687792044E+03  0.89687792044E+03  0.00000000000E+00 0. -1.
          1   -1    0    0  501    0 -0.00000000000E+00 -0.00000000000E+00 -0.84579809746E+03  0.84579809746E+03  0.00000000000E+00 0. -1.
         25    2    1    2    0    0  0.57063219352E+01  0.28531230763E+03 -0.82082758252E+02  0.32217791368E+03  0.12500141545E+03 0.  0.
          2    1    1    2  501    0  0.65364789044E+02 -0.53331033816E+02 -0.62180534070E+03  0.62750190162E+03  0.00000000000E+00 0. -1.
          1    1    1    2  502    0 -0.71071110979E+02 -0.23198127381E+03  0.75496792193E+03  0.79299620261E+03  0.00000000000E+00 0. -1.
         22    1    3    3    0    0  0.73468626077E+01  0.28703294673E+03 -0.51751348588E+02  0.29175347638E+03  0.00000000000E+00 0.  1.
         22    1    3    3    0    0 -0.16405406725E+01 -0.17206391008E+01 -0.30331409663E+02  0.30424437296E+02  0.00000000000E+00 0.  1.
</event>
<event>
 7    1  0.6510186E-006  0.5399223E+02  0.7818608E-02  0.1443330E+00
          2   -1    0    0  502    0  0.00000000000E+00  0.00000000000E+00  0.15685246856E+04  0.15685246856E+04  0.00000000000E+00 0. -1.
          1   -1    0    0  501    0 -0.00000000000E+00 -0.00000000000E+00 -0.13209108111E+02  0.13209108111E+02  0.00000000000E+00 0. -1.
         25    2    1    2    0    0 -0.49093360669E+01 -0.15759957149E+02  0.74395807411E+03  0.75456711994E+03  0.12500177852E+03 0.  0.
          2    1    1    2  501    0  0.52252154704E+02 -0.13596808601E+02  0.10011583057E+03  0.11374682592E+03  0.00000000000E+00 0. -1.
          1    1    1    2  502    0 -0.47342818637E+02  0.29356765750E+02  0.71124167277E+03  0.71341984782E+03  0.00000000000E+00 0. -1.
         22    1    3    3    0    0  0.36129202829E+02  0.38617078806E+02  0.22359714503E+03  0.22976570967E+03  0.00000000000E+00 0.  1.
         22    1    3    3    0    0 -0.41038538896E+02 -0.54377035955E+02  0.52036092908E+03  0.52480141027E+03  0.00000000000E+00 0.  1.
</event>
<event>
 7    1  0.6510186E-006  0.6629124E+02  0.7818608E-02  0.1414235E+00
          2   -1    0    0  502    0  0.00000000000E+00  0.00000000000E+00  0.26057284007E+03  0.26057284007E+03  0.00000000000E+00 0. -1.
          1   -1    0    0  501    0 -0.00000000000E+00 -0.00000000000E+00 -0.19578348255E+03  0.19578348255E+03  0.00000000000E+00 0. -1.
         25    2    1    2    0    0  0.63573153386E+02 -0.17204305216E+00 -0.27844254763E+02  0.14297597393E+03  0.12500100467E+03 0.  0.
          2    1    1    2  501    0 -0.52020748949E+02 -0.46155102636E+02 -0.96143261237E+02  0.11865908521E+03  0.00000000000E+00 0. -1.
          1    1    1    2  502    0 -0.11552404437E+02  0.46327145688E+02  0.18877687352E+03  0.19472126348E+03  0.00000000000E+00 0. -1.
         22    1    3    3    0    0 -0.29419647474E+02 -0.14228155536E+02 -0.35943564001E+02  0.48578759356E+02  0.00000000000E+00 0. -1.
         22    1    3    3    0    0  0.92992800860E+02  0.14056112484E+02  0.80993092383E+01  0.94397214578E+02  0.00000000000E+00 0. -1.
</event>
<event>
 7    1  0.6510186E-006  0.6685133E+02  0.7818608E-02  0.1380354E+00
          2   -1    0    0  502    0  0.00000000000E+00  0.00000000000E+00  0.23480563748E+03  0.23480563748E+03  0.00000000000E+00 0. -1.
          1   -1    0    0  501    0 -0.00000000000E+00 -0.00000000000E+00 -0.10933772719E+04  0.10933772719E+04  0.00000000000E+00 0. -1.
         25    2    1    2    0    0 -0.47726311199E+02  0.55999066553E+02  0.62312785223E+02  0.15786661712E+03  0.12500115745E+03 0.  0.
          2    1    1    2  501    0  0.66998251312E+02  0.29112994542E+01 -0.10367483696E+04  0.10389150221E+04  0.00000000000E+00 0. -1.
          1    1    1    2  502    0 -0.19271940113E+02 -0.58910366007E+02  0.11586394994E+03  0.13140127014E+03  0.00000000000E+00 0. -1.
         22    1    3    3    0    0 -0.80496452045E+02  0.69830778512E+02  0.32371998527E+02  0.11137307892E+03  0.00000000000E+00 0. -1.
         22    1    3    3    0    0  0.32770140846E+02 -0.13831711959E+02  0.29940786696E+02  0.46493538204E+02  0.00000000000E+00 0. -1.
</event>
<event>
 7    1  0.6510186E-006  0.6355560E+02  0.7818608E-02  0.1496109E+00
          2   -1    0    0  502    0  0.00000000000E+00  0.00000000000E+00  0.22381179232E+03  0.22381179232E+03  0.00000000000E+00 0. -1.
          1   -1    0    0  501    0 -0.00000000000E+00 -0.00000000000E+00 -0.32985690381E+03  0.32985690381E+03  0.00000000000E+00 0. -1.
         25    2    1    2    0    0  0.38186041939E+02  0.55360484653E+02  0.23236720447E+02  0.14383434204E+03  0.12500166284E+03 0.  0.
          2    1    1    2  501    0 -0.11792879998E+02 -0.62535844047E+02 -0.26441283146E+03  0.27196313950E+03  0.00000000000E+00 0. -1.
          1    1    1    2  502    0 -0.26393161941E+02  0.71753593941E+01  0.13513099952E+03  0.13787121459E+03  0.00000000000E+00 0. -1.
         22    1    3    3    0    0  0.32473596330E+02  0.33918584798E+02  0.74449348278E+02  0.88021078796E+02  0.00000000000E+00 0. -1.
         22    1    3    3    0    0  0.57124456088E+01  0.21441899855E+02 -0.51212627832E+02  0.55813263241E+02  0.00000000000E+00 0. -1.
</event>
<event>
 7    1  0.6510186E-006  0.9605989E+02  0.7818608E-02  0.1301894E+00
          2   -1    0    0  502    0  0.00000000000E+00  0.00000000000E+00  0.62038609149E+03  0.62038609149E+03  0.00000000000E+00 0. -1.
          1   -1    0    0  501    0 -0.00000000000E+00 -0.00000000000E+00 -0.28036442974E+03  0.28036442974E+03  0.00000000000E+00 0. -1.
         25    2    1    2    0    0 -0.53778677291E+02 -0.57810095274E+02 -0.10159370641E+03  0.17938991667E+03  0.12500123110E+03 0.  0.
          2    1    1    2  501    0  0.76550875691E+02 -0.37099864213E+02 -0.12234719692E+03  0.14901433853E+03  0.00000000000E+00 0. -1.
          1    1    1    2  502    0 -0.22772198400E+02  0.94909959487E+02  0.56396256507E+03  0.57234626603E+03  0.00000000000E+00 0. -1.
         22    1    3    3    0    0 -0.78912567677E+02 -0.34088062435E+02 -0.11390585212E+03  0.14270155040E+03  0.00000000000E+00 0.  1.
         22    1    3    3    0    0  0.25133890386E+02 -0.23722032838E+02  0.12312145715E+02  0.36688366276E+02  0.00000000000E+00 0.  1.
</event>
<event>
 7    1  0.6510186E-006  0.8026662E+02  0.7818608E-02  0.1423824E+00
          2   -1    0    0  502    0  0.00000000000E+00  0.00000000000E+00  0.13396304626E+04  0.13396304626E+04  0.00000000000E+00 0. -1.
          1   -1    0    0  501    0 -0.00000000000E+00 -0.00000000000E+00 -0.13480813140E+04  0.13480813140E+04  0.00000000000E+00 0. -1.
         25    2    1    2    0    0  0.88414117385E+02  0.42681372021E+02  0.21354840961E+03  0.26620829339E+03  0.12500070621E+03 0.  0.
          2    1    1    2  501    0 -0.55224155017E+02 -0.58168543504E+02 -0.13202290039E+04  0.13226631882E+04  0.00000000000E+00 0. -1.
          1    1    1    2  502    0 -0.33189962368E+02  0.15487171483E+02  0.10982297428E+04  0.10988402951E+04  0.00000000000E+00 0. -1.
         22    1    3    3    0    0  0.37911344383E+02 -0.43976982811E+02  0.67520804474E+02  0.89052254811E+02  0.00000000000E+00 0.  1.
         22    1    3    3    0    0  0.50502773002E+02  0.86658354833E+02  0.14602760514E+03  0.17715603858E+03  0.00000000000E+00 0.  1.
</event>
<event>
 7    1  0.6510186E-006  0.1186189E+03  0.7818608E-02  0.1277977E+00
          2   -1    0    0  502    0  0.00000000000E+00  0.00000000000E+00  0.13108510549E+04  0.13108510549E+04  0.00000000000E+00 0. -1.
          1   -1    0    0  501    0 -0.00000000000E+00 -0.00000000000E+00 -0.10454847946E+03  0.10454847946E+03  0.00000000000E+00 0. -1.
         25    2    1    2    0    0 -0.18432265461E+03  0.40468190673E+02  0.62200965602E+03  0.66191698449E+03  0.12500226681E+03 0.  0.
          2    1    1    2  501    0  0.80758033842E+02 -0.30106821311E+02 -0.57303553924E+02  0.10349868604E+03  0.00000000000E+00 0. -1.
          1    1    1    2  502    0  0.10356462077E+03 -0.10361369362E+02  0.64159647332E+03  0.64998386382E+03  0.00000000000E+00 0. -1.
         22    1    3    3    0    0 -0.19492406839E+03  0.12531476770E+02  0.51441141024E+03  0.55024678948E+03  0.00000000000E+00 0. -1.
         22    1    3    3    0    0  0.10601413776E+02  0.27936713903E+02  0.10759824578E+03  0.11167019501E+03  0.00000000000E+00 0. -1.
</event>
<event>
 7    1  0.6510186E-006  0.6776135E+02  0.7818608E-02  0.1394973E+00
          2   -1    0    0  502    0  0.00000000000E+00  0.00000000000E+00  0.18250716512E+03  0.18250716512E+03  0.00000000000E+00 0. -1.
          1   -1    0    0  501    0 -0.00000000000E+00 -0.00000000000E+00 -0.47728094148E+03  0.47728094148E+03  0.00000000000E+00 0. -1.
         25    2    1    2    0    0 -0.16771778049E+02 -0.16989335049E+01  0.17460037213E+02  0.12733229903E+03  0.12499793023E+03 0.  0.
          2    1    1    2  501    0  0.62845201109E+02  0.30529302383E+02 -0.41251674893E+03  0.41839171329E+03  0.00000000000E+00 0. -1.
          1    1    1    2  502    0 -0.46073423060E+02 -0.28830368878E+02  0.10028293535E+03  0.11406409428E+03  0.00000000000E+00 0. -1.
         22    1    3    3    0    0 -0.10781172790E+02 -0.21614260792E+02 -0.50651873300E+02  0.56116149415E+02  0.00000000000E+00 0. -1.
         22    1    3    3    0    0 -0.59906052596E+01  0.19915327287E+02  0.68111910513E+02  0.71216149616E+02  0.00000000000E+00 0. -1.
</event>
<event>
 7    1  0.6510186E-006  0.1050359E+03  0.7818608E-02  0.1404024E+00
          2   -1    0    0  502    0  0.00000000000E+00  0.00000000000E+00  0.25196286253E+04  0.25196286253E+04  0.00000000000E+00 0. -1.
          1   -1    0    0  501    0 -0.00000000000E+00 -0.00000000000E+00 -0.77094537565E+02  0.77094537565E+02  0.00000000000E+00 0. -1.
         25    2    1    2    0    0 -0.76861182598E+02 -0.19795697009E+02  0.11439359841E+03  0.18711533518E+03  0.12500696898E+03 0.  0.
          2    1    1    2  501    0 -0.18088983582E+02 -0.27164727226E+02 -0.32812606625E+02  0.46279594702E+02  0.00000000000E+00 0. -1.
          1    1    1    2  502    0  0.94950166179E+02  0.46960424235E+02  0.23609530959E+04  0.23633282330E+04  0.00000000000E+00 0. -1.
         22    1    3    3    0    0  0.32954831191E+02  0.74603307991E+01  0.36554629637E+02  0.49778694060E+02  0.00000000000E+00 0. -1.
         22    1    3    3    0    0 -0.10981601379E+03 -0.27256027808E+02  0.77838968771E+02  0.13733664113E+03  0.00000000000E+00 0. -1.
</event>
<event>
 7    1  0.6510186E-006  0.1523947E+03  0.7818608E-02  0.1341312E+00
          2   -1    0    0  502    0  0.00000000000E+00  0.00000000000E+00  0.40289230901E+03  0.40289230901E+03  0.00000000000E+00 0. -1.
          1   -1    0    0  501    0 -0.00000000000E+00 -0.00000000000E+00 -0.22057267987E+04  0.22057267987E+04  0.00000000000E+00 0. -1.
         25    2    1    2    0    0  0.38939487954E+02  0.11017313626E+03 -0.35977514195E+03  0.39839368187E+03  0.12499987725E+03 0.  0.
          2    1    1    2  501    0  0.20280470133E+02  0.31821488574E+02 -0.18110113713E+04  0.18114044528E+04  0.00000000000E+00 0. -1.
          1    1    1    2  502    0 -0.59219958088E+02 -0.14199462484E+03  0.36795202355E+03  0.39882097306E+03  0.00000000000E+00 0. -1.
         22    1    3    3    0    0 -0.87829332352E+01 -0.25645627429E+02 -0.53725967266E+02  0.60177385130E+02  0.00000000000E+00 0.  1.
         22    1    3    3    0    0  0.47722421189E+02  0.13581876369E+03 -0.30604917468E+03  0.33821629674E+03  0.00000000000E+00 0.  1.
</event>
<event>
 7    1  0.6510186E-006  0.8975917E+02  0.7818608E-02  0.1324088E+00
          2   -1    0    0  502    0  0.00000000000E+00  0.00000000000E+00  0.91238574172E+03  0.91238574172E+03  0.00000000000E+00 0. -1.
          1   -1    0    0  501    0 -0.00000000000E+00 -0.00000000000E+00 -0.25332496509E+03  0.25332496509E+03  0.00000000000E+00 0. -1.
         25    2    1    2    0    0  0.85451007256E+02  0.44572284337E+02  0.10003165756E+03  0.18686698456E+03  0.12499749691E+03 0.  0.
          2    1    1    2  501    0 -0.86240092967E+02  0.29924638041E+02 -0.19806728965E+03  0.21809055189E+03  0.00000000000E+00 0. -1.
          1    1    1    2  502    0  0.78908571141E+00 -0.74496922378E+02  0.75709640872E+03  0.76075317035E+03  0.00000000000E+00 0. -1.
         22    1    3    3    0    0  0.54847070018E+02  0.43644742816E+02  0.12765312932E+03  0.14563099289E+03  0.00000000000E+00 0.  1.
         22    1    3    3    0    0  0.30603937238E+02  0.92754152011E+00 -0.27621471756E+02  0.41235991678E+02  0.00000000000E+00 0.  1.
</event>
<event>
 7    1  0.6510186E-006  0.6774857E+02  0.7818608E-02  0.1523778E+00
          2   -1    0    0  502    0  0.00000000000E+00  0.00000000000E+00  0.91122086198E+03  0.91122086198E+03  0.00000000000E+00 0. -1.
          1   -1    0    0  501    0 -0.00000000000E+00 -0.00000000000E+00 -0.87087722306E+02  0.87087722306E+02  0.00000000000E+00 0. -1.
         25    2    1    2    0    0  0.54972375099E+02  0.55411275606E+02  0.59222723863E+03  0.61028691599E+03  0.12499858468E+03 0.  0.
          2    1    1    2  501    0 -0.31993255576E+00 -0.21267702110E+02 -0.73177845003E+02  0.76206394148E+02  0.00000000000E+00 0. -1.
          1    1    1    2  502    0 -0.54652442544E+02 -0.34143573496E+02  0.30508374605E+03  0.31181527415E+03  0.00000000000E+00 0. -1.
         22    1    3    3    0    0  0.23727430222E+01  0.86112197218E+02  0.36647154986E+03  0.37646027317E+03  0.00000000000E+00 0. -1.
         22    1    3    3    0    0  0.52599632077E+02 -0.30700921612E+02  0.22575568877E+03  0.23382664282E+03  0.00000000000E+00 0. -1.
</event>
<event>
 7    1  0.6510186E-006  0.1182708E+03  0.7818608E-02  0.1320857E+00
          2   -1    0    0  502    0  0.00000000000E+00  0.00000000000E+00  0.43741085894E+03  0.43741085894E+03  0.00000000000E+00 0. -1.
          1   -1    0    0  501    0 -0.00000000000E+00 -0.00000000000E+00 -0.19298077121E+04  0.19298077121E+04  0.00000000000E+00 0. -1.
         25    2    1    2    0    0  0.97670884863E+02  0.13868682884E+03  0.41445803890E+02  0.21474576836E+03  0.12499740846E+03 0.  0.
          2    1    1    2  501    0 -0.26682939259E+02 -0.51712547749E+02 -0.18324937782E+04  0.18334174686E+04  0.00000000000E+00 0. -1.
          1    1    1    2  502    0 -0.70987945604E+02 -0.86974281092E+02  0.29865112122E+03  0.31905533407E+03  0.00000000000E+00 0. -1.
         22    1    3    3    0    0  0.15340731403E+01 -0.55880902135E+01  0.40966181504E+02  0.41374003428E+02  0.00000000000E+00 0. -1.
         22    1    3    3    0    0  0.96136811723E+02  0.14427491905E+03  0.47962238626E+00  0.17337176493E+03  0.00000000000E+00 0. -1.
</event>
<event>
 7    1  0.6510186E-006  0.2345346E+03  0.7818608E-02  0.1235491E+00
          2   -1    0    0  502    0  0.00000000000E+00  0.00000000000E+00  0.36449834950E+03  0.36449834950E+03  0.00000000000E+00 0. -1.
          1   -1    0    0  501    0 -0.00000000000E+00 -0.00000000000E+00 -0.68871104390E+03  0.68871104390E+03  0.00000000000E+00 0. -1.
         25    2    1    2    0    0 -0.93324006945E+02  0.15434558225E+03 -0.24690862795E+03  0.33033497100E+03  0.12500157389E+03 0.  0.
          2    1    1    2  501    0 -0.11317734067E+02  0.65362031161E+02 -0.35066612165E+03  0.35688515673E+03  0.00000000000E+00 0. -1.
          1    1    1    2  502    0  0.10464174101E+03 -0.21970761341E+03  0.27336205521E+03  0.36598926566E+03  0.00000000000E+00 0. -1.
         22    1    3    3    0    0 -0.78441228915E+00  0.10902694413E+03 -0.16916101643E+03  0.20125342066E+03  0.00000000000E+00 0.  1.
         22    1    3    3    0    0 -0.92539594656E+02  0.45318638116E+02 -0.77747611527E+02  0.12908155034E+03  0.00000000000E+00 0.  1.
</event>
<event>
 7    1  0.6510186E-006  0.4110578E+02  0.7818608E-02  0.1512764E+00
          2   -1    0    0  502    0  0.00000000000E+00  0.00000000000E+00  0.95877091992E+03  0.95877091992E+03  0.00000000000E+00 0. -1.
          1   -1    0    0  501    0 -0.00000000000E+00 -0.00000000000E+00 -0.11581670596E+03  0.11581670596E+03  0.00000000000E+00 0. -1.
         25    2    1    2    0    0  0.55167576260E+02  0.25672281029E+02  0.46123732038E+02  0.14647529006E+03  0.12500033783E+03 0.  0.
          2    1    1    2  501    0 -0.36190664016E+02  0.10709958204E+02 -0.59683614390E+02  0.70615870690E+02  0.00000000000E+00 0. -1.
          1    1    1    2  502    0 -0.18976912243E+02 -0.36382239232E+02  0.85651409631E+03  0.85749646513E+03  0.00000000000E+00 0. -1.
         22    1    3    3    0    0  0.24909047909E+02 -0.45415354529E+02 -0.76285216007E+01  0.52356560587E+02  0.00000000000E+00 0. -1.
         22    1    3    3    0    0  0.30258528351E+02  0.71087635557E+02  0.53752253638E+02  0.94118729477E+02  0.00000000000E+00 0. -1.
</event>
<event>
 7    1  0.6510186E-006  0.1675100E+03  0.7818608E-02  0.1380086E+00
          2   -1    0    0  502    0  0.00000000000E+00  0.00000000000E+00  0.87529796521E+03  0.87529796521E+03  0.00000000000E+00 0. -1.
          1   -1    0    0  501    0 -0.00000000000E+00 -0.00000000000E+00 -0.78660001500E+03  0.78660001500E+03  0.00000000000E+00 0. -1.
         25    2    1    2    0    0  0.50870515372E+02 -0.15919739387E+03 -0.42677073652E+02  0.21302685726E+03  0.12500995861E+03 0.  0.
          2    1    1    2  501    0 -0.74090850116E+02  0.15051472079E+03 -0.64786681439E+03  0.66923504423E+03  0.00000000000E+00 0. -1.
          1    1    1    2  502    0  0.23220334745E+02  0.86826730859E+01  0.77924183824E+03  0.77963607871E+03  0.00000000000E+00 0. -1.
         22    1    3    3    0    0  0.15168156706E+02 -0.10616348496E+03  0.34643838424E+02  0.11269850956E+03  0.00000000000E+00 0. -1.
         22    1    3    3    0    0  0.35702358666E+02 -0.53033908917E+02 -0.77320912076E+02  0.10032834771E+03  0.00000000000E+00 0. -1.
</event>
<event>
 7    1  0.6510186E-006  0.7903344E+02  0.7818608E-02  0.1376831E+00
          2   -1    0    0  502    0  0.00000000000E+00  0.00000000000E+00  0.30698634021E+03  0.30698634021E+03  0.00000000000E+00 0. -1.
          1   -1    0    0  501    0 -0.00000000000E+00 -0.00000000000E+00 -0.74698650768E+03  0.74698650768E+03  0.00000000000E+00 0. -1.
         25    2    1    2    0    0 -0.62295503936E+02 -0.99613028634E+02  0.63462615974E+02  0.18289329299E+03  0.12497586852E+03 0.  0.
          2    1    1    2  501    0  0.13127853461E+02  0.77382032558E+02 -0.68100778724E+03  0.68551581002E+03  0.00000000000E+00 0. -1.
          1    1    1    2  502    0  0.49167650475E+02  0.22230996077E+02  0.17754500380E+03  0.18556374488E+03  0.00000000000E+00 0. -1.
         22    1    3    3    0    0 -0.59509944730E+02 -0.56974667977E+02 -0.23779070213E+02  0.85749580133E+02  0.00000000000E+00 0. -1.
         22    1    3    3    0    0 -0.27855592055E+01 -0.42638360658E+02  0.87241686186E+02  0.97143712860E+02  0.00000000000E+00 0. -1.
</event>
<event>
 7    1  0.6510186E-006  0.2459381E+03  0.7818608E-02  0.1190213E+00
          2   -1    0    0  502    0  0.00000000000E+00  0.00000000000E+00  0.25968620226E+04  0.25968620226E+04  0.00000000000E+00 0. -1.
          1   -1    0    0  501    0 -0.00000000000E+00 -0.00000000000E+00 -0.83032436343E+03  0.83032436343E+03  0.00000000000E+00 0. -1.
         25    2    1    2    0    0  0.34246845476E+03 -0.37452476241E+02 -0.16801198679E+03  0.40316308302E+03  0.12500045327E+03 0.  0.
          2    1    1    2  501    0 -0.98828735600E+02  0.26658397724E+02 -0.53386538574E+03  0.54358995506E+03  0.00000000000E+00 0. -1.
          1    1    1    2  502    0 -0.24363971916E+03  0.10794078517E+02  0.24684150317E+04  0.24804333479E+04  0.00000000000E+00 0. -1.
         22    1    3    3    0    0 -0.57541110397E+01 -0.11157794593E+02  0.49106575199E+01  0.13480383204E+02  0.00000000000E+00 0. -1.
         22    1    3    3    0    0  0.34822256580E+03 -0.26294681648E+02 -0.17292264431E+03  0.38968269981E+03  0.00000000000E+00 0. -1.
</event>
<event>
 7    1  0.6510186E-006  0.5676924E+02  0.7818608E-02  0.1488038E+00
          2   -1    0    0  502    0  0.00000000000E+00  0.00000000000E+00  0.36485606771E+02  0.36485606771E+02  0.00000000000E+00 0. -1.
          1   -1    0    0  501    0 -0.00000000000E+00 -0.00000000000E+00 -0.99703716640E+03  0.99703716640E+03  0.00000000000E+00 0. -1.
         25    2    1    2    0    0  0.44781212732E+01  0.61717776082E+02 -0.35566059970E+03  0.38203147905E+03  0.12499780537E+03 0.  0.
          2    1    1    2  501    0 -0.30488723025E+02 -0.10924014952E+02 -0.59213080063E+03  0.59301583570E+03  0.00000000000E+00 0. -1.
          1    1    1    2  502    0  0.26010601752E+02 -0.50793761130E+02 -0.12760159302E+02  0.58475458430E+02  0.00000000000E+00 0. -1.
         22    1    3    3    0    0  0.55836819776E+02  0.49373487928E+02 -0.12617787785E+03  0.14654811023E+03  0.00000000000E+00 0.  1.
         22    1    3    3    0    0 -0.51358698502E+02  0.12344288154E+02 -0.22948272185E+03  0.23548336881E+03  0.00000000000E+00 0.  1.
</event>
<event>
 7    1  0.6510186E-006  0.5346093E+02  0.7818608E-02  0.1444462E+00
          2   -1    0    0  502    0  0.00000000000E+00  0.00000000000E+00  0.28742750320E+04  0.28742750320E+04  0.00000000000E+00 0. -1.
          1   -1    0    0  501    0 -0.00000000000E+00 -0.00000000000E+00 -0.45564274054E+02  0.45564274054E+02  0.00000000000E+00 0. -1.
         25    2    1    2    0    0  0.92282225192E+01  0.18131380308E+02  0.46611159913E+03  0.48301107804E+03  0.12500308645E+03 0.  0.
          2    1    1    2  501    0  0.26887216779E+02 -0.48317690791E+02 -0.16156522435E+02  0.57606899645E+02  0.00000000000E+00 0. -1.
          1    1    1    2  502    0 -0.36115439298E+02  0.30186310484E+02  0.23787556813E+04  0.23792213284E+04  0.00000000000E+00 0. -1.
         22    1    3    3    0    0  0.57962265455E+02 -0.68969828619E+01  0.34737232206E+03  0.35224242039E+03  0.00000000000E+00 0. -1.
         22    1    3    3    0    0 -0.48734042936E+02  0.25028363169E+02  0.11873927707E+03  0.13076865765E+03  0.00000000000E+00 0. -1.
</event>
<event>
 7    1  0.6510186E-006  0.1521826E+03  0.7818608E-02  0.1320158E+00
          2   -1    0    0  502    0  0.00000000000E+00  0.00000000000E+00  0.36992517396E+03  0.36992517396E+03  0.00000000000E+00 0. -1.
          1   -1    0    0  501    0 -0.00000000000E+00 -0.00000000000E+00 -0.61445222583E+03  0.61445222583E+03  0.00000000000E+00 0. -1.
         25    2    1    2    0    0 -0.16321689310E+03  0.89926454360E+02 -0.14240994347E+02  0.22484678203E+03  0.12500699214E+03 0.  0.
          2    1    1    2  501    0  0.11772136573E+03 -0.90927791813E+02 -0.48164202859E+03  0.50408851106E+03  0.00000000000E+00 0. -1.
          1    1    1    2  502    0  0.45495527366E+02  0.10013374530E+01  0.25135597107E+03  0.25544210671E+03  0.00000000000E+00 0. -1.
         22    1    3    3    0    0 -0.14490027035E+03  0.13188055583E+02 -0.96924655617E+01  0.14582166179E+03  0.00000000000E+00 0.  1.
         22    1    3    3    0    0 -0.18316622747E+02  0.76738398778E+02 -0.45485287848E+01  0.79025120246E+02  0.00000000000E+00 0.  1.
</event>
<event>
 7    1  0.6510186E-006  0.2816298E+02  0.7818608E-02  0.1660235E+00
          2   -1    0    0  502    0  0.00000000000E+00  0.00000000000E+00  0.31421957228E+03  0.31421957228E+03  0.00000000000E+00 0. -1.
          1   -1    0    0  501    0 -0.00000000000E+00 -0.00000000000E+00 -0.80204135840E+03  0.80204135840E+03  0.00000000000E+00 0. -1.
         25    2    1    2    0    0  0.37215884339E+02  0.71683216600E+01 -0.14727455485E+03  0.19685482365E+03  0.12500248080E+03 0.  0.
          2    1    1    2  501    0 -0.25529500193E+02  0.11809412518E+02 -0.62923294559E+03  0.62986134777E+03  0.00000000000E+00 0. -1.
          1    1    1    2  502    0 -0.11686384146E+02 -0.18977734178E+02  0.28868571431E+03  0.28954475926E+03  0.00000000000E+00 0. -1.
         22    1    3    3    0    0 -0.66954830651E+01 -0.50957433105E+02 -0.32164975539E+02  0.60630645169E+02  0.00000000000E+00 0. -1.
         22    1    3    3    0    0  0.43911367404E+02  0.58125754765E+02 -0.11510957931E+03  0.13622417848E+03  0.00000000000E+00 0. -1.
</event>
<event>
 7    1  0.6510186E-006  0.5708081E+02  0.7818608E-02  0.1558556E+00
          2   -1    0    0  502    0  0.00000000000E+00  0.00000000000E+00  0.87706302878E+03  0.87706302878E+03  0.00000000000E+00 0. -1.
          1   -1    0    0  501    0 -0.00000000000E+00 -0.00000000000E+00 -0.11339132715E+03  0.11339132715E+03  0.00000000000E+00 0. -1.
         25    2    1    2    0    0  0.45095898555E+02 -0.39224685884E+02  0.35346970144E+03  0.37965825473E+03  0.12500937763E+03 0.  0.
          2    1    1    2  501    0 -0.27950950767E+02  0.49787549481E+02 -0.91952855525E+02  0.10823762456E+03  0.00000000000E+00 0. -1.
          1    1    1    2  502    0 -0.17144947788E+02 -0.10562863597E+02  0.50215485571E+03  0.50255847664E+03  0.00000000000E+00 0. -1.
         22    1    3    3    0    0  0.22708253720E+02 -0.84761613749E+02  0.22968917951E+03  0.24588069289E+03  0.00000000000E+00 0.  1.
         22    1    3    3    0    0  0.22387644836E+02  0.45536927865E+02  0.12378052194E+03  0.13377756184E+03  0.00000000000E+00 0.  1.
</event>
<event>
 7    1  0.6510186E-006  0.8703224E+02  0.7818608E-02  0.1455620E+00
          2   -1    0    0  502    0  0.00000000000E+00  0.00000000000E+00  0.17936819453E+04  0.17936819453E+04  0.00000000000E+00 0. -1.
          1   -1    0    0  501    0 -0.00000000000E+00 -0.00000000000E+00 -0.17477085194E+04  0.17477085194E+04  0.00000000000E+00 0. -1.
         25    2    1    2    0    0  0.72128522560E+02  0.79171901979E+02  0.95994254446E+03  0.97395339921E+03  0.12499928540E+03 0.  0.
          2    1    1    2  501    0 -0.69238605025E+02 -0.52697639143E+02 -0.17394008538E+04  0.17415758255E+04  0.00000000000E+00 0. -1.
          1    1    1    2  502    0 -0.28899175350E+01 -0.26474262836E+02  0.82543173529E+03  0.82586124007E+03  0.00000000000E+00 0. -1.
         22    1    3    3    0    0  0.46992218668E+02  0.22952483937E+02  0.81230558474E+03  0.81398737591E+03  0.00000000000E+00 0.  1.
         22    1    3    3    0    0  0.25136303892E+02  0.56219418042E+02  0.14763695971E+03  0.15996602331E+03  0.00000000000E+00 0.  1.
</event>
<event>
 7    1  0.6510186E-006  0.1195104E+03  0.7818608E-02  0.1361703E+00
          2   -1    0    0  502    0  0.00000000000E+00  0.00000000000E+00  0.36256731450E+03  0.36256731450E+03  0.00000000000E+00 0. -1.
          1   -1    0    0  501    0 -0.00000000000E+00 -0.00000000000E+00 -0.80433938544E+03  0.80433938544E+03  0.00000000000E+00 0. -1.
         25    2    1    2    0    0  0.61531181557E+02  0.83744516000E+02  0.55697606275E+02  0.17183233392E+03  0.12499958949E+03 0.  0.
          2    1    1    2  501    0 -0.35809442464E+02 -0.11496355430E+03 -0.73972703827E+03  0.74946315862E+03  0.00000000000E+00 0. -1.
          1    1    1    2  502    0 -0.25721739093E+02  0.31219038301E+02  0.24225736105E+03  0.24561120740E+03  0.00000000000E+00 0. -1.
         22    1    3    3    0    0 -0.51940341443E-01 -0.26526335457E+02 -0.11332496638E+02  0.28845704197E+02  0.00000000000E+00 0.  1.
         22    1    3    3    0    0  0.61583121899E+02  0.11027085146E+03  0.67030102913E+02  0.14298662973E+03  0.00000000000E+00 0.  1.
</event>
<event>
 7    1  0.6510186E-006  0.5712818E+02  0.7818608E-02  0.1411080E+00
          2   -1    0    0  502    0  0.00000000000E+00  0.00000000000E+00  0.82773202379E+03  0.82773202379E+03  0.00000000000E+00 0. -1.
          1   -1    0    0  501    0 -0.00000000000E+00 -0.00000000000E+00 -0.54562163148E+03  0.54562163148E+03  0.00000000000E+00 0. -1.
         25    2    1    2    0    0 -0.85785051153E+02  0.52217679792E+02  0.17120388991E+03  0.23456628815E+03  0.12499924212E+03 0.  0.
          2    1    1    2  501    0  0.56778950151E+02 -0.34063327752E+01 -0.51106947458E+03  0.51422510648E+03  0.00000000000E+00 0. -1.
          1    1    1    2  502    0  0.29006101002E+02 -0.48811347016E+02  0.62197597698E+03  0.62456226065E+03  0.00000000000E+00 0. -1.
         22    1    3    3    0    0 -0.11560051751E+02 -0.30829121801E+02  0.92493938346E+02  0.98179418302E+02  0.00000000000E+00 0. -1.
         22    1    3    3    0    0 -0.74224999402E+02  0.83046801593E+02  0.78709951563E+02  0.13638686984E+03  0.00000000000E+00 0. -1.
</event>
<event>
 7    1  0.6510186E-006  0.1582894E+03  0.7818608E-02  0.1250611E+00
          2   -1    0    0  502    0  0.00000000000E+00  0.00000000000E+00  0.97674621813E+03  0.97674621813E+03  0.00000000000E+00 0. -1.
          1   -1    0    0  501    0 -0.00000000000E+00 -0.00000000000E+00 -0.94615842565E+03  0.94615842565E+03  0.00000000000E+00 0. -1.
         25    2    1    2    0    0 -0.19318888079E+03 -0.22114341500E+02  0.69110455573E+03  0.72873648950E+03  0.12498150427E+03 0.  0.
          2    1    1    2  501    0  0.75763930783E+02 -0.37103218276E+02 -0.90906527519E+03  0.91297124630E+03  0.00000000000E+00 0. -1.
          1    1    1    2  502    0  0.11742495001E+03  0.59217559776E+02  0.24854851194E+03  0.28119690798E+03  0.00000000000E+00 0. -1.
         22    1    3    3    0    0 -0.33669291143E+02  0.27027230490E+02  0.30576830130E+03  0.30880146767E+03  0.00000000000E+00 0. -1.
         22    1    3    3    0    0 -0.15951958965E+03 -0.49141571991E+02  0.38533625443E+03  0.41993502183E+03  0.00000000000E+00 0. -1.
</event>
<event>
 7    1  0.7234815E-006  0.8725280E+02  0.7818608E-02  0.1331436E+00
          2   -1    0    0  502    0  0.00000000000E+00  0.00000000000E+00  0.78425578700E+03  0.78425578700E+03  0.00000000000E+00 0. -1.
          1   -1    0    0  501    0 -0.00000000000E+00 -0.00000000000E+00 -0.14059235318E+04  0.14059235318E+04  0.00000000000E+00 0. -1.
         25    2    1    2    0    0 -0.10293786132E+03 -0.73116191224E+02 -0.11779806732E+03  0.21317625578E+03  0.12500220259E+03 0.  0.
          2    1    1    2  501    0  0.16029960662E+02  0.70016755523E+02 -0.12368239200E+04  0.12389078717E+04  0.00000000000E+00 0. -1.
          1    1    1    2  502    0  0.86907900659E+02  0.30994357018E+01  0.73295424252E+03  0.73809519123E+03  0.00000000000E+00 0. -1.
         22    1    3    3    0    0  0.18087834232E+02 -0.51637895088E+02 -0.34151786677E+02  0.64497957251E+02  0.00000000000E+00 0. -1.
         22    1    3    3    0    0 -0.12102569555E+03 -0.21478296136E+02 -0.83646280640E+02  0.14867829853E+03  0.00000000000E+00 0. -1.
</event>
<event>
 7    1  0.6510186E-006  0.1019900E+03  0.7818608E-02  0.1372632E+00
          2   -1    0    0  502    0  0.00000000000E+00  0.00000000000E+00  0.15534072978E+04  0.15534072978E+04  0.00000000000E+00 0. -1.
          1   -1    0    0  501    0 -0.00000000000E+00 -0.00000000000E+00 -0.12355546487E+03  0.12355546487E+03  0.00000000000E+00 0. -1.
         25    2    1    2    0    0  0.60506153624E+02  0.77666823102E+02  0.27813990544E+03  0.32043761333E+03  0.12500130798E+03 0.  0.
          2    1    1    2  501    0  0.31066959555E+02 -0.30136779682E+02 -0.95606193101E+02  0.10494725163E+03  0.00000000000E+00 0. -1.
          1    1    1    2  502    0 -0.91573113179E+02 -0.47530043420E+02  0.12473181206E+04  0.12515778977E+04  0.00000000000E+00 0. -1.
         22    1    3    3    0    0 -0.33532111588E+02  0.31862599823E+02  0.13812984184E+03  0.14566908039E+03  0.00000000000E+00 0.  1.
         22    1    3    3    0    0  0.94038265211E+02  0.45804223279E+02  0.14001006361E+03  0.17476853294E+03  0.00000000000E+00 0.  1.
</event>
<event>
 7    1  0.6825412E-006  0.6560395E+02  0.7818608E-02  0.1425350E+00
          2   -1    0    0  502    0  0.00000000000E+00  0.00000000000E+00  0.68485565645E+03  0.68485565645E+03  0.00000000000E+00 0. -1.
          1   -1    0    0  501    0 -0.00000000000E+00 -0.00000000000E+00 -0.32052739983E+04  0.32052739983E+04  0.00000000000E+00 0. -1.
         25    2    1    2    0    0 -0.60398216756E+02  0.29279396912E+02 -0.12162960014E+04  0.12245417216E+04  0.12498494850E+03 0.  0.
          2    1    1    2  501    0  0.29057468739E+02 -0.60577127971E+02 -0.19835653117E+04  0.19847028167E+04  0.00000000000E+00 0. -1.
          1    1    1    2  502    0  0.31340748017E+02  0.31297731059E+02  0.67944297128E+03  0.68088511636E+03  0.00000000000E+00 0. -1.
         22    1    3    3    0    0 -0.60274611015E+00 -0.42990625634E+02 -0.24664443921E+03  0.25036380846E+03  0.00000000000E+00 0.  1.
         22    1    3    3    0    0 -0.59795470646E+02  0.72270022547E+02 -0.96965156220E+03  0.97417791319E+03  0.00000000000E+00 0.  1.
</event>
<event>
 7    1  0.6510186E-006  0.3368788E+02  0.7818608E-02  0.1575178E+00
          2   -1    0    0  502    0  0.00000000000E+00  0.00000000000E+00  0.47675755536E+03  0.47675755536E+03  0.00000000000E+00 0. -1.
          1   -1    0    0  501    0 -0.00000000000E+00 -0.00000000000E+00 -0.14934422687E+03  0.14934422687E+03  0.00000000000E+00 0. -1.
         25    2    1    2    0    0  0.12778339670E+02 -0.17839595114E+02  0.24747770897E+03  0.27812241759E+03  0.12500130243E+03 0.  0.
          2    1    1    2  501    0  0.22965333621E+02  0.20431162665E+02 -0.13072598561E+03  0.13429118463E+03  0.00000000000E+00 0. -1.
          1    1    1    2  502    0 -0.35743673292E+02 -0.25915675519E+01  0.21066160512E+03  0.21368818001E+03  0.00000000000E+00 0. -1.
         22    1    3    3    0    0 -0.60622336349E+01 -0.58916532355E+02  0.21355364422E+03  0.22161468232E+03  0.00000000000E+00 0. -1.
         22    1    3    3    0    0  0.18840573305E+02  0.41076937242E+02  0.33924064754E+02  0.56507735267E+02  0.00000000000E+00 0. -1.
</event>
<event>
 7    1  0.6510186E-006  0.6515025E+02  0.7818608E-02  0.1486179E+00
          2   -1    0    0  502    0  0.00000000000E+00  0.00000000000E+00  0.10078946090E+04  0.10078946090E+04  0.00000000000E+00 0. -1.
          1   -1    0    0  501    0 -0.00000000000E+00 -0.00000000000E+00 -0.14249503467E+03  0.14249503467E+03  0.00000000000E+00 0. -1.
         25    2    1    2    0    0  0.36589709404E+02 -0.34326226175E+02  0.16528596971E+02  0.13570835635E+03  0.12500586717E+03 0.  0.
          2    1    1    2  501    0 -0.11464056453E+02 -0.26190586456E+02 -0.79250462722E+02  0.84249672112E+02  0.00000000000E+00 0. -1.
          1    1    1    2  502    0 -0.25125652951E+02  0.60516812631E+02  0.92812144008E+03  0.93043161521E+03  0.00000000000E+00 0. -1.
         22    1    3    3    0    0  0.18543039581E+02  0.46360368468E+02 -0.52541467254E+01  0.50206913261E+02  0.00000000000E+00 0. -1.
         22    1    3    3    0    0  0.18046669823E+02 -0.80686594643E+02  0.21782743697E+02  0.85501443086E+02  0.00000000000E+00 0. -1.
</event>
<event>
 7    1  0.6510186E-006  0.5237564E+02  0.7818608E-02  0.1454502E+00
          2   -1    0    0  502    0  0.00000000000E+00  0.00000000000E+00  0.29327235966E+02  0.29327235966E+02  0.00000000000E+00 0. -1.
          1   -1    0    0  501    0 -0.00000000000E+00 -0.00000000000E+00 -0.22106477486E+04  0.22106477486E+04  0.00000000000E+00 0. -1.
         25    2    1    2    0    0  0.14675822045E+02  0.19363337598E+02 -0.18491043984E+03  0.22451800677E+03  0.12500458394E+03 0.  0.
          2    1    1    2  501    0 -0.52967794935E+02  0.35357230561E+01 -0.19512573570E+04  0.19519793446E+04  0.00000000000E+00 0. -1.
          1    1    1    2  502    0  0.38291972890E+02 -0.22899060654E+02 -0.45152715754E+02  0.63477633121E+02  0.00000000000E+00 0. -1.
         22    1    3    3    0    0  0.55990284389E+02 -0.19021799337E+02 -0.14147371650E+03  0.15333477510E+03  0.00000000000E+00 0.  1.
         22    1    3    3    0    0 -0.41314462344E+02  0.38385136934E+02 -0.43436723347E+02  0.71183231673E+02  0.00000000000E+00 0.  1.
</event>
<event>
 7    1  0.6510186E-006  0.2064809E+03  0.7818608E-02  0.1270581E+00
          2   -1    0    0  502    0  0.00000000000E+00  0.00000000000E+00  0.22825164248E+04  0.22825164248E+04  0.00000000000E+00 0. -1.
          1   -1    0    0  501    0 -0.00000000000E+00 -0.00000000000E+00 -0.40257977902E+03  0.40257977902E+03  0.00000000000E+00 0. -1.
         25    2    1    2    0    0 -0.13486290803E+03  0.12594134021E+03 -0.91738396377E+02  0.24101826455E+03  0.12499858135E+03 0.  0.
          2    1    1    2  501    0  0.13348374537E+03 -0.17908079996E+03 -0.18299803858E+03  0.28874924297E+03  0.00000000000E+00 0. -1.
          1    1    1    2  502    0  0.13791626632E+01  0.53139459750E+02  0.21546730807E+04  0.21553286963E+04  0.00000000000E+00 0. -1.
         22    1    3    3    0    0 -0.42599832163E+01  0.74657822853E+02 -0.63032779579E+02  0.97801172138E+02  0.00000000000E+00 0. -1.
         22    1    3    3    0    0 -0.13060292481E+03  0.51283517359E+02 -0.28705616799E+02  0.14321709241E+03  0.00000000000E+00 0. -1.
</event>
<event>
 7    1  0.7855274E-006  0.1170250E+03  0.7818608E-02  0.1299196E+00
          2   -1    0    0  502    0  0.00000000000E+00  0.00000000000E+00  0.18976105647E+04  0.18976105647E+04  0.00000000000E+00 0. -1.
          1   -1    0    0  501    0 -0.00000000000E+00 -0.00000000000E+00 -0.10334839894E+04  0.10334839894E+04  0.00000000000E+00 0. -1.
         25    2    1    2    0    0  0.16483996063E+02 -0.13142314852E+03 -0.60002567541E+02  0.19175068326E+03  0.12499700127E+03 0.  0.
          2    1    1    2  501    0 -0.66815532844E+02  0.25690272665E+02 -0.90431996706E+03  0.90714877962E+03  0.00000000000E+00 0. -1.
          1    1    1    2  502    0  0.50331536782E+02  0.10573287585E+03  0.18284491099E+04  0.18321950912E+04  0.00000000000E+00 0. -1.
         22    1    3    3    0    0 -0.49602289672E+02 -0.85513970759E+02 -0.49630065909E+02  0.11061722189E+03  0.00000000000E+00 0.  1.
         22    1    3    3    0    0  0.66086285734E+02 -0.45909177759E+02 -0.10372501632E+02  0.81133461376E+02  0.00000000000E+00 0.  1.
</event>
<event>
 7    1  0.6510186E-006  0.3748341E+02  0.7818608E-02  0.1547237E+00
          2   -1    0    0  502    0  0.00000000000E+00  0.00000000000E+00  0.80062097245E+03  0.80062097245E+03  0.00000000000E+00 0. -1.
          1   -1    0    0  501    0 -0.00000000000E+00 -0.00000000000E+00 -0.11951297578E+03  0.11951297578E+03  0.00000000000E+00 0. -1.
         25    2    1    2    0    0  0.37671304699E+02 -0.10092088133E+02  0.14782034956E+03  0.19747668041E+03  0.12500082448E+03 0.  0.
          2    1    1    2  501    0 -0.22206258545E+02 -0.24369398332E+02 -0.91226771841E+02  0.97001594802E+02  0.00000000000E+00 0. -1.
          1    1    1    2  502    0 -0.15465046154E+02  0.34461486464E+02  0.62451441895E+03  0.62565567302E+03  0.00000000000E+00 0. -1.
         22    1    3    3    0    0  0.31781897686E+02 -0.44258151006E+02  0.15300852614E+03  0.16242069456E+03  0.00000000000E+00 0. -1.
         22    1    3    3    0    0  0.58894070134E+01  0.34166062873E+02 -0.51881765826E+01  0.35055985844E+02  0.00000000000E+00 0. -1.
</event>
<event>
 7    1  0.6510186E-006  0.2265316E+03  0.7818608E-02  0.1145315E+00
          2   -1    0    0  502    0  0.00000000000E+00  0.00000000000E+00  0.17391250075E+04  0.17391250075E+04  0.00000000000E+00 0. -1.
          1   -1    0    0  501    0 -0.00000000000E+00 -0.00000000000E+00 -0.82026576829E+03  0.82026576829E+03  0.00000000000E+00 0. -1.
         25    2    1    2    0    0  0.28050037416E+02 -0.87711306460E+02 -0.91970812336E+02  0.18044636010E+03  0.12498872217E+03 0.  0.
          2    1    1    2  501    0  0.16950692118E+03  0.19856173000E+03 -0.65118071701E+03  0.70156659210E+03  0.00000000000E+00 0. -1.
          1    1    1    2  502    0 -0.19755695860E+03 -0.11085042354E+03  0.16620107686E+04  0.16773778236E+04  0.00000000000E+00 0. -1.
         22    1    3    3    0    0  0.58371796153E+02 -0.90181499913E+02 -0.30197093629E+02  0.11158778596E+03  0.00000000000E+00 0.  1.
         22    1    3    3    0    0 -0.30321758738E+02  0.24701934527E+01 -0.61773718706E+02  0.68858574132E+02  0.00000000000E+00 0.  1.
</event>
<event>
 7    1  0.6510186E-006  0.7841925E+02  0.7818608E-02  0.1371929E+00
          2   -1    0    0  502    0  0.00000000000E+00  0.00000000000E+00  0.11777148711E+04  0.11777148711E+04  0.00000000000E+00 0. -1.
          1   -1    0    0  501    0 -0.00000000000E+00 -0.00000000000E+00 -0.46198211581E+03  0.46198211581E+03  0.00000000000E+00 0. -1.
         25    2    1    2    0    0 -0.13200006913E+02  0.93014553257E+02  0.15247300366E+03  0.21839925482E+03  0.12499708141E+03 0.  0.
          2    1    1    2  501    0 -0.42388066510E+02 -0.37537339107E+02 -0.42558720835E+03  0.42933701438E+03  0.00000000000E+00 0. -1.
          1    1    1    2  502    0  0.55588073423E+02 -0.55477214150E+02  0.98884695996E+03  0.99196071768E+03  0.00000000000E+00 0. -1.
         22    1    3    3    0    0 -0.21060211999E+01 -0.76400061215E+01  0.10717121507E+03  0.10746382814E+03  0.00000000000E+00 0. -1.
         22    1    3    3    0    0 -0.11093985713E+02  0.10065455938E+03  0.45301788585E+02  0.11093542668E+03  0.00000000000E+00 0. -1.
</event>
<event>
 7    1  0.6510186E-006  0.9767697E+02  0.7818608E-02  0.1399703E+00
          2   -1    0    0  502    0  0.00000000000E+00  0.00000000000E+00  0.20257653185E+04  0.20257653185E+04  0.00000000000E+00 0. -1.
          1   -1    0    0  501    0 -0.00000000000E+00 -0.00000000000E+00 -0.51399591921E+03  0.51399591921E+03  0.00000000000E+00 0. -1.
         25    2    1    2    0    0  0.51429607322E+02  0.98328184352E+02  0.19984514016E+03  0.26053172100E+03  0.12500104502E+03 0.  0.
          2    1    1    2  501    0 -0.36247821505E+02 -0.21789566019E+01 -0.48164941386E+03  0.48301636648E+03  0.00000000000E+00 0. -1.
          1    1    1    2  502    0 -0.15181785817E+02 -0.96149227750E+02  0.17935736730E+04  0.17962131502E+04  0.00000000000E+00 0. -1.
         22    1    3    3    0    0 -0.11429388318E+02 -0.20867496963E+02  0.67851020571E+02  0.71901629601E+02  0.00000000000E+00 0.  1.
         22    1    3    3    0    0  0.62858995640E+02  0.11919568132E+03  0.13199411959E+03  0.18863009140E+03  0.00000000000E+00 0.  1.
</event>
<event>
 7    1  0.6510186E-006  0.7047083E+02  0.7818608E-02  0.1431952E+00
          2   -1    0    0  502    0  0.00000000000E+00  0.00000000000E+00  0.48402265998E+03  0.48402265998E+03  0.00000000000E+00 0. -1.
          1   -1    0    0  501    0 -0.00000000000E+00 -0.00000000000E+00 -0.17504484268E+04  0.17504484268E+04  0.00000000000E+00 0. -1.
         25    2    1    2    0    0 -0.77303245952E+02  0.50918425792E+00 -0.36989659231E+03  0.39802590591E+03  0.12500032667E+03 0.  0.
          2    1    1    2  501    0  0.60771940094E+02 -0.36071202947E+02 -0.13647531851E+04  0.13665817270E+04  0.00000000000E+00 0. -1.
          1    1    1    2  502    0  0.16531305858E+02  0.35562018689E+02  0.46822401055E+03  0.46986345389E+03  0.00000000000E+00 0. -1.
         22    1    3    3    0    0 -0.34547764447E+02  0.56933866657E+02 -0.25066838118E+03  0.25936393450E+03  0.00000000000E+00 0. -1.
         22    1    3    3    0    0 -0.42755481505E+02 -0.56424682399E+02 -0.11922821113E+03  0.13866197140E+03  0.00000000000E+00 0. -1.
</event>
<event>
 7    1  0.6510186E-006  0.3254777E+03  0.7818608E-02  0.1259485E+00
          2   -1    0    0  502    0  0.00000000000E+00  0.00000000000E+00  0.84052231562E+03  0.84052231562E+03  0.00000000000E+00 0. -1.
          1   -1    0    0  501    0 -0.00000000000E+00 -0.00000000000E+00 -0.17419772049E+03  0.17419772049E+03  0.00000000000E+00 0. -1.
         25    2    1    2    0    0  0.23489763214E+03 -0.20977479512E+03  0.33841875427E+03  0.47888968339E+03  0.12500285343E+03 0.  0.
          2    1    1    2  501    0 -0.22475501852E+03  0.24595470253E+03  0.17102108699E+03  0.37450867312E+03  0.00000000000E+00 0. -1.
          1    1    1    2  502    0 -0.10142613626E+02 -0.36179907418E+02  0.15688475386E+03  0.16132167959E+03  0.00000000000E+00 0. -1.
         22    1    3    3    0    0  0.93942405261E+02 -0.16822581861E+02  0.63468364929E+02  0.11461417065E+03  0.00000000000E+00 0.  1.
         22    1    3    3    0    0  0.14095522688E+03 -0.19295221326E+03  0.27495038934E+03  0.36427551275E+03  0.00000000000E+00 0.  1.
</event>
<event>
 7    1  0.6510186E-006  0.5550920E+02  0.7818608E-02  0.1497273E+00
          2   -1    0    0  502    0  0.00000000000E+00  0.00000000000E+00  0.49042595461E+03  0.49042595461E+03  0.00000000000E+00 0. -1.
          1   -1    0    0  501    0 -0.00000000000E+00 -0.00000000000E+00 -0.70789924930E+03  0.70789924930E+03  0.00000000000E+00 0. -1.
         25    2    1    2    0    0  0.19571707202E+02  0.16379593591E+02 -0.51440870201E+03  0.52999381347E+03  0.12500314718E+03 0.  0.
          2    1    1    2  501    0  0.29472615670E+02  0.98188181908E+01 -0.18278161043E+03  0.18540270057E+03  0.00000000000E+00 0. -1.
          1    1    1    2  502    0 -0.49044322873E+02 -0.26198411781E+02  0.47971701775E+03  0.48292868987E+03  0.00000000000E+00 0. -1.
         22    1    3    3    0    0 -0.18429023800E+02  0.63891629227E+02 -0.25215668018E+03  0.26077722401E+03  0.00000000000E+00 0.  1.
         22    1    3    3    0    0  0.38000731002E+02 -0.47512035636E+02 -0.26225202183E+03  0.26921658946E+03  0.00000000000E+00 0.  1.
</event>
<event>
 7    1  0.6510186E-006  0.1382131E+03  0.7818608E-02  0.1300367E+00
          2   -1    0    0  502    0  0.00000000000E+00  0.00000000000E+00  0.29198731594E+04  0.29198731594E+04  0.00000000000E+00 0. -1.
          1   -1    0    0  501    0 -0.00000000000E+00 -0.00000000000E+00 -0.35718013282E+03  0.35718013282E+03  0.00000000000E+00 0. -1.
         25    2    1    2    0    0 -0.81970156783E+02 -0.12913723007E+03  0.17984520497E+02  0.19835352810E+03  0.12500059335E+03 0.  0.
          2    1    1    2  501    0 -0.31840378173E+02  0.50806924297E+02 -0.26190848259E+03  0.26868421333E+03  0.00000000000E+00 0. -1.
          1    1    1    2  502    0  0.11381053496E+03  0.78330305772E+02  0.28066169886E+04  0.28100155508E+04  0.00000000000E+00 0. -1.
         22    1    3    3    0    0  0.14467140666E+02 -0.52140218582E+02 -0.34584777515E+02  0.64218434959E+02  0.00000000000E+00 0. -1.
         22    1    3    3    0    0 -0.96437297449E+02 -0.76997011487E+02  0.52569298012E+02  0.13413509314E+03  0.00000000000E+00 0. -1.
</event>
<event>
 7    1  0.6510186E-006  0.1022948E+03  0.7818608E-02  0.1377378E+00
          2   -1    0    0  502    0  0.00000000000E+00  0.00000000000E+00  0.95316867464E+03  0.95316867464E+03  0.00000000000E+00 0. -1.
          1   -1    0    0  501    0 -0.00000000000E+00 -0.00000000000E+00 -0.29963970977E+03  0.29963970977E+03  0.00000000000E+00 0. -1.
         25    2    1    2    0    0  0.53505182411E+02 -0.47861653568E+02  0.24944170059E+03  0.28809319048E+03  0.12499192766E+03 0.  0.
          2    1    1    2  501    0 -0.94593755135E+02  0.42008733867E+02 -0.27009981807E+03  0.28925183483E+03  0.00000000000E+00 0. -1.
          1    1    1    2  502    0  0.41088572724E+02  0.58529197013E+01  0.67418708235E+03  0.67546335910E+03  0.00000000000E+00 0. -1.
         22    1    3    3    0    0  0.65049179215E+02  0.24817543211E+02  0.13762074115E+03  0.15422961636E+03  0.00000000000E+00 0.  1.
         22    1    3    3    0    0 -0.11543996804E+02 -0.72679196779E+02  0.11182095944E+03  0.13386357412E+03  0.00000000000E+00 0.  1.
</event>
<event>
 7    1  0.6510186E-006  0.5044476E+02  0.7818608E-02  0.1451715E+00
          2   -1    0    0  502    0  0.00000000000E+00  0.00000000000E+00  0.55914670821E+03  0.55914670821E+03  0.00000000000E+00 0. -1.
          1   -1    0    0  501    0 -0.00000000000E+00 -0.00000000000E+00 -0.52389432664E+03  0.52389432664E+03  0.00000000000E+00 0. -1.
         25    2    1    2    0    0  0.55023590222E+02 -0.28404778700E+02 -0.27937248096E+03  0.31226387079E+03  0.12500125979E+03 0.  0.
          2    1    1    2  501    0 -0.12893045065E+02  0.49865222809E+02 -0.22411973017E+03  0.22996178923E+03  0.00000000000E+00 0. -1.
          1    1    1    2  502    0 -0.42130545156E+02 -0.21460444109E+02  0.53874459269E+03  0.54081537483E+03  0.00000000000E+00 0. -1.
         22    1    3    3    0    0 -0.17869871686E+02 -0.31804046318E+02 -0.20444237467E+03  0.20767165006E+03  0.00000000000E+00 0.  1.
         22    1    3    3    0    0  0.72893461908E+02  0.33992676189E+01 -0.74930106288E+02  0.10459222073E+03  0.00000000000E+00 0.  1.
</event>
<event>
 7    1  0.6510186E-006  0.2075536E+03  0.7818608E-02  0.1354246E+00
          2   -1    0    0  502    0  0.00000000000E+00  0.00000000000E+00  0.36942275840E+03  0.36942275840E+03  0.00000000000E+00 0. -1.
          1   -1    0    0  501    0 -0.00000000000E+00 -0.00000000000E+00 -0.39421830163E+03  0.39421830163E+03  0.00000000000E+00 0. -1.
         25    2    1    2    0    0 -0.19176909887E+03  0.62892925343E+02 -0.10032381113E+03  0.25772226779E+03  0.12499997158E+03 0.  0.
          2    1    1    2  501    0  0.19286780088E+03 -0.87671101657E+02 -0.16224987394E+03  0.26685058043E+03  0.00000000000E+00 0. -1.
          1    1    1    2  502    0 -0.10987020087E+01  0.24778176313E+02  0.23777814183E+03  0.23906821182E+03  0.00000000000E+00 0. -1.
         22    1    3    3    0    0 -0.14630683626E+03  0.10007588487E+03 -0.62937889240E+02  0.18810117216E+03  0.00000000000E+00 0.  1.
         22    1    3    3    0    0 -0.45462262613E+02 -0.37182959522E+02 -0.37385921886E+02  0.69621095624E+02  0.00000000000E+00 0.  1.
</event>
<event>
 7    1  0.6510186E-006  0.5436786E+02  0.7818608E-02  0.1465320E+00
          2   -1    0    0  502    0  0.00000000000E+00  0.00000000000E+00  0.81066988749E+03  0.81066988749E+03  0.00000000000E+00 0. -1.
          1   -1    0    0  501    0 -0.00000000000E+00 -0.00000000000E+00 -0.38529706794E+03  0.38529706794E+03  0.00000000000E+00 0. -1.
         25    2    1    2    0    0 -0.19749352201E+01  0.50423346996E+02  0.43247602160E+03  0.45299773152E+03  0.12500008484E+03 0.  0.
          2    1    1    2  501    0 -0.36479132298E+02 -0.40422841978E+02 -0.37197570658E+03  0.37593970199E+03  0.00000000000E+00 0. -1.
          1    1    1    2  502    0  0.38454067518E+02 -0.10000505018E+02  0.36487250452E+03  0.36702952193E+03  0.00000000000E+00 0. -1.
         22    1    3    3    0    0 -0.24703853485E+02  0.86975907867E+02  0.26162293656E+03  0.27680615936E+03  0.00000000000E+00 0. -1.
         22    1    3    3    0    0  0.22728918265E+02 -0.36552560871E+02  0.17085308504E+03  0.17619157216E+03  0.00000000000E+00 0. -1.
</event>
<event>
 7    1  0.6510186E-006  0.1054209E+03  0.7818608E-02  0.1399963E+00
          2   -1    0    0  502    0  0.00000000000E+00  0.00000000000E+00  0.18680394115E+04  0.18680394115E+04  0.00000000000E+00 0. -1.
          1   -1    0    0  501    0 -0.00000000000E+00 -0.00000000000E+00 -0.11715363558E+04  0.11715363558E+04  0.00000000000E+00 0. -1.
         25    2    1    2    0    0  0.53666082859E+01 -0.13728104066E+03  0.17072614619E+03  0.25228567347E+03  0.12500303771E+03 0.  0.
          2    1    1    2  501    0  0.38244399095E+01  0.10498690061E+03 -0.11281456781E+04  0.11330267193E+04  0.00000000000E+00 0. -1.
          1    1    1    2  502    0 -0.91910481954E+01  0.32294140051E+02  0.16539225876E+04  0.16542633746E+04  0.00000000000E+00 0. -1.
         22    1    3    3    0    0 -0.49750752532E+02 -0.45480087527E+02  0.11049300083E+03  0.12943059519E+03  0.00000000000E+00 0.  1.
         22    1    3    3    0    0  0.55117360818E+02 -0.91800953130E+02  0.60233145357E+02  0.12285507828E+03  0.00000000000E+00 0.  1.
</event>
<event>
 7    1  0.6510186E-006  0.9855881E+02  0.7818608E-02  0.1301695E+00
          2   -1    0    0  502    0  0.00000000000E+00  0.00000000000E+00  0.29160702036E+03  0.29160702036E+03  0.00000000000E+00 0. -1.
          1   -1    0    0  501    0 -0.00000000000E+00 -0.00000000000E+00 -0.19935076002E+03  0.19935076002E+03  0.00000000000E+00 0. -1.
         25    2    1    2    0    0  0.28030727803E+02  0.80939257446E+01 -0.16527020863E+02  0.12942100014E+03  0.12500167809E+03 0.  0.
          2    1    1    2  501    0  0.81303258162E+02  0.17003791065E+02 -0.96670047771E+02  0.12745370467E+03  0.00000000000E+00 0. -1.
          1    1    1    2  502    0 -0.10933398597E+03 -0.25097716809E+02  0.20545332898E+03  0.23408307556E+03  0.00000000000E+00 0. -1.
         22    1    3    3    0    0 -0.45609590819E+01  0.48849814248E+02  0.31660392748E+02  0.58390814079E+02  0.00000000000E+00 0. -1.
         22    1    3    3    0    0  0.32591686885E+02 -0.40755888503E+02 -0.48187413611E+02  0.71030186063E+02  0.00000000000E+00 0. -1.
</event>
<event>
 7    1  0.6510186E-006  0.4577330E+02  0.7818608E-02  0.1473543E+00
          2   -1    0    0  502    0  0.00000000000E+00  0.00000000000E+00  0.94158258702E+03  0.94158258702E+03  0.00000000000E+00 0. -1.
          1   -1    0    0  501    0 -0.00000000000E+00 -0.00000000000E+00 -0.11511654684E+04  0.11511654684E+04  0.00000000000E+00 0. -1.
         25    2    1    2    0    0 -0.42433769081E+02 -0.64557031058E+02 -0.16307336832E+02  0.14785239910E+03  0.12500467058E+03 0.  0.
          2    1    1    2  501    0  0.40236851728E+02  0.18987826537E+02 -0.10680279935E+04  0.10689543193E+04  0.00000000000E+00 0. -1.
          1    1    1    2  502    0  0.21969173531E+01  0.45569204521E+02  0.87475244900E+03  0.87594133700E+03  0.00000000000E+00 0. -1.
         22    1    3    3    0    0 -0.82950735746E+02 -0.31655936047E+02  0.10101329968E+02  0.89358601797E+02  0.00000000000E+00 0. -1.
         22    1    3    3    0    0  0.40516966665E+02 -0.32901095011E+02 -0.26408666800E+02  0.58493797302E+02  0.00000000000E+00 0. -1.
</event>
<event>
 7    1  0.6510186E-006  0.4932211E+02  0.7818608E-02  0.1564390E+00
          2   -1    0    0  502    0  0.00000000000E+00  0.00000000000E+00  0.29620117747E+02  0.29620117747E+02  0.00000000000E+00 0. -1.
          1   -1    0    0  501    0 -0.00000000000E+00 -0.00000000000E+00 -0.12268374187E+04  0.12268374187E+04  0.00000000000E+00 0. -1.
         25    2    1    2    0    0 -0.69252380481E+01 -0.65329667403E+02 -0.34373025810E+03  0.37160700978E+03  0.12500142006E+03 0.  0.
          2    1    1    2  501    0  0.13476501006E+02  0.17968765346E+02 -0.83221845531E+03  0.83252150121E+03  0.00000000000E+00 0. -1.
          1    1    1    2  502    0 -0.65512629584E+01  0.47360902057E+02 -0.21268587542E+02  0.52329025464E+02  0.00000000000E+00 0. -1.
         22    1    3    3    0    0 -0.25087371403E+02 -0.58439361696E+02 -0.60712846139E+02  0.87923744720E+02  0.00000000000E+00 0.  1.
         22    1    3    3    0    0  0.18162133355E+02 -0.68903057066E+01 -0.28301741196E+03  0.28368326506E+03  0.00000000000E+00 0.  1.
</event>
<event>
 7    1  0.6510186E-006  0.1776462E+03  0.7818608E-02  0.1244046E+00
          2   -1    0    0  502    0  0.00000000000E+00  0.00000000000E+00  0.17807049942E+04  0.17807049942E+04  0.00000000000E+00 0. -1.
          1   -1    0    0  501    0 -0.00000000000E+00 -0.00000000000E+00 -0.42182122360E+03  0.42182122360E+03  0.00000000000E+00 0. -1.
         25    2    1    2    0    0  0.84704675853E+02  0.55242901574E+02 -0.42672627867E+02  0.16635239115E+03  0.12500201833E+03 0.  0.
          2    1    1    2  501    0  0.71560099686E+02  0.36403153005E+02 -0.30736471062E+03  0.31767767116E+03  0.00000000000E+00 0. -1.
          1    1    1    2  502    0 -0.15626477554E+03 -0.91646054579E+02  0.17089211091E+04  0.17184961555E+04  0.00000000000E+00 0. -1.
         22    1    3    3    0    0  0.46096879354E+02  0.87775407583E+02 -0.56359518022E+02  0.11404314856E+03  0.00000000000E+00 0. -1.
         22    1    3    3    0    0  0.38607796498E+02 -0.32532506009E+02  0.13686890155E+02  0.52309242585E+02  0.00000000000E+00 0. -1.
</event>
<event>
 7    1  0.6510186E-006  0.8331763E+02  0.7818608E-02  0.1366278E+00
          2   -1    0    0  502    0  0.00000000000E+00  0.00000000000E+00  0.58299539334E+03  0.58299539334E+03  0.00000000000E+00 0. -1.
          1   -1    0    0  501    0 -0.00000000000E+00 -0.00000000000E+00 -0.82774386645E+03  0.82774386645E+03  0.00000000000E+00 0. -1.
         25    2    1    2    0    0 -0.31980151726E+02 -0.64729870911E+01 -0.28330032527E+03  0.31136647494E+03  0.12500151101E+03 0.  0.
          2    1    1    2  501    0 -0.49730329437E+02  0.25411361423E+02 -0.52583248753E+03  0.52878979557E+03  0.00000000000E+00 0. -1.
          1    1    1    2  502    0  0.81710481163E+02 -0.18938374332E+02  0.56438433970E+03  0.57058298927E+03  0.00000000000E+00 0. -1.
         22    1    3    3    0    0  0.18318473309E+02  0.13627752051E+02  0.10440869934E+00  0.22831841615E+02  0.00000000000E+00 0. -1.
         22    1    3    3    0    0 -0.50298625034E+02 -0.20100739142E+02 -0.28340473397E+03  0.28853463333E+03  0.00000000000E+00 0. -1.
</event>
<event>
 7    1  0.6510186E-006  0.1214818E+03  0.7818608E-02  0.1336812E+00
          2   -1    0    0  502    0  0.00000000000E+00  0.00000000000E+00  0.33937927676E+04  0.33937927676E+04  0.00000000000E+00 0. -1.
          1   -1    0    0  501    0 -0.00000000000E+00 -0.00000000000E+00 -0.53854634952E+02  0.53854634952E+02  0.00000000000E+00 0. -1.
         25    2    1    2    0    0 -0.59310741789E+02  0.10132697428E+03  0.65424905457E+03  0.67635179869E+03  0.12500004154E+03 0.  0.
          2    1    1    2  501    0  0.99396819849E+02 -0.72763770815E+02  0.46532078390E+02  0.13167964330E+03  0.00000000000E+00 0. -1.
          1    1    1    2  502    0 -0.40086078060E+02 -0.28563203463E+02  0.26391569997E+04  0.26396159605E+04  0.00000000000E+00 0. -1.
         22    1    3    3    0    0 -0.66800619282E+02  0.45877566386E+02  0.16409362560E+03  0.18301309187E+03  0.00000000000E+00 0. -1.
         22    1    3    3    0    0  0.74898774933E+01  0.55449407891E+02  0.49015542897E+03  0.49333870682E+03  0.00000000000E+00 0. -1.
</event>
<event>
 7    1  0.6510186E-006  0.5956975E+02  0.7818608E-02  0.1414148E+00
          2   -1    0    0  502    0  0.00000000000E+00  0.00000000000E+00  0.37187910650E+04  0.37187910650E+04  0.00000000000E+00 0. -1.
          1   -1    0    0  501    0 -0.00000000000E+00 -0.00000000000E+00 -0.13869249976E+02  0.13869249976E+02  0.00000000000E+00 0. -1.
         25    2    1    2    0    0 -0.33825002673E+02  0.35540242843E+02  0.67474955606E+03  0.68798227747E+03  0.12500164415E+03 0.  0.
          2    1    1    2  501    0 -0.26338551095E+02 -0.46186852916E+02  0.94974040617E+02  0.10884398489E+03  0.00000000000E+00 0. -1.
          1    1    1    2  502    0  0.60163553767E+02  0.10646610073E+02  0.29351982184E+04  0.29358340526E+04  0.00000000000E+00 0. -1.
         22    1    3    3    0    0  0.28730259271E+02 -0.27948631420E+02  0.30600775916E+03  0.30862161698E+03  0.00000000000E+00 0.  1.
         22    1    3    3    0    0 -0.62555261944E+02  0.63488874263E+02  0.36874179690E+03  0.37936066049E+03  0.00000000000E+00 0.  1.
</event>
<event>
 7    1  0.6510186E-006  0.5174390E+02  0.7818608E-02  0.1447422E+00
          2   -1    0    0  502    0  0.00000000000E+00  0.00000000000E+00  0.79505175514E+02  0.79505175514E+02  0.00000000000E+00 0. -1.
          1   -1    0    0  501    0 -0.00000000000E+00 -0.00000000000E+00 -0.16441780673E+04  0.16441780673E+04  0.00000000000E+00 0. -1.
         25    2    1    2    0    0 -0.13087692691E+02 -0.90649589460E+01 -0.10348720778E+03  0.16305908858E+03  0.12500081205E+03 0.  0.
          2    1    1    2  501    0 -0.76900061399E+01  0.51864228444E+02 -0.14989593094E+04  0.14998760101E+04  0.00000000000E+00 0. -1.
          1    1    1    2  502    0  0.20777698831E+02 -0.42799269498E+02  0.37773625418E+02  0.60748144132E+02  0.00000000000E+00 0. -1.
         22    1    3    3    0    0  0.67528878070E+01  0.31606902543E+02 -0.11238445356E+03  0.11693957065E+03  0.00000000000E+00 0. -1.
         22    1    3    3    0    0 -0.19840580498E+02 -0.40671861489E+02  0.88972457768E+01  0.46119517928E+02  0.00000000000E+00 0. -1.
</event>
<event>
 7    1  0.6510186E-006  0.9607527E+02  0.7818608E-02  0.1321159E+00
          2   -1    0    0  502    0  0.00000000000E+00  0.00000000000E+00  0.24087975075E+02  0.24087975075E+02  0.00000000000E+00 0. -1.
          1   -1    0    0  501    0 -0.00000000000E+00 -0.00000000000E+00 -0.14546890804E+04  0.14546890804E+04  0.00000000000E+00 0. -1.
         25    2    1    2    0    0 -0.81164815864E+02  0.60667613804E+02 -0.50691230146E+03  0.53183837438E+03  0.12499475347E+03 0.  0.
          2    1    1    2  501    0 -0.20688081506E+02 -0.68380363684E+02 -0.66480358480E+03  0.66863119671E+03  0.00000000000E+00 0. -1.
          1    1    1    2  502    0  0.10185289737E+03  0.77127498798E+01 -0.25888521911E+03  0.27830748443E+03  0.00000000000E+00 0. -1.
         22    1    3    3    0    0 -0.87459880713E+02  0.69750326829E+02 -0.24101403984E+03  0.26571056853E+03  0.00000000000E+00 0. -1.
         22    1    3    3    0    0  0.62950648486E+01 -0.90827130247E+01 -0.26589826162E+03  0.26612780585E+03  0.00000000000E+00 0. -1.
</event>
<event>
 7    1  0.6510186E-006  0.1814623E+03  0.7818608E-02  0.1250280E+00
          2   -1    0    0  502    0  0.00000000000E+00  0.00000000000E+00  0.20068595531E+04  0.20068595531E+04  0.00000000000E+00 0. -1.
          1   -1    0    0  501    0 -0.00000000000E+00 -0.00000000000E+00 -0.21024965091E+03  0.21024965091E+03  0.00000000000E+00 0. -1.
         25    2    1    2    0    0 -0.64645854194E+02  0.12279645602E+03  0.21231530974E+03  0.28277342791E+03  0.12499985882E+03 0.  0.
          2    1    1    2  501    0 -0.73624588472E+02  0.55318989314E+01 -0.16192126338E+03  0.17795976362E+03  0.00000000000E+00 0. -1.
          1    1    1    2  502    0  0.13827044267E+03 -0.12832835496E+03  0.17462158558E+04  0.17563760124E+04  0.00000000000E+00 0. -1.
         22    1    3    3    0    0 -0.65347035758E+02  0.14521982547E+01  0.70914508969E+02  0.96442788971E+02  0.00000000000E+00 0. -1.
         22    1    3    3    0    0  0.70118156405E+00  0.12134425777E+03  0.14140080077E+03  0.18633063894E+03  0.00000000000E+00 0. -1.
</event>
<event>
 7    1  0.6510186E-006  0.1079093E+03  0.7818608E-02  0.1412268E+00
          2   -1    0    0  502    0  0.00000000000E+00  0.00000000000E+00  0.46577748627E+03  0.46577748627E+03  0.00000000000E+00 0. -1.
          1   -1    0    0  501    0 -0.00000000000E+00 -0.00000000000E+00 -0.18711032865E+03  0.18711032865E+03  0.00000000000E+00 0. -1.
         25    2    1    2    0    0 -0.89783054247E+02  0.45240886544E+02  0.57843660465E+02  0.17052599728E+03  0.12500196818E+03 0.  0.
          2    1    1    2  501    0  0.87694219028E+01  0.28462648589E+02 -0.12038079713E+03  0.12401032797E+03  0.00000000000E+00 0. -1.
          1    1    1    2  502    0  0.81013632344E+02 -0.73703535133E+02  0.34120429428E+03  0.35835148968E+03  0.00000000000E+00 0. -1.
         22    1    3    3    0    0  0.12782919282E+02  0.52393350976E+02  0.37582351639E+02  0.65733548562E+02  0.00000000000E+00 0.  1.
         22    1    3    3    0    0 -0.10256597353E+03 -0.71524644318E+01  0.20261308826E+02  0.10479244872E+03  0.00000000000E+00 0.  1.
</event>
<event>
 7    1  0.6510186E-006  0.9303145E+02  0.7818608E-02  0.1385538E+00
          2   -1    0    0  502    0  0.00000000000E+00  0.00000000000E+00  0.64726827828E+03  0.64726827828E+03  0.00000000000E+00 0. -1.
          1   -1    0    0  501    0 -0.00000000000E+00 -0.00000000000E+00 -0.14174504087E+04  0.14174504087E+04  0.00000000000E+00 0. -1.
         25    2    1    2    0    0  0.11961797822E+03 -0.55943670550E+02  0.75411451946E+02  0.19685100886E+03  0.12500111046E+03 0.  0.
          2    1    1    2  501    0 -0.34549308448E+02  0.25099144056E+02 -0.13523861321E+04  0.13530601879E+04  0.00000000000E+00 0. -1.
          1    1    1    2  502    0 -0.85068669771E+02  0.30844526494E+02  0.50679254980E+03  0.51480749016E+03  0.00000000000E+00 0. -1.
         22    1    3    3    0    0 -0.53966654502E+01 -0.51527771452E+02  0.20856266448E+01  0.51851567645E+02  0.00000000000E+00 0. -1.
         22    1    3    3    0    0  0.12501464367E+03 -0.44158990985E+01  0.73325825301E+02  0.14499944122E+03  0.00000000000E+00 0. -1.
</event>
<event>
 7    1  0.6510186E-006  0.6001082E+02  0.7818608E-02  0.1415203E+00
          2   -1    0    0  502    0  0.00000000000E+00  0.00000000000E+00  0.11774390880E+03  0.11774390880E+03  0.00000000000E+00 0. -1.
          1   -1    0    0  501    0 -0.00000000000E+00 -0.00000000000E+00 -0.13689166644E+04  0.13689166644E+04  0.00000000000E+00 0. -1.
         25    2    1    2    0    0 -0.81462283479E+02 -0.72194008179E+02 -0.36679003802E+03  0.40250159217E+03  0.12499808503E+03 0.  0.
          2    1    1    2  501    0  0.30527719442E+02  0.42525677301E+02 -0.97481090835E+03  0.97621548949E+03  0.00000000000E+00 0. -1.
          1    1    1    2  502    0  0.50934564038E+02  0.29668330878E+02  0.90428190797E+02  0.10794349152E+03  0.00000000000E+00 0. -1.
         22    1    3    3    0    0 -0.85112560941E+02  0.39209296003E+01 -0.14739067140E+03  0.17024550430E+03  0.00000000000E+00 0. -1.
         22    1    3    3    0    0  0.36502774612E+01 -0.76114937779E+02 -0.21939936662E+03  0.23225608787E+03  0.00000000000E+00 0. -1.
</event>
<event>
 7    1  0.6510186E-006  0.8705126E+02  0.7818608E-02  0.1338727E+00
          2   -1    0    0  502    0  0.00000000000E+00  0.00000000000E+00  0.47516009866E+03  0.47516009866E+03  0.00000000000E+00 0. -1.
          1   -1    0    0  501    0 -0.00000000000E+00 -0.00000000000E+00 -0.11862508682E+03  0.11862508682E+03  0.00000000000E+00 0. -1.
         25    2    1    2    0    0  0.50988010911E+02  0.58320755987E+02  0.13706410100E+03  0.20103308775E+03  0.12500658683E+03 0.  0.
          2    1    1    2  501    0  0.79259203101E+01 -0.91379869439E+02 -0.57104054907E+02  0.10804616531E+03  0.00000000000E+00 0. -1.
          1    1    1    2  502    0 -0.58913931221E+02  0.33059113452E+02  0.27657496575E+03  0.28470593242E+03  0.00000000000E+00 0. -1.
         22    1    3    3    0    0 -0.60707712676E+01 -0.35923849216E+02  0.41143352182E+02  0.54955915378E+02  0.00000000000E+00 0. -1.
         22    1    3    3    0    0  0.57058782179E+02  0.94244605202E+02  0.95920748820E+02  0.14607717237E+03  0.00000000000E+00 0. -1.
</event>
<event>
 7    1  0.6510186E-006  0.3453427E+03  0.7818608E-02  0.1142094E+00
          2   -1    0    0  502    0  0.00000000000E+00  0.00000000000E+00  0.27481566466E+04  0.27481566466E+04  0.00000000000E+00 0. -1.
          1   -1    0    0  501    0 -0.00000000000E+00 -0.00000000000E+00 -0.51326157804E+03  0.51326157804E+03  0.00000000000E+00 0. -1.
         25    2    1    2    0    0  0.24406831663E+03 -0.64413399787E+01  0.34756559581E+03  0.44276170931E+03  0.12500101517E+03 0.  0.
          2    1    1    2  501    0 -0.35899502939E+03  0.60230663868E+02 -0.39249086320E+03  0.53530761408E+03  0.00000000000E+00 0. -1.
          1    1    1    2  502    0  0.11492671275E+03 -0.53789323889E+02  0.22798203360E+04  0.22833489013E+04  0.00000000000E+00 0. -1.
         22    1    3    3    0    0  0.20581319743E+03 -0.26670801313E+02  0.19716558701E+03  0.28625979910E+03  0.00000000000E+00 0.  1.
         22    1    3    3    0    0  0.38255119201E+02  0.20229461334E+02  0.15040000880E+03  0.15650191021E+03  0.00000000000E+00 0.  1.
</event>
<event>
 7    1  0.6510186E-006  0.1020419E+03  0.7818608E-02  0.1309784E+00
          2   -1    0    0  502    0  0.00000000000E+00  0.00000000000E+00  0.13753574789E+04  0.13753574789E+04  0.00000000000E+00 0. -1.
          1   -1    0    0  501    0 -0.00000000000E+00 -0.00000000000E+00 -0.17887525129E+04  0.17887525129E+04  0.00000000000E+00 0. -1.
         25    2    1    2    0    0 -0.99987217937E+02 -0.10881699416E+02  0.10067751829E+03  0.18941174232E+03  0.12499996122E+03 0.  0.
          2    1    1    2  501    0  0.32223454506E+02 -0.67184746212E+02 -0.17414158261E+04  0.17430092428E+04  0.00000000000E+00 0. -1.
          1    1    1    2  502    0  0.67763763431E+02  0.78066445628E+02  0.12273432738E+04  0.12316890067E+04  0.00000000000E+00 0. -1.
         22    1    3    3    0    0 -0.54679825709E+02 -0.66037084861E+02  0.35647987404E+02  0.92852350118E+02  0.00000000000E+00 0.  1.
         22    1    3    3    0    0 -0.45307392228E+02  0.55155385445E+02  0.65029530890E+02  0.96559392199E+02  0.00000000000E+00 0.  1.
</event>
<event>
 7    1  0.6510186E-006  0.6379827E+02  0.7818608E-02  0.1532399E+00
          2   -1    0    0  502    0  0.00000000000E+00  0.00000000000E+00  0.37676897306E+03  0.37676897306E+03  0.00000000000E+00 0. -1.
          1   -1    0    0  501    0 -0.00000000000E+00 -0.00000000000E+00 -0.16067653456E+04  0.16067653456E+04  0.00000000000E+00 0. -1.
         25    2    1    2    0    0 -0.68540282288E+01  0.46546813838E+02  0.77923344230E+02  0.15465695731E+03  0.12503256891E+03 0.  0.
          2    1    1    2  501    0 -0.59361787896E+01 -0.63623177886E+02 -0.15673095364E+04  0.15686115931E+04  0.00000000000E+00 0. -1.
          1    1    1    2  502    0  0.12790207018E+02  0.17076364048E+02  0.25938981964E+03  0.26026576828E+03  0.00000000000E+00 0. -1.
         22    1    3    3    0    0 -0.15247086078E+02  0.67771565080E+02  0.10075035106E+03  0.12237684383E+03  0.00000000000E+00 0.  1.
         22    1    3    3    0    0  0.83930578497E+01 -0.21224751241E+02 -0.22827006832E+02  0.32280113480E+02  0.00000000000E+00 0.  1.
</event>
<event>
 7    1  0.6510186E-006  0.1358764E+03  0.7818608E-02  0.1238766E+00
          2   -1    0    0  502    0  0.00000000000E+00  0.00000000000E+00  0.91363759571E+03  0.91363759571E+03  0.00000000000E+00 0. -1.
          1   -1    0    0  501    0 -0.00000000000E+00 -0.00000000000E+00 -0.76439719187E+03  0.76439719187E+03  0.00000000000E+00 0. -1.
         25    2    1    2    0    0  0.19132602916E+03  0.78518222386E+02 -0.26519403889E+03  0.35878174547E+03  0.12500280771E+03 0.  0.
          2    1    1    2  501    0 -0.81898722214E+02 -0.95495878495E+02 -0.44002090881E+03  0.45765190233E+03  0.00000000000E+00 0. -1.
          1    1    1    2  502    0 -0.10942730695E+03  0.16977656109E+02  0.85445535154E+03  0.86160113979E+03  0.00000000000E+00 0. -1.
         22    1    3    3    0    0 -0.19542777464E+01 -0.20793806059E+02 -0.87315093496E+01  0.22637155905E+02  0.00000000000E+00 0. -1.
         22    1    3    3    0    0  0.19328030691E+03  0.99312028445E+02 -0.25646252954E+03  0.33614458956E+03  0.00000000000E+00 0. -1.
</event>
<event>
 7    1  0.6510186E-006  0.5698449E+02  0.7818608E-02  0.1429128E+00
          2   -1    0    0  502    0  0.00000000000E+00  0.00000000000E+00  0.14256841957E+04  0.14256841957E+04  0.00000000000E+00 0. -1.
          1   -1    0    0  501    0 -0.00000000000E+00 -0.00000000000E+00 -0.14867602259E+03  0.14867602259E+03  0.00000000000E+00 0. -1.
         25    2    1    2    0    0 -0.19285488818E+02  0.74132757639E+02  0.24127072023E+03  0.28231794550E+03  0.12499706429E+03 0.  0.
          2    1    1    2  501    0 -0.27253936338E+02 -0.41377154607E+02 -0.12263865790E+03  0.13226899251E+03  0.00000000000E+00 0. -1.
          1    1    1    2  502    0  0.46539425156E+02 -0.32755603032E+02  0.11583761108E+04  0.11597732803E+04  0.00000000000E+00 0. -1.
         22    1    3    3    0    0 -0.63839865609E+02  0.55840824845E+02  0.90459018764E+02  0.12400225900E+03  0.00000000000E+00 0. -1.
         22    1    3    3    0    0  0.44554376791E+02  0.18291932794E+02  0.15081170146E+03  0.15831568651E+03  0.00000000000E+00 0. -1.
</event>
<event>
 7    1  0.6510186E-006  0.1891885E+03  0.7818608E-02  0.1354928E+00
          2   -1    0    0  502    0  0.00000000000E+00  0.00000000000E+00  0.38868828318E+02  0.38868828318E+02  0.00000000000E+00 0. -1.
          1   -1    0    0  501    0 -0.00000000000E+00 -0.00000000000E+00 -0.24356261629E+04  0.24356261629E+04  0.00000000000E+00 0. -1.
         25    2    1    2    0    0  0.98305930482E+02  0.17113868181E+03 -0.16307300096E+04  0.16473790687E+04  0.12499970982E+03 0.  0.
          2    1    1    2  501    0 -0.10594499986E+03 -0.14518629390E+03 -0.77729948936E+03  0.79780818440E+03  0.00000000000E+00 0. -1.
          1    1    1    2  502    0  0.76390693822E+01 -0.25952387907E+02  0.11272164426E+02  0.29307738056E+02  0.00000000000E+00 0. -1.
         22    1    3    3    0    0  0.98477075826E+02  0.11411634978E+03 -0.14512892767E+04  0.14590958983E+04  0.00000000000E+00 0. -1.
         22    1    3    3    0    0 -0.17114534384E+00  0.57022332033E+02 -0.17944073290E+03  0.18828317042E+03  0.00000000000E+00 0. -1.
</event>
<event>
 7    1  0.6510186E-006  0.3960829E+02  0.7818608E-02  0.1590590E+00
          2   -1    0    0  502    0  0.00000000000E+00  0.00000000000E+00  0.21223935251E+04  0.21223935251E+04  0.00000000000E+00 0. -1.
          1   -1    0    0  501    0 -0.00000000000E+00 -0.00000000000E+00 -0.10519345419E+03  0.10519345419E+03  0.00000000000E+00 0. -1.
         25    2    1    2    0    0 -0.13963009236E+02  0.27633908642E+02  0.47944633769E+03  0.49643581719E+03  0.12498452437E+03 0.  0.
          2    1    1    2  501    0  0.20623519904E+02  0.11836906500E+02 -0.94987828206E+02  0.97918994255E+02  0.00000000000E+00 0. -1.
          1    1    1    2  502    0 -0.66605106680E+01 -0.39470815142E+02  0.16327415614E+04  0.16332321678E+04  0.00000000000E+00 0. -1.
         22    1    3    3    0    0 -0.56989175770E+02 -0.19348077094E+02  0.30101707886E+03  0.30697458528E+03  0.00000000000E+00 0. -1.
         22    1    3    3    0    0  0.43026166534E+02  0.46981985736E+02  0.17842925883E+03  0.18946123191E+03  0.00000000000E+00 0. -1.
</event>
<event>
 7    1  0.6510186E-006  0.3800677E+02  0.7818608E-02  0.1564137E+00
          2   -1    0    0  502    0  0.00000000000E+00  0.00000000000E+00  0.82854106938E+03  0.82854106938E+03  0.00000000000E+00 0. -1.
          1   -1    0    0  501    0 -0.00000000000E+00 -0.00000000000E+00 -0.43722412262E+03  0.43722412262E+03  0.00000000000E+00 0. -1.
         25    2    1    2    0    0 -0.49816785217E+02 -0.35967401075E+02 -0.14115038329E+03  0.19830432443E+03  0.12500323337E+03 0.  0.
          2    1    1    2  501    0  0.13180412374E+02  0.26049799945E+02 -0.26624820673E+03  0.26784402725E+03  0.00000000000E+00 0. -1.
          1    1    1    2  502    0  0.36636372843E+02  0.99176011300E+01  0.79871553678E+03  0.79961684032E+03  0.00000000000E+00 0. -1.
         22    1    3    3    0    0 -0.30995594132E+02  0.45348531622E+02 -0.67182143528E+02  0.86779355753E+02  0.00000000000E+00 0. -1.
         22    1    3    3    0    0 -0.18821191084E+02 -0.81315932697E+02 -0.73968239764E+02  0.11152496868E+03  0.00000000000E+00 0. -1.
</event>
<event>
 7    1  0.6510186E-006  0.1627517E+03  0.7818608E-02  0.1207093E+00
          2   -1    0    0  502    0  0.00000000000E+00  0.00000000000E+00  0.89983603342E+03  0.89983603342E+03  0.00000000000E+00 0. -1.
          1   -1    0    0  501    0 -0.00000000000E+00 -0.00000000000E+00 -0.54656941839E+03  0.54656941839E+03  0.00000000000E+00 0. -1.
         25    2    1    2    0    0  0.49058310591E+01 -0.10147396429E+03 -0.20954298028E+03  0.26429905696E+03  0.12499879327E+03 0.  0.
          2    1    1    2  501    0  0.12868643542E+03  0.28220426206E+01 -0.28788664348E+03  0.31535199711E+03  0.00000000000E+00 0. -1.
          1    1    1    2  502    0 -0.13359226648E+03  0.98651921666E+02  0.85069623879E+03  0.86675439774E+03  0.00000000000E+00 0. -1.
         22    1    3    3    0    0  0.19750905900E+02  0.14087652612E+02 -0.10498361266E+03  0.10775026296E+03  0.00000000000E+00 0. -1.
         22    1    3    3    0    0 -0.14845074841E+02 -0.11556161690E+03 -0.10455936762E+03  0.15654879400E+03  0.00000000000E+00 0. -1.
</event>
<event>
 7    1  0.6510186E-006  0.8501690E+02  0.7818608E-02  0.1329961E+00
          2   -1    0    0  502    0  0.00000000000E+00  0.00000000000E+00  0.43217585187E+02  0.43217585187E+02  0.00000000000E+00 0. -1.
          1   -1    0    0  501    0 -0.00000000000E+00 -0.00000000000E+00 -0.18111638741E+04  0.18111638741E+04  0.00000000000E+00 0. -1.
         25    2    1    2    0    0  0.58930699172E+02  0.12041834051E+03 -0.34314798713E+03  0.38903562786E+03  0.12499909855E+03 0.  0.
          2    1    1    2  501    0  0.57174428588E+01 -0.83034718037E+02 -0.13704723835E+04  0.13729974535E+04  0.00000000000E+00 0. -1.
          1    1    1    2  502    0 -0.64648142030E+02 -0.37383622471E+02 -0.54325918288E+02  0.92348377868E+02  0.00000000000E+00 0. -1.
         22    1    3    3    0    0  0.77858107820E+02  0.12683185762E+03 -0.22871915160E+03  0.27287479798E+03  0.00000000000E+00 0. -1.
         22    1    3    3    0    0 -0.18927408649E+02 -0.64135171092E+01 -0.11442883553E+03  0.11616082989E+03  0.00000000000E+00 0. -1.
</event>
<event>
 7    1  0.6510186E-006  0.7857995E+02  0.7818608E-02  0.1432848E+00
          2   -1    0    0  502    0  0.00000000000E+00  0.00000000000E+00  0.68173548959E+03  0.68173548959E+03  0.00000000000E+00 0. -1.
          1   -1    0    0  501    0 -0.00000000000E+00 -0.00000000000E+00 -0.19727808060E+03  0.19727808060E+03  0.00000000000E+00 0. -1.
         25    2    1    2    0    0 -0.27609964444E+02  0.70581647236E+02  0.88579582309E+02  0.17092373039E+03  0.12499800056E+03 0.  0.
          2    1    1    2  501    0  0.58277685479E+02 -0.53855454327E+02 -0.14542249672E+03  0.16566351783E+03  0.00000000000E+00 0. -1.
          1    1    1    2  502    0 -0.30667721034E+02 -0.16726192909E+02  0.54130032341E+03  0.54242632197E+03  0.00000000000E+00 0. -1.
         22    1    3    3    0    0 -0.68371755980E+02  0.77577563168E+02  0.73649305285E+02  0.12695351705E+03  0.00000000000E+00 0. -1.
         22    1    3    3    0    0  0.40761791536E+02 -0.69959159321E+01  0.14930277024E+02  0.43970213337E+02  0.00000000000E+00 0. -1.
</event>
<event>
 7    1  0.6510186E-006  0.6055300E+02  0.7818608E-02  0.1533037E+00
          2   -1    0    0  502    0  0.00000000000E+00  0.00000000000E+00  0.13205895578E+04  0.13205895578E+04  0.00000000000E+00 0. -1.
          1   -1    0    0  501    0 -0.00000000000E+00 -0.00000000000E+00 -0.84842314105E+03  0.84842314105E+03  0.00000000000E+00 0. -1.
         25    2    1    2    0    0  0.39141056181E+01  0.40122070775E+02  0.11342302583E+03  0.17353293236E+03  0.12499518006E+03 0.  0.
          2    1    1    2  501    0  0.12069551976E+02  0.18851972399E+02 -0.81742194726E+03  0.81772838450E+03  0.00000000000E+00 0. -1.
          1    1    1    2  502    0 -0.15983657594E+02 -0.58974043174E+02  0.11761653382E+04  0.11777513820E+04  0.00000000000E+00 0. -1.
         22    1    3    3    0    0  0.59473195035E+02  0.20654952968E+02  0.25954269512E+02  0.68097812855E+02  0.00000000000E+00 0. -1.
         22    1    3    3    0    0 -0.55559089417E+02  0.19467117807E+02  0.87468756323E+02  0.10543511951E+03  0.00000000000E+00 0. -1.
</event>
<event>
 7    1  0.6510186E-006  0.1005246E+03  0.7818608E-02  0.1467092E+00
          2   -1    0    0  502    0  0.00000000000E+00  0.00000000000E+00  0.13610440537E+04  0.13610440537E+04  0.00000000000E+00 0. -1.
          1   -1    0    0  501    0 -0.00000000000E+00 -0.00000000000E+00 -0.38684042896E+02  0.38684042896E+02  0.00000000000E+00 0. -1.
         25    2    1    2    0    0  0.78374360565E+02 -0.26899085663E+02  0.25811362984E+03  0.29851746210E+03  0.12499571218E+03 0.  0.
          2    1    1    2  501    0  0.21156985408E+02  0.15925352339E+01 -0.90109021052E+01  0.23051042423E+02  0.00000000000E+00 0. -1.
          1    1    1    2  502    0 -0.99531345973E+02  0.25306550429E+02  0.10732572831E+04  0.10781595921E+04  0.00000000000E+00 0. -1.
         22    1    3    3    0    0  0.19836707616E+02 -0.16823069355E+02 -0.69156596481E+01  0.26913509246E+02  0.00000000000E+00 0.  1.
         22    1    3    3    0    0  0.58537652949E+02 -0.10076016307E+02  0.26502928949E+03  0.27160395285E+03  0.00000000000E+00 0.  1.
</event>
<event>
 7    1  0.6510186E-006  0.2025530E+03  0.7818608E-02  0.1238319E+00
          2   -1    0    0  502    0  0.00000000000E+00  0.00000000000E+00  0.75057061807E+03  0.75057061807E+03  0.00000000000E+00 0. -1.
          1   -1    0    0  501    0 -0.00000000000E+00 -0.00000000000E+00 -0.20351895935E+03  0.20351895935E+03  0.00000000000E+00 0. -1.
         25    2    1    2    0    0 -0.12386567554E+03  0.13107437670E+03 -0.11716589414E+02  0.21973932271E+03  0.12499957469E+03 0.  0.
          2    1    1    2  501    0  0.19803153472E+03 -0.13932078525E+03  0.87877617305E+02  0.25758347302E+03  0.00000000000E+00 0. -1.
          1    1    1    2  502    0 -0.74165859186E+02  0.82464085497E+01  0.47089063083E+03  0.47676678169E+03  0.00000000000E+00 0. -1.
         22    1    3    3    0    0  0.24500428616E+02  0.29427117592E+02 -0.11187970164E+02  0.39892316660E+02  0.00000000000E+00 0. -1.
         22    1    3    3    0    0 -0.14836610415E+03  0.10164725911E+03 -0.52861924957E+00  0.17984700605E+03  0.00000000000E+00 0. -1.
</event>
<event>
 7    1  0.6510186E-006  0.3570514E+02  0.7818608E-02  0.1556205E+00
          2   -1    0    0  502    0  0.00000000000E+00  0.00000000000E+00  0.66826364280E+03  0.66826364280E+03  0.00000000000E+00 0. -1.
          1   -1    0    0  501    0 -0.00000000000E+00 -0.00000000000E+00 -0.19814922869E+03  0.19814922869E+03  0.00000000000E+00 0. -1.
         25    2    1    2    0    0  0.30888677320E+02 -0.54857512796E+02 -0.58796739857E+02  0.15180817771E+03  0.12500083642E+03 0.  0.
          2    1    1    2  501    0 -0.61444228474E+01  0.33512705506E+02 -0.89274885866E+02  0.95555536778E+02  0.00000000000E+00 0. -1.
          1    1    1    2  502    0 -0.24744254472E+02  0.21344807291E+02  0.61818603984E+03  0.61904915700E+03  0.00000000000E+00 0. -1.
         22    1    3    3    0    0  0.52607688791E+01 -0.92135671558E+02 -0.25829096719E+02  0.95832144398E+02  0.00000000000E+00 0. -1.
         22    1    3    3    0    0  0.25627908441E+02  0.37278158762E+02 -0.32967643139E+02  0.55976033316E+02  0.00000000000E+00 0. -1.
</event>
<event>
 7    1  0.6510186E-006  0.1221325E+03  0.7818608E-02  0.1280649E+00
          2   -1    0    0  502    0  0.00000000000E+00  0.00000000000E+00  0.15561848835E+03  0.15561848835E+03  0.00000000000E+00 0. -1.
          1   -1    0    0  501    0 -0.00000000000E+00 -0.00000000000E+00 -0.10093572388E+04  0.10093572388E+04  0.00000000000E+00 0. -1.
         25    2    1    2    0    0  0.27014651862E+02 -0.12250161704E+03 -0.59469031199E+03  0.62050017586E+03  0.12500985352E+03 0.  0.
          2    1    1    2  501    0 -0.99805345612E+02  0.85614563909E+02 -0.37800282599E+03  0.40022131006E+03  0.00000000000E+00 0. -1.
          1    1    1    2  502    0  0.72790693750E+02  0.36887053130E+02  0.11895438756E+03  0.14425424120E+03  0.00000000000E+00 0. -1.
         22    1    3    3    0    0 -0.61359213413E+01 -0.54581975651E+02 -0.48009227972E+03  0.48322400462E+03  0.00000000000E+00 0. -1.
         22    1    3    3    0    0  0.33150573203E+02 -0.67919641389E+02 -0.11459803228E+03  0.13727617124E+03  0.00000000000E+00 0. -1.
</event>
<event>
 7    1  0.6510186E-006  0.1470887E+03  0.7818608E-02  0.1379042E+00
          2   -1    0    0  502    0  0.00000000000E+00  0.00000000000E+00  0.84424615563E+03  0.84424615563E+03  0.00000000000E+00 0. -1.
          1   -1    0    0  501    0 -0.00000000000E+00 -0.00000000000E+00 -0.24745706602E+03  0.24745706602E+03  0.00000000000E+00 0. -1.
         25    2    1    2    0    0  0.13075293462E+03 -0.10747258698E+03  0.22488997715E+03  0.30797210443E+03  0.12499851366E+03 0.  0.
          2    1    1    2  501    0 -0.15320248535E+02  0.24001076982E+02 -0.19609238417E+03  0.19814889564E+03  0.00000000000E+00 0. -1.
          1    1    1    2  502    0 -0.11543268609E+03  0.83471509995E+02  0.56799149663E+03  0.58558222159E+03  0.00000000000E+00 0. -1.
         22    1    3    3    0    0  0.76765470733E+00 -0.40253440328E+02  0.12361997543E+03  0.13001087292E+03  0.00000000000E+00 0. -1.
         22    1    3    3    0    0  0.12998527992E+03 -0.67219146649E+02  0.10127000173E+03  0.17796123151E+03  0.00000000000E+00 0. -1.
</event>
<event>
 7    1  0.6510186E-006  0.5629649E+02  0.7818608E-02  0.1483298E+00
          2   -1    0    0  502    0  0.00000000000E+00  0.00000000000E+00  0.71737443439E+03  0.71737443439E+03  0.00000000000E+00 0. -1.
          1   -1    0    0  501    0 -0.00000000000E+00 -0.00000000000E+00 -0.87349739423E+02  0.87349739423E+02  0.00000000000E+00 0. -1.
         25    2    1    2    0    0 -0.84591158031E+02 -0.15634024500E+02  0.11254124770E+03  0.18891620001E+03  0.12499484570E+03 0.  0.
          2    1    1    2  501    0  0.50841416355E+02  0.16533702501E+02 -0.33957141379E+02  0.63334827591E+02  0.00000000000E+00 0. -1.
          1    1    1    2  502    0  0.33749741677E+02 -0.89967800092E+00  0.55144058864E+03  0.55247314621E+03  0.00000000000E+00 0. -1.
         22    1    3    3    0    0 -0.98372865643E+02 -0.29664718099E+02  0.12783019003E+03  0.16400540747E+03  0.00000000000E+00 0.  1.
         22    1    3    3    0    0  0.13781707612E+02  0.14030693600E+02 -0.15288942329E+02  0.24910792543E+02  0.00000000000E+00 0.  1.
</event>
<event>
 7    1  0.6510186E-006  0.2200746E+03  0.7818608E-02  0.1356034E+00
          2   -1    0    0  502    0  0.00000000000E+00  0.00000000000E+00  0.41552573902E+03  0.41552573902E+03  0.00000000000E+00 0. -1.
          1   -1    0    0  501    0 -0.00000000000E+00 -0.00000000000E+00 -0.11154805057E+04  0.11154805057E+04  0.00000000000E+00 0. -1.
         25    2    1    2    0    0  0.17436552001E+03 -0.12052286370E+03 -0.39930185632E+03  0.46903709319E+03  0.12499890832E+03 0.  0.
          2    1    1    2  501    0  0.18686447138E+02  0.13478014526E+02 -0.64908719864E+03  0.64949598276E+03  0.00000000000E+00 0. -1.
          1    1    1    2  502    0 -0.19305196715E+03  0.10704484917E+03  0.34843428825E+03  0.41247316881E+03  0.00000000000E+00 0. -1.
         22    1    3    3    0    0  0.58934708503E+02 -0.89738890262E+02 -0.99776721123E+02  0.14656657999E+03  0.00000000000E+00 0.  1.
         22    1    3    3    0    0  0.11543081151E+03 -0.30783973438E+02 -0.29952513520E+03  0.32247051320E+03  0.00000000000E+00 0.  1.
</event>
<event>
 7    1  0.6510186E-006  0.1005608E+03  0.7818608E-02  0.1341500E+00
          2   -1    0    0  502    0  0.00000000000E+00  0.00000000000E+00  0.12333763662E+03  0.12333763662E+03  0.00000000000E+00 0. -1.
          1   -1    0    0  501    0 -0.00000000000E+00 -0.00000000000E+00 -0.19992011669E+04  0.19992011669E+04  0.00000000000E+00 0. -1.
         25    2    1    2    0    0  0.12614462779E+01 -0.58605257725E+02 -0.49512461954E+03  0.51401285683E+03  0.12499864252E+03 0.  0.
          2    1    1    2  501    0  0.31027565439E+02  0.10568966416E+03 -0.14853078520E+04  0.14893865952E+04  0.00000000000E+00 0. -1.
          1    1    1    2  502    0 -0.32289011717E+02 -0.47084406436E+02  0.10456894121E+03  0.11913935149E+03  0.00000000000E+00 0. -1.
         22    1    3    3    0    0 -0.26770196050E+02 -0.81479023833E+02 -0.43855961442E+03  0.44686688188E+03  0.00000000000E+00 0.  1.
         22    1    3    3    0    0  0.28031642328E+02  0.22873766107E+02 -0.56565005115E+02  0.67145974944E+02  0.00000000000E+00 0.  1.
</event>
<event>
 7    1  0.6510186E-006  0.7016712E+02  0.7818608E-02  0.1421322E+00
          2   -1    0    0  502    0  0.00000000000E+00  0.00000000000E+00  0.20002206236E+03  0.20002206236E+03  0.00000000000E+00 0. -1.
          1   -1    0    0  501    0 -0.00000000000E+00 -0.00000000000E+00 -0.15404217325E+04  0.15404217325E+04  0.00000000000E+00 0. -1.
         25    2    1    2    0    0  0.64174834889E+02  0.73845202835E+02 -0.38700800898E+03  0.41829551517E+03  0.12499766229E+03 0.  0.
          2    1    1    2  501    0 -0.42022958341E+02 -0.76201609612E+01 -0.11307403181E+04  0.11315465800E+04  0.00000000000E+00 0. -1.
          1    1    1    2  502    0 -0.22151876549E+02 -0.66225041873E+02  0.17734865691E+03  0.19060169966E+03  0.00000000000E+00 0. -1.
         22    1    3    3    0    0  0.86590143890E+01 -0.13376317861E+02 -0.22846061918E+03  0.22901563031E+03  0.00000000000E+00 0.  1.
         22    1    3    3    0    0  0.55515820500E+02  0.87221520696E+02 -0.15854738980E+03  0.18927988485E+03  0.00000000000E+00 0.  1.
</event>
<event>
 7    1  0.6510186E-006  0.1658329E+03  0.7818608E-02  0.1206078E+00
          2   -1    0    0  502    0  0.00000000000E+00  0.00000000000E+00  0.28641584420E+03  0.28641584420E+03  0.00000000000E+00 0. -1.
          1   -1    0    0  501    0 -0.00000000000E+00 -0.00000000000E+00 -0.34448764480E+03  0.34448764480E+03  0.00000000000E+00 0. -1.
         25    2    1    2    0    0  0.59779246335E+02 -0.39708246968E+02 -0.11999152559E+03  0.18754395158E+03  0.12499785755E+03 0.  0.
          2    1    1    2  501    0  0.51162086555E+02 -0.11701380877E+03 -0.12261722760E+03  0.17704455667E+03  0.00000000000E+00 0. -1.
          1    1    1    2  502    0 -0.11094133289E+03  0.15672205574E+03  0.18453695258E+03  0.26631498074E+03  0.00000000000E+00 0. -1.
         22    1    3    3    0    0  0.34735393749E+02  0.36390406164E+02 -0.97115713034E+01  0.51235962535E+02  0.00000000000E+00 0.  1.
         22    1    3    3    0    0  0.25043852586E+02 -0.76098653132E+02 -0.11027995428E+03  0.13630798904E+03  0.00000000000E+00 0.  1.
</event>
<event>
 7    1  0.6510186E-006  0.1297224E+03  0.7818608E-02  0.1272939E+00
          2   -1    0    0  502    0  0.00000000000E+00  0.00000000000E+00  0.35072153282E+03  0.35072153282E+03  0.00000000000E+00 0. -1.
          1   -1    0    0  501    0 -0.00000000000E+00 -0.00000000000E+00 -0.32064449346E+04  0.32064449346E+04  0.00000000000E+00 0. -1.
         25    2    1    2    0    0 -0.14529081620E+03  0.14383950719E+03 -0.46667629433E+03  0.52460636705E+03  0.12500340620E+03 0.  0.
          2    1    1    2  501    0  0.73845479785E+02 -0.10217051550E+03 -0.27039955737E+04  0.27069325872E+04  0.00000000000E+00 0. -1.
          1    1    1    2  502    0  0.71445336419E+02 -0.41668991685E+02  0.31494846622E+03  0.32562751318E+03  0.00000000000E+00 0. -1.
         22    1    3    3    0    0 -0.24631133583E+02  0.67731066051E+02 -0.28302640302E+03  0.29205844425E+03  0.00000000000E+00 0.  1.
         22    1    3    3    0    0 -0.12065968262E+03  0.76108441138E+02 -0.18364989131E+03  0.23254792280E+03  0.00000000000E+00 0.  1.
</event>
<event>
 7    1  0.6510186E-006  0.8826482E+02  0.7818608E-02  0.1334485E+00
          2   -1    0    0  502    0  0.00000000000E+00  0.00000000000E+00  0.41831119715E+02  0.41831119715E+02  0.00000000000E+00 0. -1.
          1   -1    0    0  501    0 -0.00000000000E+00 -0.00000000000E+00 -0.20204767012E+04  0.20204767012E+04  0.00000000000E+00 0. -1.
         25    2    1    2    0    0  0.18351917367E+02 -0.75586581112E+02 -0.64131761477E+03  0.65799932912E+03  0.12499883999E+03 0.  0.
          2    1    1    2  501    0 -0.81624020745E+02  0.47727232699E+02 -0.13315834726E+04  0.13349362959E+04  0.00000000000E+00 0. -1.
          1    1    1    2  502    0  0.63272103377E+02  0.27859348413E+02 -0.57444941477E+01  0.69372195964E+02  0.00000000000E+00 0. -1.
         22    1    3    3    0    0 -0.25059221740E+02  0.35571786755E+01 -0.26706446521E+02  0.36794733320E+02  0.00000000000E+00 0. -1.
         22    1    3    3    0    0  0.43411139107E+02 -0.79143759788E+02 -0.61461116825E+03  0.62120459580E+03  0.00000000000E+00 0. -1.
</event>
<event>
 7    1  0.6510186E-006  0.6122359E+02  0.7818608E-02  0.1511982E+00
          2   -1    0    0  502    0  0.00000000000E+00  0.00000000000E+00  0.12455833887E+04  0.12455833887E+04  0.00000000000E+00 0. -1.
          1   -1    0    0  501    0 -0.00000000000E+00 -0.00000000000E+00 -0.10591576471E+04  0.10591576471E+04  0.00000000000E+00 0. -1.
         25    2    1    2    0    0 -0.53827640322E+02 -0.36940261003E+02  0.20210657414E+03  0.24644348787E+03  0.12500131062E+03 0.  0.
          2    1    1    2  501    0  0.20825554597E+02 -0.14671046571E+02 -0.10359138203E+04  0.10362269956E+04  0.00000000000E+00 0. -1.
          1    1    1    2  502    0  0.33002085725E+02  0.51611307574E+02  0.10202329877E+04  0.10220705523E+04  0.00000000000E+00 0. -1.
         22    1    3    3    0    0 -0.59033462548E+02 -0.44677780892E+02  0.21677101207E+03  0.22906489360E+03  0.00000000000E+00 0. -1.
         22    1    3    3    0    0  0.52058222253E+01  0.77375198894E+01 -0.14664437928E+02  0.17378594271E+02  0.00000000000E+00 0. -1.
</event>
<event>
 7    1  0.6510186E-006  0.3388349E+02  0.7818608E-02  0.1593912E+00
          2   -1    0    0  502    0  0.00000000000E+00  0.00000000000E+00  0.23542487686E+04  0.23542487686E+04  0.00000000000E+00 0. -1.
          1   -1    0    0  501    0 -0.00000000000E+00 -0.00000000000E+00 -0.53203857358E+01  0.53203857358E+01  0.00000000000E+00 0. -1.
         25    2    1    2    0    0 -0.40972588028E+02 -0.22163453907E+02  0.10083150690E+04  0.10171041591E+04  0.12502647865E+03 0.  0.
          2    1    1    2  501    0  0.14378383170E+02  0.28064581709E+02  0.33452031567E+03  0.33600327415E+03  0.00000000000E+00 0. -1.
          1    1    1    2  502    0  0.26594204858E+02 -0.59011278022E+01  0.10060929982E+04  0.10064617211E+04  0.00000000000E+00 0. -1.
         22    1    3    3    0    0 -0.33255556498E+02 -0.67163121042E+02  0.39198156580E+03  0.39908190236E+03  0.00000000000E+00 0.  1.
         22    1    3    3    0    0 -0.77170315299E+01  0.44999667136E+02  0.61633350319E+03  0.61802225670E+03  0.00000000000E+00 0.  1.
</event>
<event>
 7    1  0.6510186E-006  0.4394515E+02  0.7818608E-02  0.1598896E+00
          2   -1    0    0  502    0  0.00000000000E+00  0.00000000000E+00  0.44884818628E+02  0.44884818628E+02  0.00000000000E+00 0. -1.
          1   -1    0    0  501    0 -0.00000000000E+00 -0.00000000000E+00 -0.79493440166E+03  0.79493440166E+03  0.00000000000E+00 0. -1.
         25    2    1    2    0    0 -0.87030946582E+01  0.38088788619E+02 -0.12371153963E+03  0.18014788258E+03  0.12498885905E+03 0.  0.
          2    1    1    2  501    0  0.28603403157E+02 -0.33690029236E+02 -0.63570628773E+03  0.63724065862E+03  0.00000000000E+00 0. -1.
          1    1    1    2  502    0 -0.19900308499E+02 -0.43987593830E+01  0.93682443268E+01  0.22430679085E+02  0.00000000000E+00 0. -1.
         22    1    3    3    0    0  0.20569803773E+02  0.14927316041E+02  0.19574418600E+02  0.32079580031E+02  0.00000000000E+00 0. -1.
         22    1    3    3    0    0 -0.29272898431E+02  0.23161472578E+02 -0.14328595823E+03  0.14806830255E+03  0.00000000000E+00 0. -1.
</event>
<event>
 7    1  0.6510186E-006  0.3101249E+03  0.7818608E-02  0.1269696E+00
          2   -1    0    0  502    0  0.00000000000E+00  0.00000000000E+00  0.13986927022E+04  0.13986927022E+04  0.00000000000E+00 0. -1.
          1   -1    0    0  501    0 -0.00000000000E+00 -0.00000000000E+00 -0.34601326314E+03  0.34601326314E+03  0.00000000000E+00 0. -1.
         25    2    1    2    0    0  0.28872746953E+03 -0.15226992527E+02  0.12335006377E+02  0.31523424290E+03  0.12500025022E+03 0.  0.
          2    1    1    2  501    0  0.21180481322E+02 -0.28733467018E+02 -0.17287629887E+03  0.17652319856E+03  0.00000000000E+00 0. -1.
          1    1    1    2  502    0 -0.30990795085E+03  0.43960459545E+02  0.12132207315E+04  0.12529485239E+04  0.00000000000E+00 0. -1.
         22    1    3    3    0    0  0.18257632995E+03 -0.55773377794E+02  0.46673486679E+02  0.19652786135E+03  0.00000000000E+00 0. -1.
         22    1    3    3    0    0  0.10615113958E+03  0.40546385267E+02 -0.34338480301E+02  0.11870638156E+03  0.00000000000E+00 0. -1.
</event>
<event>
 7    1  0.6510186E-006  0.5210377E+02  0.7818608E-02  0.1443804E+00
          2   -1    0    0  502    0  0.00000000000E+00  0.00000000000E+00  0.25834841677E+03  0.25834841677E+03  0.00000000000E+00 0. -1.
          1   -1    0    0  501    0 -0.00000000000E+00 -0.00000000000E+00 -0.16292110933E+03  0.16292110933E+03  0.00000000000E+00 0. -1.
         25    2    1    2    0    0  0.28402171891E+02 -0.38100481147E+00 -0.80777755491E+02  0.15151891773E+03  0.12500443238E+03 0.  0.
          2    1    1    2  501    0 -0.63667865965E+01 -0.48112581681E+02 -0.29813352631E+02  0.56957813184E+02  0.00000000000E+00 0. -1.
          1    1    1    2  502    0 -0.22035385295E+02  0.48493586492E+02  0.20601841556E+03  0.21279279519E+03  0.00000000000E+00 0. -1.
         22    1    3    3    0    0 -0.54539154569E+01 -0.16758104782E+02  0.29854964447E+02  0.34668403076E+02  0.00000000000E+00 0. -1.
         22    1    3    3    0    0  0.33856087348E+02  0.16377099971E+02 -0.11063271994E+03  0.11685051465E+03  0.00000000000E+00 0. -1.
</event>
<event>
 7    1  0.6510186E-006  0.4070617E+02  0.7818608E-02  0.1518239E+00
          2   -1    0    0  502    0  0.00000000000E+00  0.00000000000E+00  0.37017943178E+03  0.37017943178E+03  0.00000000000E+00 0. -1.
          1   -1    0    0  501    0 -0.00000000000E+00 -0.00000000000E+00 -0.65989769735E+02  0.65989769735E+02  0.00000000000E+00 0. -1.
         25    2    1    2    0    0 -0.40045857522E+02  0.51748334854E+01  0.15536119411E+03  0.20344996237E+03  0.12499734776E+03 0.  0.
          2    1    1    2  501    0  0.29036666305E+02  0.29870845611E+02 -0.29243567010E+02  0.50897756523E+02  0.00000000000E+00 0. -1.
          1    1    1    2  502    0  0.11009191217E+02 -0.35045679096E+02  0.17807203494E+03  0.18182148262E+03  0.00000000000E+00 0. -1.
         22    1    3    3    0    0  0.87724559535E+01  0.22396394433E+02  0.14941959772E+03  0.15134322135E+03  0.00000000000E+00 0.  1.
         22    1    3    3    0    0 -0.48818313475E+02 -0.17221560948E+02  0.59415963971E+01  0.52106741021E+02  0.00000000000E+00 0.  1.
</event>
<event>
 7    1  0.6510186E-006  0.4542013E+02  0.7818608E-02  0.1482378E+00
          2   -1    0    0  502    0  0.00000000000E+00  0.00000000000E+00  0.11285723278E+04  0.11285723278E+04  0.00000000000E+00 0. -1.
          1   -1    0    0  501    0 -0.00000000000E+00 -0.00000000000E+00 -0.15482765055E+03  0.15482765055E+03  0.00000000000E+00 0. -1.
         25    2    1    2    0    0 -0.65469527700E+02 -0.27104614838E+01  0.44061624149E+02  0.14785130337E+03  0.12499990211E+03 0.  0.
          2    1    1    2  501    0  0.33534493117E+02  0.30171077046E+02 -0.97538258938E+02  0.10746426418E+03  0.00000000000E+00 0. -1.
          1    1    1    2  502    0  0.31935034584E+02 -0.27460615562E+02  0.10272213120E+04  0.10280844108E+04  0.00000000000E+00 0. -1.
         22    1    3    3    0    0 -0.33372807483E+02  0.59989370492E+02  0.92080122915E+01  0.69262228825E+02  0.00000000000E+00 0.  1.
         22    1    3    3    0    0 -0.32096720217E+02 -0.62699831976E+02  0.34853611858E+02  0.78589074546E+02  0.00000000000E+00 0.  1.
</event>
<event>
 7    1  0.6510186E-006  0.5311843E+02  0.7818608E-02  0.1469034E+00
          2   -1    0    0  502    0  0.00000000000E+00  0.00000000000E+00  0.10234311343E+04  0.10234311343E+04  0.00000000000E+00 0. -1.
          1   -1    0    0  501    0 -0.00000000000E+00 -0.00000000000E+00 -0.40438230058E+03  0.40438230058E+03  0.00000000000E+00 0. -1.
         25    2    1    2    0    0 -0.66290731421E+02  0.52708661076E+02  0.23393355367E+03  0.27842874602E+03  0.12499998022E+03 0.  0.
          2    1    1    2  501    0  0.17099343113E+02 -0.35713556362E+02 -0.38022285104E+03  0.38227903695E+03  0.00000000000E+00 0. -1.
          1    1    1    2  502    0  0.49191388309E+02 -0.16995104714E+02  0.76533813113E+03  0.76710565194E+03  0.00000000000E+00 0. -1.
         22    1    3    3    0    0 -0.93427692118E+02  0.64789736271E+02  0.14254335690E+03  0.18233225764E+03  0.00000000000E+00 0.  1.
         22    1    3    3    0    0  0.27136960697E+02 -0.12081075195E+02  0.91390196762E+02  0.96096488375E+02  0.00000000000E+00 0.  1.
</event>
<event>
 7    1  0.6510186E-006  0.3954071E+02  0.7818608E-02  0.1616254E+00
          2   -1    0    0  502    0  0.00000000000E+00  0.00000000000E+00  0.10196244216E+04  0.10196244216E+04  0.00000000000E+00 0. -1.
          1   -1    0    0  501    0 -0.00000000000E+00 -0.00000000000E+00 -0.93150409117E+03  0.93150409117E+03  0.00000000000E+00 0. -1.
         25    2    1    2    0    0 -0.21019564746E+02 -0.75260393110E+01 -0.18139837772E+03  0.22142378891E+03  0.12499863794E+03 0.  0.
          2    1    1    2  501    0 -0.88948936890E+01 -0.18386782945E+02 -0.72955827964E+03  0.72984414522E+03  0.00000000000E+00 0. -1.
          1    1    1    2  502    0  0.29914458435E+02  0.25912822256E+02  0.99907698777E+03  0.99986057862E+03  0.00000000000E+00 0. -1.
         22    1    3    3    0    0  0.33992753865E+02  0.36365685928E+02 -0.11210152484E+03  0.12265692928E+03  0.00000000000E+00 0. -1.
         22    1    3    3    0    0 -0.55012318612E+02 -0.43891725239E+02 -0.69296852883E+02  0.98766859639E+02  0.00000000000E+00 0. -1.
</event>
<event>
 7    1  0.6510186E-006  0.1715491E+03  0.7818608E-02  0.1210746E+00
          2   -1    0    0  502    0  0.00000000000E+00  0.00000000000E+00  0.94602305033E+03  0.94602305033E+03  0.00000000000E+00 0. -1.
          1   -1    0    0  501    0 -0.00000000000E+00 -0.00000000000E+00 -0.55629134024E+03  0.55629134024E+03  0.00000000000E+00 0. -1.
         25    2    1    2    0    0 -0.97234554793E+02 -0.12064733497E+03 -0.24890359225E+03  0.31874101636E+03  0.12502999319E+03 0.  0.
          2    1    1    2  501    0 -0.73468815721E+02  0.91616655356E+02 -0.25106864061E+03  0.27717637115E+03  0.00000000000E+00 0. -1.
          1    1    1    2  502    0  0.17070337051E+03  0.29030679613E+02  0.88970394295E+03  0.90639700307E+03  0.00000000000E+00 0. -1.
         22    1    3    3    0    0 -0.82896651689E+02 -0.60089491437E+02 -0.23300949507E+03  0.25451134874E+03  0.00000000000E+00 0. -1.
         22    1    3    3    0    0 -0.14337903105E+02 -0.60557843532E+02 -0.15894097178E+02  0.64229667629E+02  0.00000000000E+00 0. -1.
</event>
<event>
 7    1  0.6510186E-006  0.9040572E+02  0.7818608E-02  0.1339845E+00
          2   -1    0    0  502    0  0.00000000000E+00  0.00000000000E+00  0.11379574475E+04  0.11379574475E+04  0.00000000000E+00 0. -1.
          1   -1    0    0  501    0 -0.00000000000E+00 -0.00000000000E+00 -0.22471685033E+03  0.22471685033E+03  0.00000000000E+00 0. -1.
         25    2    1    2    0    0  0.14051526065E+03  0.32478480667E+02 -0.41709350693E+02  0.19535791628E+03  0.12500262133E+03 0.  0.
          2    1    1    2  501    0 -0.77616805073E+02 -0.18554996017E+02 -0.90055433393E+02  0.12032720968E+03  0.00000000000E+00 0. -1.
          1    1    1    2  502    0 -0.62898455572E+02 -0.13923484650E+02  0.10450053813E+04  0.10469891719E+04  0.00000000000E+00 0. -1.
         22    1    3    3    0    0  0.55986436094E+02 -0.46775178709E+02 -0.30049378736E+02  0.78900972949E+02  0.00000000000E+00 0.  1.
         22    1    3    3    0    0  0.84528824551E+02  0.79253659377E+02 -0.11659971957E+02  0.11645694333E+03  0.00000000000E+00 0.  1.
</event>
<event>
 7    1  0.6510186E-006  0.1001464E+03  0.7818608E-02  0.1306457E+00
          2   -1    0    0  502    0  0.00000000000E+00  0.00000000000E+00  0.15094102682E+04  0.15094102682E+04  0.00000000000E+00 0. -1.
          1   -1    0    0  501    0 -0.00000000000E+00 -0.00000000000E+00 -0.22188747664E+03  0.22188747664E+03  0.00000000000E+00 0. -1.
         25    2    1    2    0    0  0.69766988663E+02 -0.15548637264E+03  0.28085093495E+03  0.35148954214E+03  0.12499682310E+03 0.  0.
          2    1    1    2  501    0 -0.48443418609E+02  0.61459978961E+02 -0.17631355406E+03  0.19290039701E+03  0.00000000000E+00 0. -1.
          1    1    1    2  502    0 -0.21323570054E+02  0.94026393683E+02  0.11829854107E+04  0.11869078057E+04  0.00000000000E+00 0. -1.
         22    1    3    3    0    0  0.95233257564E+02 -0.63215123132E+02  0.17224341615E+03  0.20672038977E+03  0.00000000000E+00 0. -1.
         22    1    3    3    0    0 -0.25466268901E+02 -0.92271249513E+02  0.10860751880E+03  0.14476915237E+03  0.00000000000E+00 0. -1.
</event>
<event>
 7    1  0.6510186E-006  0.1766650E+03  0.7818608E-02  0.1373330E+00
          2   -1    0    0  502    0  0.00000000000E+00  0.00000000000E+00  0.25001085913E+04  0.25001085913E+04  0.00000000000E+00 0. -1.
          1   -1    0    0  501    0 -0.00000000000E+00 -0.00000000000E+00 -0.39937600197E+03  0.39937600197E+03  0.00000000000E+00 0. -1.
         25    2    1    2    0    0 -0.16224505403E+03  0.48857351132E+02 -0.24395124211E+02  0.21196993726E+03  0.12500253558E+03 0.  0.
          2    1    1    2  501    0 -0.12526119186E+02 -0.21455189750E+02 -0.27738612197E+03  0.27849648022E+03  0.00000000000E+00 0. -1.
          1    1    1    2  502    0  0.17477117321E+03 -0.27402161381E+02  0.24025138355E+04  0.24090181758E+04  0.00000000000E+00 0. -1.
         22    1    3    3    0    0 -0.14221348657E+03  0.29279922243E+02 -0.67852261471E+02  0.16026827196E+03  0.00000000000E+00 0.  1.
         22    1    3    3    0    0 -0.20031567457E+02  0.19577428889E+02  0.43457137260E+02  0.51701665307E+02  0.00000000000E+00 0.  1.
</event>
<event>
 7    1  0.6510186E-006  0.9893738E+02  0.7818608E-02  0.1337405E+00
          2   -1    0    0  502    0  0.00000000000E+00  0.00000000000E+00  0.60648797223E+03  0.60648797223E+03  0.00000000000E+00 0. -1.
          1   -1    0    0  501    0 -0.00000000000E+00 -0.00000000000E+00 -0.56487203686E+03  0.56487203686E+03  0.00000000000E+00 0. -1.
         25    2    1    2    0    0 -0.65308826287E+02 -0.48439962895E+02  0.12413210224E+03  0.19402457039E+03  0.12500032925E+03 0.  0.
          2    1    1    2  501    0  0.28318143846E+02  0.95841203214E+02 -0.52315420697E+03  0.53261409836E+03  0.00000000000E+00 0. -1.
          1    1    1    2  502    0  0.36990682442E+02 -0.47401240319E+02  0.44063804010E+03  0.44472134034E+03  0.00000000000E+00 0. -1.
         22    1    3    3    0    0 -0.10239390563E+03 -0.31854967836E+02  0.10081813330E+03  0.14718541670E+03  0.00000000000E+00 0. -1.
         22    1    3    3    0    0  0.37085079343E+02 -0.16584995059E+02  0.23313968937E+02  0.46839153692E+02  0.00000000000E+00 0. -1.
</event>
<event>
 7    1  0.6510186E-006  0.1061189E+03  0.7818608E-02  0.1327733E+00
          2   -1    0    0  502    0  0.00000000000E+00  0.00000000000E+00  0.35426687994E+03  0.35426687994E+03  0.00000000000E+00 0. -1.
          1   -1    0    0  501    0 -0.00000000000E+00 -0.00000000000E+00 -0.31242771641E+04  0.31242771641E+04  0.00000000000E+00 0. -1.
         25    2    1    2    0    0  0.24986252492E+02  0.12545155578E+03 -0.12052562201E+03  0.21567746545E+03  0.12501175097E+03 0.  0.
          2    1    1    2  501    0 -0.55937932842E+02 -0.24367215564E+02 -0.29467402329E+04  0.29473718486E+04  0.00000000000E+00 0. -1.
          1    1    1    2  502    0  0.30951680350E+02 -0.10108434022E+03  0.29725557073E+03  0.31549473005E+03  0.00000000000E+00 0. -1.
         22    1    3    3    0    0 -0.63037596127E+01 -0.12248614380E+02 -0.60825083216E+02  0.62365508799E+02  0.00000000000E+00 0. -1.
         22    1    3    3    0    0  0.31290012105E+02  0.13770017016E+03 -0.59700538793E+02  0.15331195665E+03  0.00000000000E+00 0. -1.
</event>
<event>
 7    1  0.6510186E-006  0.5503287E+02  0.7818608E-02  0.1556551E+00
          2   -1    0    0  502    0  0.00000000000E+00  0.00000000000E+00  0.21414699893E+04  0.21414699893E+04  0.00000000000E+00 0. -1.
          1   -1    0    0  501    0 -0.00000000000E+00 -0.00000000000E+00 -0.52156197264E+03  0.52156197264E+03  0.00000000000E+00 0. -1.
         25    2    1    2    0    0  0.10468789422E+01 -0.42425934595E+02  0.35265079754E+03  0.37654671625E+03  0.12499515442E+03 0.  0.
          2    1    1    2  501    0  0.18933448024E+02 -0.94370720781E+01 -0.50895961653E+03  0.50939908229E+03  0.00000000000E+00 0. -1.
          1    1    1    2  502    0 -0.19980326966E+02  0.51863006674E+02  0.17762168356E+04  0.17770861634E+04  0.00000000000E+00 0. -1.
         22    1    3    3    0    0  0.32560305574E+02  0.25051728000E+02  0.22532985142E+03  0.22904432871E+03  0.00000000000E+00 0.  1.
         22    1    3    3    0    0 -0.31513426632E+02 -0.67477662596E+02  0.12732094612E+03  0.14750238754E+03  0.00000000000E+00 0.  1.
</event>
<event>
 7    1  0.6510186E-006  0.1021516E+03  0.7818608E-02  0.1343819E+00
          2   -1    0    0  502    0  0.00000000000E+00  0.00000000000E+00  0.10885784180E+03  0.10885784180E+03  0.00000000000E+00 0. -1.
          1   -1    0    0  501    0 -0.00000000000E+00 -0.00000000000E+00 -0.88826288379E+03  0.88826288379E+03  0.00000000000E+00 0. -1.
         25    2    1    2    0    0 -0.57307632355E+02 -0.98532255802E+02 -0.34360315555E+03  0.38298930734E+03  0.12499964349E+03 0.  0.
          2    1    1    2  501    0  0.87464238860E+02  0.52429175477E+02 -0.51090900896E+03  0.52098639806E+03  0.00000000000E+00 0. -1.
          1    1    1    2  502    0 -0.30156606505E+02  0.46103080324E+02  0.75107122532E+02  0.93145020190E+02  0.00000000000E+00 0. -1.
         22    1    3    3    0    0 -0.28106496363E+02  0.22273366945E+02 -0.13938923511E+03  0.14392858256E+03  0.00000000000E+00 0.  1.
         22    1    3    3    0    0 -0.29201135993E+02 -0.12080562275E+03 -0.20421392045E+03  0.23906072478E+03  0.00000000000E+00 0.  1.
</event>
<event>
 7    1  0.6510186E-006  0.2315329E+03  0.7818608E-02  0.1236626E+00
          2   -1    0    0  502    0  0.00000000000E+00  0.00000000000E+00  0.47646471086E+03  0.47646471086E+03  0.00000000000E+00 0. -1.
          1   -1    0    0  501    0 -0.00000000000E+00 -0.00000000000E+00 -0.21741268675E+04  0.21741268675E+04  0.00000000000E+00 0. -1.
         25    2    1    2    0    0 -0.13744273572E+03 -0.10414137499E+03 -0.10817843363E+03  0.23887979487E+03  0.12500020523E+03 0.  0.
          2    1    1    2  501    0  0.19710201428E+03  0.13333507469E+03 -0.19907820689E+04  0.20049540374E+04  0.00000000000E+00 0. -1.
          1    1    1    2  502    0 -0.59659278560E+02 -0.29193699704E+02  0.40129834588E+03  0.40675774612E+03  0.00000000000E+00 0. -1.
         22    1    3    3    0    0 -0.10323444962E+03 -0.13255254075E+03 -0.78709621351E+02  0.18553364153E+03  0.00000000000E+00 0. -1.
         22    1    3    3    0    0 -0.34208286105E+02  0.28411165765E+02 -0.29468812279E+02  0.53346153334E+02  0.00000000000E+00 0. -1.
</event>
<event>
 7    1  0.6510186E-006  0.4333769E+02  0.7818608E-02  0.1536220E+00
          2   -1    0    0  502    0  0.00000000000E+00  0.00000000000E+00  0.18969657096E+04  0.18969657096E+04  0.00000000000E+00 0. -1.
          1   -1    0    0  501    0 -0.00000000000E+00 -0.00000000000E+00 -0.85844367100E+02  0.85844367100E+02  0.00000000000E+00 0. -1.
         25    2    1    2    0    0 -0.12698491319E+01  0.64510130155E+02  0.10479981265E+04  0.10573971609E+04  0.12500205343E+03 0.  0.
          2    1    1    2  501    0 -0.15363727760E+02 -0.26498823712E+02 -0.77724370036E+02  0.83542261678E+02  0.00000000000E+00 0. -1.
          1    1    1    2  502    0  0.16633576892E+02 -0.38011306443E+02  0.84084758602E+03  0.84187065409E+03  0.00000000000E+00 0. -1.
         22    1    3    3    0    0  0.25114404984E+02 -0.30312255882E+02  0.21186089162E+03  0.21548689889E+03  0.00000000000E+00 0.  1.
         22    1    3    3    0    0 -0.26384254116E+02  0.94822386037E+02  0.83613723487E+03  0.84191026202E+03  0.00000000000E+00 0.  1.
</event>
<event>
 7    1  0.6510186E-006  0.2255151E+03  0.7818608E-02  0.1294627E+00
          2   -1    0    0  502    0  0.00000000000E+00  0.00000000000E+00  0.69603535953E+03  0.69603535953E+03  0.00000000000E+00 0. -1.
          1   -1    0    0  501    0 -0.00000000000E+00 -0.00000000000E+00 -0.23126162256E+03  0.23126162256E+03  0.00000000000E+00 0. -1.
         25    2    1    2    0    0 -0.69030750716E+02  0.21855423239E+03  0.39868661516E+03  0.47655813413E+03  0.12500176421E+03 0.  0.
          2    1    1    2  501    0 -0.32877768380E+02 -0.20513619603E+02 -0.14123573623E+03  0.14645575930E+03  0.00000000000E+00 0. -1.
          1    1    1    2  502    0  0.10190851910E+03 -0.19804061279E+03  0.20732285804E+03  0.30428308866E+03  0.00000000000E+00 0. -1.
         22    1    3    3    0    0  0.50210549196E+01 -0.15119010142E+02  0.23292395495E+02  0.28219339966E+02  0.00000000000E+00 0. -1.
         22    1    3    3    0    0 -0.74051805636E+02  0.23367324253E+03  0.37539421966E+03  0.44833879416E+03  0.00000000000E+00 0. -1.
</event>
<event>
 7    1  0.6510186E-006  0.6898480E+02  0.7818608E-02  0.1469161E+00
          2   -1    0    0  502    0  0.00000000000E+00  0.00000000000E+00  0.21031656940E+03  0.21031656940E+03  0.00000000000E+00 0. -1.
          1   -1    0    0  501    0 -0.00000000000E+00 -0.00000000000E+00 -0.64745242426E+03  0.64745242426E+03  0.00000000000E+00 0. -1.
         25    2    1    2    0    0 -0.77227099543E+02 -0.57043736794E+02 -0.11013191080E+03  0.19228305664E+03  0.12500289310E+03 0.  0.
          2    1    1    2  501    0  0.48469920922E+02  0.46998302812E+02 -0.49255259472E+03  0.49715815619E+03  0.00000000000E+00 0. -1.
          1    1    1    2  502    0  0.28757178621E+02  0.10045433983E+02  0.16554865066E+03  0.16832778083E+03  0.00000000000E+00 0. -1.
         22    1    3    3    0    0 -0.22334674518E+02  0.18023512914E+02 -0.93507462067E+02  0.97812730081E+02  0.00000000000E+00 0.  1.
         22    1    3    3    0    0 -0.54892425025E+02 -0.75067249708E+02 -0.16624448728E+02  0.94470326555E+02  0.00000000000E+00 0.  1.
</event>
<event>
 7    1  0.6510186E-006  0.1236956E+03  0.7818608E-02  0.1346479E+00
          2   -1    0    0  502    0  0.00000000000E+00  0.00000000000E+00  0.21111548270E+04  0.21111548270E+04  0.00000000000E+00 0. -1.
          1   -1    0    0  501    0 -0.00000000000E+00 -0.00000000000E+00 -0.24839731320E+02  0.24839731320E+02  0.00000000000E+00 0. -1.
         25    2    1    2    0    0 -0.12021310653E+03  0.61095474643E+01  0.94325039862E+03  0.95908003397E+03  0.12499871801E+03 0.  0.
          2    1    1    2  501    0  0.11565281949E+03 -0.50341679456E+02  0.22634953441E+03  0.25912153726E+03  0.00000000000E+00 0. -1.
          1    1    1    2  502    0  0.45602870387E+01  0.44232131992E+02  0.91671516268E+03  0.91779298712E+03  0.00000000000E+00 0. -1.
         22    1    3    3    0    0 -0.92915726462E+02  0.47577999146E+02  0.39412723695E+03  0.40771715334E+03  0.00000000000E+00 0.  1.
         22    1    3    3    0    0 -0.27297380066E+02 -0.41468451682E+02  0.54912316168E+03  0.55136288063E+03  0.00000000000E+00 0.  1.
</event>
<event>
 7    1  0.6510186E-006  0.6306565E+02  0.7818608E-02  0.1409634E+00
          2   -1    0    0  502    0  0.00000000000E+00  0.00000000000E+00  0.15097890621E+04  0.15097890621E+04  0.00000000000E+00 0. -1.
          1   -1    0    0  501    0 -0.00000000000E+00 -0.00000000000E+00 -0.52663669203E+03  0.52663669203E+03  0.00000000000E+00 0. -1.
         25    2    1    2    0    0  0.63517430415E+02  0.41053582254E+01 -0.39920062020E+03  0.42312955037E+03  0.12500465310E+03 0.  0.
          2    1    1    2  501    0 -0.54767934706E+02  0.47170806031E+02 -0.10366031655E+03  0.12637275355E+03  0.00000000000E+00 0. -1.
          1    1    1    2  502    0 -0.87494957089E+01 -0.51276164257E+02  0.14860133069E+04  0.14869234502E+04  0.00000000000E+00 0. -1.
         22    1    3    3    0    0 -0.14700176295E+02  0.39033970382E+02 -0.22698561587E+03  0.23078608242E+03  0.00000000000E+00 0.  1.
         22    1    3    3    0    0  0.78217606710E+02 -0.34928612157E+02 -0.17221500433E+03  0.19234346795E+03  0.00000000000E+00 0.  1.
</event>
<event>
 7    1  0.6510186E-006  0.8042116E+02  0.7818608E-02  0.1460313E+00
          2   -1    0    0  502    0  0.00000000000E+00  0.00000000000E+00  0.40028105586E+03  0.40028105586E+03  0.00000000000E+00 0. -1.
          1   -1    0    0  501    0 -0.00000000000E+00 -0.00000000000E+00 -0.39243661990E+03  0.39243661990E+03  0.00000000000E+00 0. -1.
         25    2    1    2    0    0  0.51906096086E+02  0.30403439770E+02 -0.51998261303E+02  0.14814960903E+03  0.12500350202E+03 0.  0.
          2    1    1    2  501    0  0.56236666086E+01  0.27278434863E+02 -0.28696848973E+03  0.28831693105E+03  0.00000000000E+00 0. -1.
          1    1    1    2  502    0 -0.57529762695E+02 -0.57681874632E+02  0.34681118698E+03  0.35625113568E+03  0.00000000000E+00 0. -1.
         22    1    3    3    0    0 -0.25596907230E+02  0.25323664243E+01  0.24659756064E+02  0.35633104112E+02  0.00000000000E+00 0. -1.
         22    1    3    3    0    0  0.77503003317E+02  0.27871073345E+02 -0.76658017367E+02  0.11251650492E+03  0.00000000000E+00 0. -1.
</event>
<event>
 7    1  0.6510186E-006  0.1061496E+03  0.7818608E-02  0.1314330E+00
          2   -1    0    0  502    0  0.00000000000E+00  0.00000000000E+00  0.44373688324E+03  0.44373688324E+03  0.00000000000E+00 0. -1.
          1   -1    0    0  501    0 -0.00000000000E+00 -0.00000000000E+00 -0.12796530291E+03  0.12796530291E+03  0.00000000000E+00 0. -1.
         25    2    1    2    0    0 -0.13011966668E+03 -0.17793047839E+02  0.28279351698E+03  0.33592209494E+03  0.12499504156E+03 0.  0.
          2    1    1    2  501    0  0.96539867133E+02 -0.42190674018E+02 -0.59154731222E+02  0.12082748506E+03  0.00000000000E+00 0. -1.
          1    1    1    2  502    0  0.33579799543E+02  0.59983721857E+02  0.92132794575E+02  0.11495260615E+03  0.00000000000E+00 0. -1.
         22    1    3    3    0    0 -0.58113535111E+02 -0.22843295275E+01  0.17709501637E+02  0.60794963383E+02  0.00000000000E+00 0.  1.
         22    1    3    3    0    0 -0.72006131565E+02 -0.15508718312E+02  0.26508401534E+03  0.27512713155E+03  0.00000000000E+00 0.  1.
</event>
<event>
 7    1  0.6510186E-006  0.5532534E+02  0.7818608E-02  0.1523819E+00
          2   -1    0    0  502    0  0.00000000000E+00  0.00000000000E+00  0.24409473144E+04  0.24409473144E+04  0.00000000000E+00 0. -1.
          1   -1    0    0  501    0 -0.00000000000E+00 -0.00000000000E+00 -0.19449260051E+02  0.19449260051E+02  0.00000000000E+00 0. -1.
         25    2    1    2    0    0  0.29624303068E+02 -0.55251396073E+02  0.43691044014E+03  0.45874474454E+03  0.12500276735E+03 0.  0.
          2    1    1    2  501    0 -0.26038962659E+02  0.11129429007E+00  0.12666224795E+02  0.28956401940E+02  0.00000000000E+00 0. -1.
          1    1    1    2  502    0 -0.35853404093E+01  0.55140101783E+02  0.19719213894E+04  0.19726954280E+04  0.00000000000E+00 0. -1.
         22    1    3    3    0    0  0.77475659910E+02 -0.24080834229E+02  0.28966595902E+03  0.30081345095E+03  0.00000000000E+00 0.  1.
         22    1    3    3    0    0 -0.47851356842E+02 -0.31170561844E+02  0.14724448112E+03  0.15793129360E+03  0.00000000000E+00 0.  1.
</event>
<event>
 7    1  0.6510186E-006  0.8969364E+02  0.7818608E-02  0.1330778E+00
          2   -1    0    0  502    0  0.00000000000E+00  0.00000000000E+00  0.67293734406E+03  0.67293734406E+03  0.00000000000E+00 0. -1.
          1   -1    0    0  501    0 -0.00000000000E+00 -0.00000000000E+00 -0.39130984270E+04  0.39130984270E+04  0.00000000000E+00 0. -1.
         25    2    1    2    0    0  0.38003008189E+02 -0.13954763412E+03 -0.61645736549E+03  0.64541615019E+03  0.12499821058E+03 0.  0.
          2    1    1    2  501    0 -0.48662462630E+02  0.50705280811E+02 -0.32787434750E+04  0.32794965826E+04  0.00000000000E+00 0. -1.
          1    1    1    2  502    0  0.10659454441E+02  0.88842353305E+02  0.65503975754E+03  0.66112303823E+03  0.00000000000E+00 0. -1.
         22    1    3    3    0    0  0.98353566787E+01  0.14509193380E+02 -0.19526212087E+03  0.19604730750E+03  0.00000000000E+00 0. -1.
         22    1    3    3    0    0  0.28167651510E+02 -0.15405682750E+03 -0.42119524462E+03  0.44936884269E+03  0.00000000000E+00 0. -1.
</event>
<event>
 7    1  0.6510186E-006  0.1520149E+03  0.7818608E-02  0.1275053E+00
          2   -1    0    0  502    0  0.00000000000E+00  0.00000000000E+00  0.65099814653E+03  0.65099814653E+03  0.00000000000E+00 0. -1.
          1   -1    0    0  501    0 -0.00000000000E+00 -0.00000000000E+00 -0.14370204391E+04  0.14370204391E+04  0.00000000000E+00 0. -1.
         25    2    1    2    0    0  0.10114705021E+03 -0.95494671282E+01 -0.35686534518E+03  0.39153443139E+03  0.12499767310E+03 0.  0.
          2    1    1    2  501    0  0.46538603676E+02  0.51160543842E+02 -0.10523805543E+04  0.10546506881E+04  0.00000000000E+00 0. -1.
          1    1    1    2  502    0 -0.14768565389E+03 -0.41611076714E+02  0.62322360690E+03  0.64183346614E+03  0.00000000000E+00 0. -1.
         22    1    3    3    0    0 -0.37024623158E+01 -0.46275910026E+02 -0.70893646488E+02  0.84741236646E+02  0.00000000000E+00 0. -1.
         22    1    3    3    0    0  0.10484951253E+03  0.36726442898E+02 -0.28597169869E+03  0.30679319474E+03  0.00000000000E+00 0. -1.
</event>
<event>
 7    1  0.6510186E-006  0.3228057E+03  0.7818608E-02  0.1121589E+00
          2   -1    0    0  502    0  0.00000000000E+00  0.00000000000E+00  0.14150605642E+04  0.14150605642E+04  0.00000000000E+00 0. -1.
          1   -1    0    0  501    0 -0.00000000000E+00 -0.00000000000E+00 -0.17289087739E+04  0.17289087739E+04  0.00000000000E+00 0. -1.
         25    2    1    2    0    0 -0.36634723582E+03  0.21446512936E+03 -0.57201475342E+03  0.72320923284E+03  0.12500050973E+03 0.  0.
          2    1    1    2  501    0  0.19253085987E+03 -0.22964368774E+03 -0.10546504415E+04  0.10963995207E+04  0.00000000000E+00 0. -1.
          1    1    1    2  502    0  0.17381637595E+03  0.15178558378E+02  0.13128169852E+04  0.13243605845E+04  0.00000000000E+00 0. -1.
         22    1    3    3    0    0 -0.17097162337E+03  0.36303198248E+02 -0.18513721504E+03  0.25460755408E+03  0.00000000000E+00 0.  1.
         22    1    3    3    0    0 -0.19537561245E+03  0.17816193111E+03 -0.38687753838E+03  0.46860167876E+03  0.00000000000E+00 0.  1.
</event>
<event>
 7    1  0.6510186E-006  0.9486078E+02  0.7818608E-02  0.1301160E+00
          2   -1    0    0  502    0  0.00000000000E+00  0.00000000000E+00  0.42789594440E+03  0.42789594440E+03  0.00000000000E+00 0. -1.
          1   -1    0    0  501    0 -0.00000000000E+00 -0.00000000000E+00 -0.76673764174E+03  0.76673764174E+03  0.00000000000E+00 0. -1.
         25    2    1    2    0    0 -0.15364187403E+03  0.38422437892E+02  0.17632377403E+02  0.20252976253E+03  0.12500117915E+03 0.  0.
          2    1    1    2  501    0  0.90965766844E+02  0.21520261592E+02 -0.66504230758E+03  0.67157960308E+03  0.00000000000E+00 0. -1.
          1    1    1    2  502    0  0.62676107184E+02 -0.59942699484E+02  0.30856823284E+03  0.32052422054E+03  0.00000000000E+00 0. -1.
         22    1    3    3    0    0 -0.30393238242E+01 -0.30693165277E+02  0.20085563395E+02  0.36806762163E+02  0.00000000000E+00 0. -1.
         22    1    3    3    0    0 -0.15060255020E+03  0.69115603169E+02 -0.24531859922E+01  0.16572300037E+03  0.00000000000E+00 0. -1.
</event>
<event>
 7    1  0.6510186E-006  0.1194591E+03  0.7818608E-02  0.1399290E+00
          2   -1    0    0  502    0  0.00000000000E+00  0.00000000000E+00  0.24479711510E+04  0.24479711510E+04  0.00000000000E+00 0. -1.
          1   -1    0    0  501    0 -0.00000000000E+00 -0.00000000000E+00 -0.78147596814E+02  0.78147596814E+02  0.00000000000E+00 0. -1.
         25    2    1    2    0    0  0.52088280412E+01  0.13582302918E+03  0.26887816864E+03  0.32618315463E+03  0.12499981461E+03 0.  0.
          2    1    1    2  501    0 -0.24806649744E+02 -0.11338811082E+03  0.18806551751E+02  0.11758367206E+03  0.00000000000E+00 0. -1.
          1    1    1    2  502    0  0.19597821703E+02 -0.22434918355E+02  0.20821388338E+04  0.20823519211E+04  0.00000000000E+00 0. -1.
         22    1    3    3    0    0  0.44133978857E+02  0.13308572900E+03  0.23877724296E+03  0.27690104931E+03  0.00000000000E+00 0. -1.
         22    1    3    3    0    0 -0.38925150816E+02  0.27373001723E+01  0.30100925680E+02  0.49282105323E+02  0.00000000000E+00 0. -1.
</event>
<event>
 7    1  0.6510186E-006  0.1254772E+03  0.7818608E-02  0.1351697E+00
          2   -1    0    0  502    0  0.00000000000E+00  0.00000000000E+00  0.30030592733E+03  0.30030592733E+03  0.00000000000E+00 0. -1.
          1   -1    0    0  501    0 -0.00000000000E+00 -0.00000000000E+00 -0.25288205465E+03  0.25288205465E+03  0.00000000000E+00 0. -1.
         25    2    1    2    0    0 -0.76701288216E+02  0.70730877813E+02  0.47312503134E+02  0.16955571478E+03  0.12499889108E+03 0.  0.
          2    1    1    2  501    0  0.67710944846E+02 -0.11167961297E+03 -0.16662289062E+03  0.21170804350E+03  0.00000000000E+00 0. -1.
          1    1    1    2  502    0  0.89903433705E+01  0.40948735154E+02  0.16673426016E+03  0.17192422370E+03  0.00000000000E+00 0. -1.
         22    1    3    3    0    0 -0.27681261966E+02  0.25469909727E+02 -0.43089766142E+02  0.57198745718E+02  0.00000000000E+00 0. -1.
         22    1    3    3    0    0 -0.49020026250E+02  0.45260968086E+02  0.90402269276E+02  0.11235696906E+03  0.00000000000E+00 0. -1.
</event>
<event>
 7    1  0.6510186E-006  0.1528045E+03  0.7818608E-02  0.1382295E+00
          2   -1    0    0  502    0  0.00000000000E+00  0.00000000000E+00  0.25321290825E+03  0.25321290825E+03  0.00000000000E+00 0. -1.
          1   -1    0    0  501    0 -0.00000000000E+00 -0.00000000000E+00 -0.64490378623E+03  0.64490378623E+03  0.00000000000E+00 0. -1.
         25    2    1    2    0    0  0.16597280754E+03  0.39945059133E+02  0.30154833406E+02  0.21372167343E+03  0.12500023649E+03 0.  0.
          2    1    1    2  501    0 -0.26688295796E+02  0.44186796549E+00 -0.51261486123E+03  0.51330931838E+03  0.00000000000E+00 0. -1.
          1    1    1    2  502    0 -0.13928451175E+03 -0.40386927098E+02  0.90769149846E+02  0.17108570267E+03  0.00000000000E+00 0. -1.
         22    1    3    3    0    0  0.10013518973E+03  0.27499435354E+02 -0.44879042441E+02  0.11312560991E+03  0.00000000000E+00 0. -1.
         22    1    3    3    0    0  0.65837617814E+02  0.12445623778E+02  0.75033875848E+02  0.10059606352E+03  0.00000000000E+00 0. -1.
</event>
<event>
 7    1  0.6510186E-006  0.1301401E+03  0.7818608E-02  0.1363336E+00
          2   -1    0    0  502    0  0.00000000000E+00  0.00000000000E+00  0.82424517273E+02  0.82424517273E+02  0.00000000000E+00 0. -1.
          1   -1    0    0  501    0 -0.00000000000E+00 -0.00000000000E+00 -0.54611163558E+03  0.54611163558E+03  0.00000000000E+00 0. -1.
         25    2    1    2    0    0 -0.71809267834E+02  0.12357691927E+03 -0.16078006461E+03  0.24880210162E+03  0.12499772266E+03 0.  0.
          2    1    1    2  501    0 -0.14738013253E+02 -0.33547612616E+02 -0.23449486415E+03  0.23734045728E+03  0.00000000000E+00 0. -1.
          1    1    1    2  502    0  0.86547281087E+02 -0.90029306658E+02 -0.68412189539E+02  0.14239359395E+03  0.00000000000E+00 0. -1.
         22    1    3    3    0    0 -0.95902802565E+02  0.11762542962E+03 -0.96375491346E+02  0.17978132430E+03  0.00000000000E+00 0.  1.
         22    1    3    3    0    0  0.24093534731E+02  0.59514896524E+01 -0.64404573269E+02  0.69020777327E+02  0.00000000000E+00 0.  1.
</event>
<event>
 7    1  0.6510186E-006  0.5869032E+02  0.7818608E-02  0.1464907E+00
          2   -1    0    0  502    0  0.00000000000E+00  0.00000000000E+00  0.44220470211E+03  0.44220470211E+03  0.00000000000E+00 0. -1.
          1   -1    0    0  501    0 -0.00000000000E+00 -0.00000000000E+00 -0.26251119392E+03  0.26251119392E+03  0.00000000000E+00 0. -1.
         25    2    1    2    0    0 -0.21104459462E+02 -0.72218721565E+02  0.60773685657E+02  0.15804882336E+03  0.12500019098E+03 0.  0.
          2    1    1    2  501    0  0.33597607927E+02  0.15298683210E+02 -0.20969771540E+03  0.21292247606E+03  0.00000000000E+00 0. -1.
          1    1    1    2  502    0 -0.12493148465E+02  0.56920038355E+02  0.32861753793E+03  0.33374459660E+03  0.00000000000E+00 0. -1.
         22    1    3    3    0    0 -0.70075942988E+02 -0.52060851447E+02  0.16112168007E+02  0.88772585841E+02  0.00000000000E+00 0. -1.
         22    1    3    3    0    0  0.48971483526E+02 -0.20157870118E+02  0.44661517651E+02  0.69276237523E+02  0.00000000000E+00 0. -1.
</event>
<event>
 7    1  0.6510186E-006  0.1186206E+03  0.7818608E-02  0.1307778E+00
          2   -1    0    0  502    0  0.00000000000E+00  0.00000000000E+00  0.34187625427E+03  0.34187625427E+03  0.00000000000E+00 0. -1.
          1   -1    0    0  501    0 -0.00000000000E+00 -0.00000000000E+00 -0.63119976539E+03  0.63119976539E+03  0.00000000000E+00 0. -1.
         25    2    1    2    0    0  0.66181689936E+02  0.15135929953E+03 -0.63490105730E+02  0.21666972671E+03  0.12500049324E+03 0.  0.
          2    1    1    2  501    0  0.93707120317E+01 -0.64601904561E+02 -0.47631577819E+03  0.48076806972E+03  0.00000000000E+00 0. -1.
          1    1    1    2  502    0 -0.75552401968E+02 -0.86757394972E+02  0.25048237279E+03  0.27563822323E+03  0.00000000000E+00 0. -1.
         22    1    3    3    0    0 -0.19170212585E+02  0.10241007699E+02  0.21984162798E+02  0.30914053489E+02  0.00000000000E+00 0.  1.
         22    1    3    3    0    0  0.85351902521E+02  0.14111829183E+03 -0.85474268528E+02  0.18575567322E+03  0.00000000000E+00 0.  1.
</event>
<event>
 7    1  0.6510186E-006  0.1168814E+03  0.7818608E-02  0.1353941E+00
          2   -1    0    0  502    0  0.00000000000E+00  0.00000000000E+00  0.27530270473E+03  0.27530270473E+03  0.00000000000E+00 0. -1.
          1   -1    0    0  501    0 -0.00000000000E+00 -0.00000000000E+00 -0.86556626874E+03  0.86556626874E+03  0.00000000000E+00 0. -1.
         25    2    1    2    0    0 -0.11337863329E+03 -0.71873231719E+02 -0.21440989911E+03  0.28216519461E+03  0.12500046516E+03 0.  0.
          2    1    1    2  501    0  0.45942822664E+00  0.44154910725E+02 -0.60242439328E+03  0.60404057549E+03  0.00000000000E+00 0. -1.
          1    1    1    2  502    0  0.11291920506E+03  0.27718320994E+02  0.22657072838E+03  0.25466320337E+03  0.00000000000E+00 0. -1.
         22    1    3    3    0    0 -0.99351542965E+02 -0.32375132907E+01 -0.17635778882E+03  0.20244327664E+03  0.00000000000E+00 0.  1.
         22    1    3    3    0    0 -0.14027090326E+02 -0.68635718428E+02 -0.38052110293E+02  0.79721917970E+02  0.00000000000E+00 0.  1.
</event>
<event>
 7    1  0.6510186E-006  0.7308363E+02  0.7818608E-02  0.1356403E+00
          2   -1    0    0  502    0  0.00000000000E+00  0.00000000000E+00  0.59742540837E+03  0.59742540837E+03  0.00000000000E+00 0. -1.
          1   -1    0    0  501    0 -0.00000000000E+00 -0.00000000000E+00 -0.91723880047E+02  0.91723880047E+02  0.00000000000E+00 0. -1.
         25    2    1    2    0    0 -0.77079231416E+01 -0.76998702406E+01  0.25765496839E+03  0.28658411682E+03  0.12500269277E+03 0.  0.
          2    1    1    2  501    0  0.58933819992E+02 -0.44426176103E+02 -0.54226365080E+02  0.91582634444E+02  0.00000000000E+00 0. -1.
          1    1    1    2  502    0 -0.51225896850E+02  0.52126046343E+02  0.30227292501E+03  0.31098253715E+03  0.00000000000E+00 0. -1.
         22    1    3    3    0    0 -0.25062575651E+02 -0.52932774600E+02  0.63113181445E+02  0.86100435523E+02  0.00000000000E+00 0.  1.
         22    1    3    3    0    0  0.17354652510E+02  0.45232904359E+02  0.19454178694E+03  0.20048368130E+03  0.00000000000E+00 0.  1.
</event>
<event>
 7    1  0.6510186E-006  0.1842823E+03  0.7818608E-02  0.1183207E+00
          2   -1    0    0  502    0  0.00000000000E+00  0.00000000000E+00  0.21385092378E+04  0.21385092378E+04  0.00000000000E+00 0. -1.
          1   -1    0    0  501    0 -0.00000000000E+00 -0.00000000000E+00 -0.19014754197E+04  0.19014754197E+04  0.00000000000E+00 0. -1.
         25    2    1    2    0    0 -0.60216996011E+02 -0.63407115986E+02 -0.77255696568E+02  0.17099417823E+03  0.12499606942E+03 0.  0.
          2    1    1    2  501    0  0.79854259728E+02 -0.12421172948E+03 -0.17700163361E+04  0.17761652757E+04  0.00000000000E+00 0. -1.
          1    1    1    2  502    0 -0.19637263717E+02  0.18761884547E+03  0.20843058508E+04  0.20928252036E+04  0.00000000000E+00 0. -1.
         22    1    3    3    0    0 -0.51317897786E+02 -0.77959020608E+02 -0.15037771917E+01  0.93345577684E+02  0.00000000000E+00 0. -1.
         22    1    3    3    0    0 -0.88990982250E+01  0.14551904622E+02 -0.75751919376E+02  0.77648600544E+02  0.00000000000E+00 0. -1.
</event>
<event>
 7    1  0.6510186E-006  0.7024209E+02  0.7818608E-02  0.1359666E+00
          2   -1    0    0  502    0  0.00000000000E+00  0.00000000000E+00  0.11426881091E+04  0.11426881091E+04  0.00000000000E+00 0. -1.
          1   -1    0    0  501    0 -0.00000000000E+00 -0.00000000000E+00 -0.33724447081E+03  0.33724447081E+03  0.00000000000E+00 0. -1.
         25    2    1    2    0    0 -0.44743059767E+02 -0.80630019942E+02  0.64747556309E+03  0.66584735520E+03  0.12499981646E+03 0.  0.
          2    1    1    2  501    0 -0.23754891239E+02  0.66160357839E+02 -0.32172250615E+03  0.32931270666E+03  0.00000000000E+00 0. -1.
          1    1    1    2  502    0  0.68497951007E+02  0.14469662102E+02  0.47969058139E+03  0.48477251809E+03  0.00000000000E+00 0. -1.
         22    1    3    3    0    0  0.21041806082E+02  0.85873555160E+01  0.30573781073E+03  0.30658132557E+03  0.00000000000E+00 0.  1.
         22    1    3    3    0    0 -0.65784865849E+02 -0.89217375458E+02  0.34173775235E+03  0.35926602963E+03  0.00000000000E+00 0.  1.
</event>
<event>
 7    1  0.6510186E-006  0.1091769E+03  0.7818608E-02  0.1303366E+00
          2   -1    0    0  502    0  0.00000000000E+00  0.00000000000E+00  0.45288422002E+03  0.45288422002E+03  0.00000000000E+00 0. -1.
          1   -1    0    0  501    0 -0.00000000000E+00 -0.00000000000E+00 -0.40867439073E+03  0.40867439073E+03  0.00000000000E+00 0. -1.
         25    2    1    2    0    0 -0.29469069767E+02 -0.28187363488E+02  0.11718453869E+03  0.17612487610E+03  0.12499920935E+03 0.  0.
          2    1    1    2  501    0  0.96408211294E+02  0.59361841643E+02 -0.36607068429E+03  0.38317896256E+03  0.00000000000E+00 0. -1.
          1    1    1    2  502    0 -0.66939141527E+02 -0.31174478155E+02  0.29309597489E+03  0.30225477209E+03  0.00000000000E+00 0. -1.
         22    1    3    3    0    0 -0.27405959801E+02  0.41444319035E+02  0.13990197506E+02  0.51618251028E+02  0.00000000000E+00 0. -1.
         22    1    3    3    0    0 -0.20631099660E+01 -0.69631682523E+02  0.10319434118E+03  0.12450662507E+03  0.00000000000E+00 0. -1.
</event>
<event>
 7    1  0.6510186E-006  0.2393224E+03  0.7818608E-02  0.1212666E+00
          2   -1    0    0  502    0  0.00000000000E+00  0.00000000000E+00  0.32978194684E+04  0.32978194684E+04  0.00000000000E+00 0. -1.
          1   -1    0    0  501    0 -0.00000000000E+00 -0.00000000000E+00 -0.13567932965E+03  0.13567932965E+03  0.00000000000E+00 0. -1.
         25    2    1    2    0    0  0.15223155006E+03 -0.70092552380E+02  0.22821816406E+03  0.30951998139E+03  0.12502670811E+03 0.  0.
          2    1    1    2  501    0  0.81027398888E+02 -0.15392358786E+02 -0.70986490371E+02  0.10881840789E+03  0.00000000000E+00 0. -1.
          1    1    1    2  502    0 -0.23325894894E+03  0.85484911166E+02  0.30049084650E+04  0.30151604087E+04  0.00000000000E+00 0. -1.
         22    1    3    3    0    0 -0.16218535513E+02 -0.51921772165E+01 -0.17988949128E+01  0.17124123958E+02  0.00000000000E+00 0. -1.
         22    1    3    3    0    0  0.16845008557E+03 -0.64900375164E+02  0.23001705897E+03  0.29239585743E+03  0.00000000000E+00 0. -1.
</event>
<event>
 7    1  0.6510186E-006  0.1339919E+03  0.7818608E-02  0.1353811E+00
          2   -1    0    0  502    0  0.00000000000E+00  0.00000000000E+00  0.19304888911E+03  0.19304888911E+03  0.00000000000E+00 0. -1.
          1   -1    0    0  501    0 -0.00000000000E+00 -0.00000000000E+00 -0.10251055719E+04  0.10251055719E+04  0.00000000000E+00 0. -1.
         25    2    1    2    0    0 -0.92624518434E+02  0.93560526830E+02  0.21313052373E+02  0.18278228147E+03  0.12498897000E+03 0.  0.
          2    1    1    2  501    0  0.63242578226E+02 -0.11853356933E+03 -0.93525831733E+03  0.94485869361E+03  0.00000000000E+00 0. -1.
          1    1    1    2  502    0  0.29381940208E+02  0.24973042504E+02  0.81888582125E+02  0.90513485982E+02  0.00000000000E+00 0. -1.
         22    1    3    3    0    0 -0.68823051108E+02  0.24504383882E+01 -0.30480733133E+02  0.75310637393E+02  0.00000000000E+00 0.  1.
         22    1    3    3    0    0 -0.23801467326E+02  0.91110088442E+02  0.51793785507E+02  0.10747164407E+03  0.00000000000E+00 0.  1.
</event>
<event>
 7    1  0.6510186E-006  0.9296501E+02  0.7818608E-02  0.1460833E+00
          2   -1    0    0  502    0  0.00000000000E+00  0.00000000000E+00  0.26018381630E+03  0.26018381630E+03  0.00000000000E+00 0. -1.
          1   -1    0    0  501    0 -0.00000000000E+00 -0.00000000000E+00 -0.77504719037E+03  0.77504719037E+03  0.00000000000E+00 0. -1.
         25    2    1    2    0    0  0.17918463490E+02  0.10332878699E+03 -0.34482107590E+03  0.38148029077E+03  0.12501091274E+03 0.  0.
          2    1    1    2  501    0 -0.21501494668E+02 -0.10669705374E+02 -0.40263778317E+03  0.40335262652E+03  0.00000000000E+00 0. -1.
          1    1    1    2  502    0  0.35830311786E+01 -0.92659081616E+02  0.23259548501E+03  0.25039808938E+03  0.00000000000E+00 0. -1.
         22    1    3    3    0    0  0.48950194218E+02 -0.61835711990E+01 -0.10230785397E+03  0.11358369184E+03  0.00000000000E+00 0.  1.
         22    1    3    3    0    0 -0.31031730729E+02  0.10951235819E+03 -0.24251322193E+03  0.26789659893E+03  0.00000000000E+00 0.  1.
</event>
<event>
 7    1  0.6510186E-006  0.6469625E+02  0.7818608E-02  0.1480036E+00
          2   -1    0    0  502    0  0.00000000000E+00  0.00000000000E+00  0.48806423976E+03  0.48806423976E+03  0.00000000000E+00 0. -1.
          1   -1    0    0  501    0 -0.00000000000E+00 -0.00000000000E+00 -0.14731305808E+03  0.14731305808E+03  0.00000000000E+00 0. -1.
         25    2    1    2    0    0 -0.55393698885E+02 -0.78949242753E-01  0.17171545025E+03  0.21949990352E+03  0.12500217471E+03 0.  0.
          2    1    1    2  501    0 -0.47360112706E+01  0.29685890799E+02 -0.11766617617E+03  0.12144550601E+03  0.00000000000E+00 0. -1.
          1    1    1    2  502    0  0.60129710155E+02 -0.29606941556E+02  0.28670190760E+03  0.29443188831E+03  0.00000000000E+00 0. -1.
         22    1    3    3    0    0 -0.22393447239E+02  0.62272804450E+02  0.83853729185E+02  0.10682142365E+03  0.00000000000E+00 0. -1.
         22    1    3    3    0    0 -0.33000251646E+02 -0.62351753693E+02  0.87861721065E+02  0.11267847987E+03  0.00000000000E+00 0. -1.
</event>
<event>
 7    1  0.6510186E-006  0.1032586E+03  0.7818608E-02  0.1304684E+00
          2   -1    0    0  502    0  0.00000000000E+00  0.00000000000E+00  0.80281170416E+03  0.80281170416E+03  0.00000000000E+00 0. -1.
          1   -1    0    0  501    0 -0.00000000000E+00 -0.00000000000E+00 -0.82432883859E+03  0.82432883859E+03  0.00000000000E+00 0. -1.
         25    2    1    2    0    0 -0.11595578299E+03 -0.10612568163E+03 -0.45041537169E+03  0.49316052384E+03  0.12499956524E+03 0.  0.
          2    1    1    2  501    0  0.82321027147E+02  0.36707416265E+02 -0.34483039589E+03  0.35641575140E+03  0.00000000000E+00 0. -1.
          1    1    1    2  502    0  0.33634755848E+02  0.69418265364E+02  0.77372863314E+03  0.77756426751E+03  0.00000000000E+00 0. -1.
         22    1    3    3    0    0 -0.13300298983E+03 -0.70014358726E+02 -0.40846923185E+03  0.43524581457E+03  0.00000000000E+00 0.  1.
         22    1    3    3    0    0  0.17047206833E+02 -0.36111322904E+02 -0.41946139839E+02  0.57914709272E+02  0.00000000000E+00 0.  1.
</event>
<event>
 7    1  0.6510186E-006  0.3976355E+02  0.7818608E-02  0.1518544E+00
          2   -1    0    0  502    0  0.00000000000E+00  0.00000000000E+00  0.48842110847E+02  0.48842110847E+02  0.00000000000E+00 0. -1.
          1   -1    0    0  501    0 -0.00000000000E+00 -0.00000000000E+00 -0.26115311877E+03  0.26115311877E+03  0.00000000000E+00 0. -1.
         25    2    1    2    0    0 -0.24392557487E+01  0.17313853204E+02 -0.14998906220E+03  0.19603270139E+03  0.12500552689E+03 0.  0.
          2    1    1    2  501    0  0.35130403871E+02 -0.35743644070E+02 -0.57258977900E+02  0.76094309365E+02  0.00000000000E+00 0. -1.
          1    1    1    2  502    0 -0.32691148122E+02  0.18429790866E+02 -0.50629678259E+01  0.37868218867E+02  0.00000000000E+00 0. -1.
         22    1    3    3    0    0  0.47388414250E+02  0.38633125360E+02 -0.11852259023E+03  0.13336335544E+03  0.00000000000E+00 0.  1.
         22    1    3    3    0    0 -0.49827669998E+02 -0.21319272157E+02 -0.31466471965E+02  0.62669345941E+02  0.00000000000E+00 0.  1.
</event>
<event>
 7    1  0.6510186E-006  0.7778725E+02  0.7818608E-02  0.1473892E+00
          2   -1    0    0  502    0  0.00000000000E+00  0.00000000000E+00  0.10964310183E+03  0.10964310183E+03  0.00000000000E+00 0. -1.
          1   -1    0    0  501    0 -0.00000000000E+00 -0.00000000000E+00 -0.62282461219E+03  0.62282461219E+03  0.00000000000E+00 0. -1.
         25    2    1    2    0    0 -0.88641355025E+02 -0.27303761973E+02 -0.32261494453E+03  0.35820231993E+03  0.12500285728E+03 0.  0.
          2    1    1    2  501    0  0.64329193312E+02  0.36841273776E+02 -0.27555620887E+03  0.28535372577E+03  0.00000000000E+00 0. -1.
          1    1    1    2  502    0  0.24312161713E+02 -0.95375118024E+01  0.84989643042E+02  0.88911668317E+02  0.00000000000E+00 0. -1.
         22    1    3    3    0    0 -0.88535412880E+01  0.26518572657E+02 -0.78304742661E+01  0.29033363848E+02  0.00000000000E+00 0.  1.
         22    1    3    3    0    0 -0.79787813737E+02 -0.53822334630E+02 -0.31478447026E+03  0.32916895608E+03  0.00000000000E+00 0.  1.
</event>
<event>
 7    1  0.6510186E-006  0.7984740E+02  0.7818608E-02  0.1337380E+00
          2   -1    0    0  502    0  0.00000000000E+00  0.00000000000E+00  0.28128734535E+04  0.28128734535E+04  0.00000000000E+00 0. -1.
          1   -1    0    0  501    0 -0.00000000000E+00 -0.00000000000E+00 -0.32556023329E+03  0.32556023329E+03  0.00000000000E+00 0. -1.
         25    2    1    2    0    0  0.85339081665E+01  0.67865203524E+02  0.31055535508E+03  0.34168374947E+03  0.12499857058E+03 0.  0.
          2    1    1    2  501    0  0.66060868984E+02 -0.34479252761E+02 -0.30483545773E+03  0.31381127063E+03  0.00000000000E+00 0. -1.
          1    1    1    2  502    0 -0.74594777150E+02 -0.33385950763E+02  0.24815933229E+04  0.24829386667E+04  0.00000000000E+00 0. -1.
         22    1    3    3    0    0 -0.23201788615E+02  0.91447639724E+02  0.26537028622E+03  0.28164229550E+03  0.00000000000E+00 0.  1.
         22    1    3    3    0    0  0.31735696781E+02 -0.23582436200E+02  0.45185068862E+02  0.60041453975E+02  0.00000000000E+00 0.  1.
</event>
<event>
 7    1  0.6510186E-006  0.7249722E+02  0.7818608E-02  0.1414615E+00
          2   -1    0    0  502    0  0.00000000000E+00  0.00000000000E+00  0.14297296494E+04  0.14297296494E+04  0.00000000000E+00 0. -1.
          1   -1    0    0  501    0 -0.00000000000E+00 -0.00000000000E+00 -0.77171355032E+03  0.77171355032E+03  0.00000000000E+00 0. -1.
         25    2    1    2    0    0  0.85589515684E+02  0.73722139662E+02  0.30867598617E+03  0.35166163046E+03  0.12499807530E+03 0.  0.
          2    1    1    2  501    0 -0.62038742869E+02 -0.37113097691E+02 -0.74804666988E+03  0.75153177441E+03  0.00000000000E+00 0. -1.
          1    1    1    2  502    0 -0.23550772815E+02 -0.36609041972E+02  0.10973867828E+04  0.10982497949E+04  0.00000000000E+00 0. -1.
         22    1    3    3    0    0  0.17867410059E+02 -0.11184316218E+02  0.18852487340E+03  0.18969966042E+03  0.00000000000E+00 0.  1.
         22    1    3    3    0    0  0.67722105625E+02  0.84906455881E+02  0.12015111277E+03  0.16196197004E+03  0.00000000000E+00 0.  1.
</event>
<event>
 7    1  0.6510186E-006  0.1260132E+03  0.7818608E-02  0.1308798E+00
          2   -1    0    0  502    0  0.00000000000E+00  0.00000000000E+00  0.44898107421E+03  0.44898107421E+03  0.00000000000E+00 0. -1.
          1   -1    0    0  501    0 -0.00000000000E+00 -0.00000000000E+00 -0.85157014041E+03  0.85157014041E+03  0.00000000000E+00 0. -1.
         25    2    1    2    0    0  0.99520943761E+02  0.10575550603E+02 -0.27641290735E+03  0.31944562635E+03  0.12500060930E+03 0.  0.
          2    1    1    2  501    0 -0.13314582268E+03  0.40177642712E+02 -0.54265866026E+03  0.56019681775E+03  0.00000000000E+00 0. -1.
          1    1    1    2  502    0  0.33624878920E+02 -0.50753193316E+02  0.41648250141E+03  0.42090877052E+03  0.00000000000E+00 0. -1.
         22    1    3    3    0    0  0.63390501180E+02 -0.55866148370E+02 -0.14704270416E+03  0.16959050392E+03  0.00000000000E+00 0.  1.
         22    1    3    3    0    0  0.36130442580E+02  0.66441698973E+02 -0.12937020319E+03  0.14985512243E+03  0.00000000000E+00 0.  1.
</event>
<event>
 7    1  0.6510186E-006  0.8385958E+02  0.7818608E-02  0.1364565E+00
          2   -1    0    0  502    0  0.00000000000E+00  0.00000000000E+00  0.11104585219E+04  0.11104585219E+04  0.00000000000E+00 0. -1.
          1   -1    0    0  501    0 -0.00000000000E+00 -0.00000000000E+00 -0.37815093078E+03  0.37815093078E+03  0.00000000000E+00 0. -1.
         25    2    1    2    0    0 -0.61881328363E+02  0.86794118991E+02 -0.79894487518E+02  0.18264897055E+03  0.12495999127E+03 0.  0.
          2    1    1    2  501    0  0.56191319855E+02 -0.32187609644E+01 -0.24198809082E+03  0.24844730015E+03  0.00000000000E+00 0. -1.
          1    1    1    2  502    0  0.56900085082E+01 -0.83575358027E+02  0.10541901695E+04  0.10575131820E+04  0.00000000000E+00 0. -1.
         22    1    3    3    0    0 -0.37009914187E+02  0.63459293386E+02 -0.11322039777E+03  0.13496545534E+03  0.00000000000E+00 0.  1.
         22    1    3    3    0    0 -0.24871414176E+02  0.23334825605E+02  0.33325910248E+02  0.47683515212E+02  0.00000000000E+00 0.  1.
</event>
<event>
 7    1  0.6510186E-006  0.9337704E+02  0.7818608E-02  0.1324540E+00
          2   -1    0    0  502    0  0.00000000000E+00  0.00000000000E+00  0.29496940237E+03  0.29496940237E+03  0.00000000000E+00 0. -1.
          1   -1    0    0  501    0 -0.00000000000E+00 -0.00000000000E+00 -0.23008064625E+03  0.23008064625E+03  0.00000000000E+00 0. -1.
         25    2    1    2    0    0 -0.46732900383E+02  0.10179137203E+03 -0.42975477326E+02  0.17325793288E+03  0.12500388896E+03 0.  0.
          2    1    1    2  501    0  0.84086013371E+02 -0.41026078209E+02 -0.97058351807E+02  0.13481068353E+03  0.00000000000E+00 0. -1.
          1    1    1    2  502    0 -0.37353112988E+02 -0.60765293823E+02  0.20492258525E+03  0.21698143222E+03  0.00000000000E+00 0. -1.
         22    1    3    3    0    0 -0.28487901321E+02  0.11400501038E+03 -0.71277660874E+02  0.13743801459E+03  0.00000000000E+00 0.  1.
         22    1    3    3    0    0 -0.18244999062E+02 -0.12213638353E+02  0.28302183548E+02  0.35819918288E+02  0.00000000000E+00 0.  1.
</event>
<event>
 7    1  0.6510186E-006  0.8096813E+02  0.7818608E-02  0.1368234E+00
          2   -1    0    0  502    0  0.00000000000E+00  0.00000000000E+00  0.19221653437E+04  0.19221653437E+04  0.00000000000E+00 0. -1.
          1   -1    0    0  501    0 -0.00000000000E+00 -0.00000000000E+00 -0.41736344929E+03  0.41736344929E+03  0.00000000000E+00 0. -1.
         25    2    1    2    0    0  0.11033729907E+03  0.50169748868E+02  0.15548741152E+03  0.23343649729E+03  0.12499975943E+03 0.  0.
          2    1    1    2  501    0 -0.80254382749E+02 -0.22967522632E+01 -0.37366108303E+03  0.38218928032E+03  0.00000000000E+00 0. -1.
          1    1    1    2  502    0 -0.30082916326E+02 -0.47872996605E+02  0.17229755660E+04  0.17239030154E+04  0.00000000000E+00 0. -1.
         22    1    3    3    0    0  0.90477838660E+02 -0.12987184418E+02  0.38849468609E+02  0.99318615873E+02  0.00000000000E+00 0.  1.
         22    1    3    3    0    0  0.19859460415E+02  0.63156933286E+02  0.11663794291E+03  0.13411788142E+03  0.00000000000E+00 0.  1.
</event>
<event>
 7    1  0.6510186E-006  0.3174984E+02  0.7818608E-02  0.1612210E+00
          2   -1    0    0  502    0  0.00000000000E+00  0.00000000000E+00  0.11439638531E+03  0.11439638531E+03  0.00000000000E+00 0. -1.
          1   -1    0    0  501    0 -0.00000000000E+00 -0.00000000000E+00 -0.16504613417E+04  0.16504613417E+04  0.00000000000E+00 0. -1.
         25    2    1    2    0    0  0.29246113732E+02  0.98509729531E+01 -0.18831552541E+03  0.22812654240E+03  0.12500642143E+03 0.  0.
          2    1    1    2  501    0 -0.17108934565E+02  0.19647076547E+02 -0.14394271584E+04  0.14396629007E+04  0.00000000000E+00 0. -1.
          1    1    1    2  502    0 -0.12137179167E+02 -0.29498049500E+02  0.91677727416E+02  0.97068283938E+02  0.00000000000E+00 0. -1.
         22    1    3    3    0    0  0.11643026526E+02 -0.15432453808E+02  0.13751856168E+02  0.23724127914E+02  0.00000000000E+00 0.  1.
         22    1    3    3    0    0  0.17603087206E+02  0.25283426761E+02 -0.20206738158E+03  0.20440241448E+03  0.00000000000E+00 0.  1.
</event>
<event>
 7    1  0.6510186E-006  0.6543283E+02  0.7818608E-02  0.1409976E+00
          2   -1    0    0  502    0  0.00000000000E+00  0.00000000000E+00  0.75938537789E+03  0.75938537789E+03  0.00000000000E+00 0. -1.
          1   -1    0    0  501    0 -0.00000000000E+00 -0.00000000000E+00 -0.54286508827E+02  0.54286508827E+02  0.00000000000E+00 0. -1.
         25    2    1    2    0    0 -0.25029859819E+02  0.82003744846E+02  0.13851517195E+03  0.20533517021E+03  0.12499988485E+03 0.  0.
          2    1    1    2  501    0 -0.19714704303E+02 -0.59685654541E+02  0.30392982287E+02  0.69819626869E+02  0.00000000000E+00 0. -1.
          1    1    1    2  502    0  0.44744564123E+02 -0.22318090305E+02  0.53619071482E+03  0.53851708964E+03  0.00000000000E+00 0. -1.
         22    1    3    3    0    0  0.39753048983E+02  0.56560256904E+02  0.27700373077E+02  0.74476024552E+02  0.00000000000E+00 0. -1.
         22    1    3    3    0    0 -0.64782908803E+02  0.25443487943E+02  0.11081479888E+03  0.13085914566E+03  0.00000000000E+00 0. -1.
</event>
<event>
 7    1  0.6510186E-006  0.7040193E+02  0.7818608E-02  0.1432259E+00
          2   -1    0    0  502    0  0.00000000000E+00  0.00000000000E+00  0.22107311293E+04  0.22107311293E+04  0.00000000000E+00 0. -1.
          1   -1    0    0  501    0 -0.00000000000E+00 -0.00000000000E+00 -0.21466159101E+03  0.21466159101E+03  0.00000000000E+00 0. -1.
         25    2    1    2    0    0 -0.10256472562E+03 -0.21721976204E+02  0.93020782255E+03  0.94440666055E+03  0.12500392062E+03 0.  0.
          2    1    1    2  501    0  0.39060544469E+02  0.28451083751E+01 -0.20484410251E+03  0.20855437447E+03  0.00000000000E+00 0. -1.
          1    1    1    2  502    0  0.63504181153E+02  0.18876867829E+02  0.12707058182E+04  0.12724316853E+04  0.00000000000E+00 0. -1.
         22    1    3    3    0    0 -0.14669737216E+02 -0.63019487765E+02  0.31448311770E+03  0.32107053485E+03  0.00000000000E+00 0. -1.
         22    1    3    3    0    0 -0.87894988407E+02  0.41297511561E+02  0.61572470484E+03  0.62333612570E+03  0.00000000000E+00 0. -1.
</event>
<event>
 7    1  0.6510186E-006  0.6233471E+02  0.7818608E-02  0.1453290E+00
          2   -1    0    0  502    0  0.00000000000E+00  0.00000000000E+00  0.17559857788E+04  0.17559857788E+04  0.00000000000E+00 0. -1.
          1   -1    0    0  501    0 -0.00000000000E+00 -0.00000000000E+00 -0.24404961930E+04  0.24404961930E+04  0.00000000000E+00 0. -1.
         25    2    1    2    0    0 -0.49516203326E+02  0.34450140053E+02 -0.59184801196E+02  0.15088579150E+03  0.12500005937E+03 0.  0.
          2    1    1    2  501    0  0.28865020343E+02  0.24441257059E+02 -0.23347383223E+04  0.23350446672E+04  0.00000000000E+00 0. -1.
          1    1    1    2  502    0  0.20651182983E+02 -0.58891397112E+02  0.17094127093E+04  0.17105515130E+04  0.00000000000E+00 0. -1.
         22    1    3    3    0    0 -0.75533019417E+02 -0.71456532154E+01 -0.66983070808E+02  0.10120785126E+03  0.00000000000E+00 0.  1.
         22    1    3    3    0    0  0.26016816091E+02  0.41595793268E+02  0.77982696112E+01  0.49677940236E+02  0.00000000000E+00 0.  1.
</event>
<event>
 7    1  0.6510186E-006  0.3362644E+02  0.7818608E-02  0.1564429E+00
          2   -1    0    0  502    0  0.00000000000E+00  0.00000000000E+00  0.98590330876E+01  0.98590330876E+01  0.00000000000E+00 0. -1.
          1   -1    0    0  501    0 -0.00000000000E+00 -0.00000000000E+00 -0.12408601550E+04  0.12408601550E+04  0.00000000000E+00 0. -1.
         25    2    1    2    0    0 -0.16642532644E+02 -0.98284507048E+00 -0.71706015042E+03  0.72806446740E+03  0.12499867795E+03 0.  0.
          2    1    1    2  501    0  0.16349262746E+02 -0.32642318581E+02 -0.43899861454E+03  0.44051402126E+03  0.00000000000E+00 0. -1.
          1    1    1    2  502    0  0.29326989831E+00  0.33625163652E+02 -0.74942356940E+02  0.82140699422E+02  0.00000000000E+00 0. -1.
         22    1    3    3    0    0 -0.24725776236E+02 -0.28448567986E+02 -0.68089898548E+03  0.68194142964E+03  0.00000000000E+00 0. -1.
         22    1    3    3    0    0  0.80832435916E+01  0.27465722915E+02 -0.36161164940E+02  0.46123037758E+02  0.00000000000E+00 0. -1.
</event>
<event>
 7    1  0.6510186E-006  0.1299198E+03  0.7818608E-02  0.1294921E+00
          2   -1    0    0  502    0  0.00000000000E+00  0.00000000000E+00  0.26480334415E+03  0.26480334415E+03  0.00000000000E+00 0. -1.
          1   -1    0    0  501    0 -0.00000000000E+00 -0.00000000000E+00 -0.18616857585E+04  0.18616857585E+04  0.00000000000E+00 0. -1.
         25    2    1    2    0    0  0.83585877704E+02  0.16582421352E+03 -0.71983271405E+03  0.75383642063E+03  0.12500377638E+03 0.  0.
          2    1    1    2  501    0 -0.61567958106E+02 -0.10245736161E+03 -0.11170633416E+04  0.11234405340E+04  0.00000000000E+00 0. -1.
          1    1    1    2  502    0 -0.22017919597E+02 -0.63366851910E+02  0.24001364128E+03  0.24921214799E+03  0.00000000000E+00 0. -1.
         22    1    3    3    0    0 -0.80868313178E+00  0.39245503035E+01  0.49746018861E+01  0.63877012624E+01  0.00000000000E+00 0. -1.
         22    1    3    3    0    0  0.84394560835E+02  0.16189966322E+03 -0.72480731594E+03  0.74744871937E+03  0.00000000000E+00 0. -1.
</event>
<event>
 7    1  0.6510186E-006  0.1829990E+03  0.7818608E-02  0.1305848E+00
          2   -1    0    0  502    0  0.00000000000E+00  0.00000000000E+00  0.13121778613E+04  0.13121778613E+04  0.00000000000E+00 0. -1.
          1   -1    0    0  501    0 -0.00000000000E+00 -0.00000000000E+00 -0.23902738994E+03  0.23902738994E+03  0.00000000000E+00 0. -1.
         25    2    1    2    0    0 -0.49518475601E+02 -0.16853123394E+03  0.33894565531E+03  0.40170212008E+03  0.12500231912E+03 0.  0.
          2    1    1    2  501    0  0.93505134948E+01  0.18405868977E+03 -0.16614055467E+03  0.24812842902E+03  0.00000000000E+00 0. -1.
          1    1    1    2  502    0  0.40167962106E+02 -0.15527455834E+02  0.90034537072E+03  0.90137470213E+03  0.00000000000E+00 0. -1.
         22    1    3    3    0    0 -0.57017898891E+01 -0.11868467803E+03  0.30464097427E+03  0.32699340424E+03  0.00000000000E+00 0. -1.
         22    1    3    3    0    0 -0.43816685711E+02 -0.49846555901E+02  0.34304681039E+02  0.74708715844E+02  0.00000000000E+00 0. -1.
</event>
<event>
 7    1  0.6510186E-006  0.5635532E+02  0.7818608E-02  0.1534276E+00
          2   -1    0    0  502    0  0.00000000000E+00  0.00000000000E+00  0.17554254465E+04  0.17554254465E+04  0.00000000000E+00 0. -1.
          1   -1    0    0  501    0 -0.00000000000E+00 -0.00000000000E+00 -0.41064363890E+03  0.41064363890E+03  0.00000000000E+00 0. -1.
         25    2    1    2    0    0 -0.40743370635E+02  0.37403698141E+01  0.96016369182E+03  0.96913203166E+03  0.12501426752E+03 0.  0.
          2    1    1    2  501    0  0.54058866479E+02  0.16055014964E+02 -0.40402077990E+03  0.40793739121E+03  0.00000000000E+00 0. -1.
          1    1    1    2  502    0 -0.13315495845E+02 -0.19795384778E+02  0.78863889567E+03  0.78899966252E+03  0.00000000000E+00 0. -1.
         22    1    3    3    0    0 -0.55204126451E+02 -0.45152655977E+02  0.37286272980E+03  0.37962201358E+03  0.00000000000E+00 0.  1.
         22    1    3    3    0    0  0.14460755816E+02  0.48893025791E+02  0.58730096202E+03  0.58951001809E+03  0.00000000000E+00 0.  1.
</event>
<event>
 7    1  0.6510186E-006  0.1309163E+03  0.7818608E-02  0.1336263E+00
          2   -1    0    0  502    0  0.00000000000E+00  0.00000000000E+00  0.66210589807E+02  0.66210589807E+02  0.00000000000E+00 0. -1.
          1   -1    0    0  501    0 -0.00000000000E+00 -0.00000000000E+00 -0.52335452860E+03  0.52335452860E+03  0.00000000000E+00 0. -1.
         25    2    1    2    0    0 -0.99107430164E+02  0.12264845247E+03 -0.25030575737E+03  0.32115907950E+03  0.12500102626E+03 0.  0.
          2    1    1    2  501    0  0.88947591751E+02 -0.77894123002E+02 -0.17964462721E+03  0.21506129490E+03  0.00000000000E+00 0. -1.
          1    1    1    2  502    0  0.10159838413E+02 -0.44754329467E+02 -0.27193554208E+02  0.53344744007E+02  0.00000000000E+00 0. -1.
         22    1    3    3    0    0 -0.23691997661E+02 -0.19798522109E+02 -0.11287744290E+02  0.32874084048E+02  0.00000000000E+00 0. -1.
         22    1    3    3    0    0 -0.75415432503E+02  0.14244697458E+03 -0.23901801308E+03  0.28828499545E+03  0.00000000000E+00 0. -1.
</event>
<event>
 7    1  0.6510186E-006  0.1013134E+03  0.7818608E-02  0.1325836E+00
          2   -1    0    0  502    0  0.00000000000E+00  0.00000000000E+00  0.16654094547E+04  0.16654094547E+04  0.00000000000E+00 0. -1.
          1   -1    0    0  501    0 -0.00000000000E+00 -0.00000000000E+00 -0.37147802961E+03  0.37147802961E+03  0.00000000000E+00 0. -1.
         25    2    1    2    0    0 -0.95469960354E+02 -0.11071880351E+03 -0.34747765147E+02  0.19546255753E+03  0.12500014973E+03 0.  0.
          2    1    1    2  501    0  0.33506423997E+02  0.91117344278E+02 -0.24648794711E+03  0.26491764559E+03  0.00000000000E+00 0. -1.
          1    1    1    2  502    0  0.61963536357E+02  0.19601459235E+02  0.15751671374E+04  0.15765072812E+04  0.00000000000E+00 0. -1.
         22    1    3    3    0    0 -0.11668810815E+03 -0.69937463834E+02  0.28546850768E+01  0.13607171881E+03  0.00000000000E+00 0. -1.
         22    1    3    3    0    0  0.21218147799E+02 -0.40781339678E+02 -0.37602450224E+02  0.59390838728E+02  0.00000000000E+00 0. -1.
</event>
<event>
 7    1  0.6510186E-006  0.6968842E+02  0.7818608E-02  0.1374635E+00
          2   -1    0    0  502    0  0.00000000000E+00  0.00000000000E+00  0.10446901780E+03  0.10446901780E+03  0.00000000000E+00 0. -1.
          1   -1    0    0  501    0 -0.00000000000E+00 -0.00000000000E+00 -0.89162180503E+03  0.89162180503E+03  0.00000000000E+00 0. -1.
         25    2    1    2    0    0 -0.98146838096E+02  0.77600177674E+02 -0.16837789357E+03  0.24419274139E+03  0.12499756199E+03 0.  0.
          2    1    1    2  501    0  0.55814307830E+02 -0.27696863249E+02 -0.66744271265E+03  0.67034478283E+03  0.00000000000E+00 0. -1.
          1    1    1    2  502    0  0.42332530266E+02 -0.49903314425E+02  0.48667818988E+02  0.81553298612E+02  0.00000000000E+00 0. -1.
         22    1    3    3    0    0 -0.55161691379E+02  0.10944580963E+03 -0.10622926713E+03  0.16219079702E+03  0.00000000000E+00 0. -1.
         22    1    3    3    0    0 -0.42985146717E+02 -0.31845631961E+02 -0.62148626443E+02  0.82001944379E+02  0.00000000000E+00 0. -1.
</event>
<event>
 7    1  0.6510186E-006  0.5958006E+02  0.7818608E-02  0.1444054E+00
          2   -1    0    0  502    0  0.00000000000E+00  0.00000000000E+00  0.12390472354E+04  0.12390472354E+04  0.00000000000E+00 0. -1.
          1   -1    0    0  501    0 -0.00000000000E+00 -0.00000000000E+00 -0.82971287850E+02  0.82971287850E+02  0.00000000000E+00 0. -1.
         25    2    1    2    0    0  0.88951706531E+02  0.33513594166E+02  0.66211436848E+02  0.17042494559E+03  0.12500056249E+03 0.  0.
          2    1    1    2  501    0 -0.49859742827E+02 -0.17189719064E+02 -0.76238273831E+01  0.53287926778E+02  0.00000000000E+00 0. -1.
          1    1    1    2  502    0 -0.39091963704E+02 -0.16323875102E+02  0.10974883381E+04  0.10983056509E+04  0.00000000000E+00 0. -1.
         22    1    3    3    0    0  0.51097742576E+02 -0.35730852790E+02 -0.70456674730E+01  0.62748024412E+02  0.00000000000E+00 0.  1.
         22    1    3    3    0    0  0.37853963955E+02  0.69244446956E+02  0.73257104321E+02  0.10767692118E+03  0.00000000000E+00 0.  1.
</event>
<event>
 7    1  0.6510186E-006  0.1775187E+03  0.7818608E-02  0.1190649E+00
          2   -1    0    0  502    0  0.00000000000E+00  0.00000000000E+00  0.19739660618E+03  0.19739660618E+03  0.00000000000E+00 0. -1.
          1   -1    0    0  501    0 -0.00000000000E+00 -0.00000000000E+00 -0.15917155527E+04  0.15917155527E+04  0.00000000000E+00 0. -1.
         25    2    1    2    0    0 -0.94764813575E+02 -0.79536119730E+02 -0.20838661053E+03  0.27268026928E+03  0.12499274209E+03 0.  0.
          2    1    1    2  501    0 -0.10387735471E+03  0.95539465603E+02 -0.12858004943E+04  0.12935227889E+04  0.00000000000E+00 0. -1.
          1    1    1    2  502    0  0.19864216828E+03 -0.16003345873E+02  0.99868158348E+02  0.22290910065E+03  0.00000000000E+00 0. -1.
         22    1    3    3    0    0 -0.12161193364E+02  0.31489403100E+02 -0.21075479408E+02  0.39795137440E+02  0.00000000000E+00 0.  1.
         22    1    3    3    0    0 -0.82603620211E+02 -0.11102552283E+03 -0.18731113112E+03  0.23288513184E+03  0.00000000000E+00 0.  1.
</event>
<event>
 7    1  0.6510186E-006  0.4106783E+03  0.7818608E-02  0.1153739E+00
          2   -1    0    0  502    0  0.00000000000E+00  0.00000000000E+00  0.16248554700E+04  0.16248554700E+04  0.00000000000E+00 0. -1.
          1   -1    0    0  501    0 -0.00000000000E+00 -0.00000000000E+00 -0.21993895753E+04  0.21993895753E+04  0.00000000000E+00 0. -1.
         25    2    1    2    0    0 -0.36949520860E+03 -0.30495897648E+03 -0.72408043310E+03  0.87717864853E+03  0.12499288507E+03 0.  0.
          2    1    1    2  501    0  0.30429526320E+03  0.23877414276E+03 -0.13705751614E+04  0.14241084830E+04  0.00000000000E+00 0. -1.
          1    1    1    2  502    0  0.65199945403E+02  0.66184833719E+02  0.15201214892E+04  0.15229579138E+04  0.00000000000E+00 0. -1.
         22    1    3    3    0    0 -0.27783317672E+03 -0.15763936274E+03 -0.42900059486E+03  0.53486722947E+03  0.00000000000E+00 0. -1.
         22    1    3    3    0    0 -0.91662031881E+02 -0.14731961374E+03 -0.29507983823E+03  0.34231141905E+03  0.00000000000E+00 0. -1.
</event>
<event>
 7    1  0.6510186E-006  0.5509542E+02  0.7818608E-02  0.1439771E+00
          2   -1    0    0  502    0  0.00000000000E+00  0.00000000000E+00  0.11241322900E+03  0.11241322900E+03  0.00000000000E+00 0. -1.
          1   -1    0    0  501    0 -0.00000000000E+00 -0.00000000000E+00 -0.31991517495E+03  0.31991517495E+03  0.00000000000E+00 0. -1.
         25    2    1    2    0    0  0.39199811874E+02  0.13053805272E+02 -0.49402577262E+02  0.14061198522E+03  0.12499635460E+03 0.  0.
          2    1    1    2  501    0 -0.46802509781E+02  0.33628703186E+02 -0.21218200543E+03  0.21986943405E+03  0.00000000000E+00 0. -1.
          1    1    1    2  502    0  0.76026979071E+01 -0.46682508458E+02  0.54082636740E+02  0.71846984684E+02  0.00000000000E+00 0. -1.
         22    1    3    3    0    0  0.81962647914E+02  0.19351254406E+02 -0.48902985544E+02  0.97385053757E+02  0.00000000000E+00 0.  1.
         22    1    3    3    0    0 -0.42762836040E+02 -0.62974491339E+01 -0.49959171864E+00  0.43226931463E+02  0.00000000000E+00 0.  1.
</event>
<event>
 7    1  0.6510186E-006  0.1795904E+03  0.7818608E-02  0.1284922E+00
          2   -1    0    0  502    0  0.00000000000E+00  0.00000000000E+00  0.46501905603E+03  0.46501905603E+03  0.00000000000E+00 0. -1.
          1   -1    0    0  501    0 -0.00000000000E+00 -0.00000000000E+00 -0.67936786460E+03  0.67936786460E+03  0.00000000000E+00 0. -1.
         25    2    1    2    0    0 -0.16623638542E+03  0.34699347556E+02 -0.37413950949E+03  0.42946783492E+03  0.12499467232E+03 0.  0.
          2    1    1    2  501    0  0.84006790931E+01  0.52627932960E+02 -0.25610420034E+03  0.26159058120E+03  0.00000000000E+00 0. -1.
          1    1    1    2  502    0  0.15783570633E+03 -0.87327280516E+02  0.41589490126E+03  0.45332850452E+03  0.00000000000E+00 0. -1.
         22    1    3    3    0    0 -0.13518883589E+03  0.75408556299E+02 -0.23691712894E+03  0.28300564958E+03  0.00000000000E+00 0. -1.
         22    1    3    3    0    0 -0.31047549531E+02 -0.40709208743E+02 -0.13722238055E+03  0.14646218533E+03  0.00000000000E+00 0. -1.
</event>
<event>
 7    1  0.6510186E-006  0.6630545E+02  0.7818608E-02  0.1393306E+00
          2   -1    0    0  502    0  0.00000000000E+00  0.00000000000E+00  0.95551877705E+03  0.95551877705E+03  0.00000000000E+00 0. -1.
          1   -1    0    0  501    0 -0.00000000000E+00 -0.00000000000E+00 -0.27542077425E+03  0.27542077425E+03  0.00000000000E+00 0. -1.
         25    2    1    2    0    0  0.96236195019E+02 -0.75380180244E+02 -0.15980075967E+03  0.23686376485E+03  0.12499833399E+03 0.  0.
          2    1    1    2  501    0 -0.43797484649E+02  0.35357292662E+02 -0.65450904789E+02  0.86326002708E+02  0.00000000000E+00 0. -1.
          1    1    1    2  502    0 -0.52438710370E+02  0.40022887582E+02  0.90534966727E+03  0.90774978375E+03  0.00000000000E+00 0. -1.
         22    1    3    3    0    0  0.53713085779E+02 -0.52161378903E+02 -0.17140491931E+03  0.18704424983E+03  0.00000000000E+00 0. -1.
         22    1    3    3    0    0  0.42523109240E+02 -0.23218801341E+02  0.11604159635E+02  0.49819515012E+02  0.00000000000E+00 0. -1.
</event>
<event>
 7    1  0.6510186E-006  0.6046528E+02  0.7818608E-02  0.1450509E+00
          2   -1    0    0  502    0  0.00000000000E+00  0.00000000000E+00  0.10937349950E+04  0.10937349950E+04  0.00000000000E+00 0. -1.
          1   -1    0    0  501    0 -0.00000000000E+00 -0.00000000000E+00 -0.11131885280E+04  0.11131885280E+04  0.00000000000E+00 0. -1.
         25    2    1    2    0    0 -0.23396018464E+02 -0.19614437602E+01  0.19229897696E+03  0.23055554505E+03  0.12500296746E+03 0.  0.
          2    1    1    2  501    0 -0.38920452972E+02  0.83069229522E+01 -0.10925857629E+04  0.10933103201E+04  0.00000000000E+00 0. -1.
          1    1    1    2  502    0  0.62316471436E+02 -0.63454791920E+01  0.88083325291E+03  0.88305765789E+03  0.00000000000E+00 0. -1.
         22    1    3    3    0    0 -0.55404008480E+02  0.80716847791E+01  0.27500926394E+02  0.62378339217E+02  0.00000000000E+00 0.  1.
         22    1    3    3    0    0  0.32007990017E+02 -0.10033128539E+02  0.16479805056E+03  0.16817720584E+03  0.00000000000E+00 0.  1.
</event>
<event>
 7    1  0.6510186E-006  0.1216150E+03  0.7818608E-02  0.1256086E+00
          2   -1    0    0  502    0  0.00000000000E+00  0.00000000000E+00  0.30986892597E+04  0.30986892597E+04  0.00000000000E+00 0. -1.
          1   -1    0    0  501    0 -0.00000000000E+00 -0.00000000000E+00 -0.88909790468E+03  0.88909790468E+03  0.00000000000E+00 0. -1.
         25    2    1    2    0    0 -0.25781044374E+02 -0.11928700992E+03  0.35750380811E+02  0.17831807738E+03  0.12500077603E+03 0.  0.
          2    1    1    2  501    0 -0.75871517976E+02  0.97368555147E+02 -0.81224595185E+03  0.82157203523E+03  0.00000000000E+00 0. -1.
          1    1    1    2  502    0  0.10165256235E+03  0.21918454769E+02  0.29860869261E+04  0.29878970518E+04  0.00000000000E+00 0. -1.
         22    1    3    3    0    0 -0.60371603649E+02 -0.73423050860E+02 -0.21238516603E+02  0.97399946161E+02  0.00000000000E+00 0. -1.
         22    1    3    3    0    0  0.34590559275E+02 -0.45863959056E+02  0.56988897414E+02  0.80918131217E+02  0.00000000000E+00 0. -1.
</event>
<event>
 7    1  0.6510186E-006  0.5009840E+02  0.7818608E-02  0.1486211E+00
          2   -1    0    0  502    0  0.00000000000E+00  0.00000000000E+00  0.18294336247E+03  0.18294336247E+03  0.00000000000E+00 0. -1.
          1   -1    0    0  501    0 -0.00000000000E+00 -0.00000000000E+00 -0.63853278098E+03  0.63853278098E+03  0.00000000000E+00 0. -1.
         25    2    1    2    0    0 -0.72604168218E+02  0.77745922740E+01 -0.79323625631E+02  0.16507377255E+03  0.12500121309E+03 0.  0.
          2    1    1    2  501    0  0.46168230851E+02  0.18356076875E+02 -0.51264572174E+03  0.51504765519E+03  0.00000000000E+00 0. -1.
          1    1    1    2  502    0  0.26435937367E+02 -0.26130669149E+02  0.13637992887E+03  0.14135471571E+03  0.00000000000E+00 0. -1.
         22    1    3    3    0    0 -0.98634918121E+02 -0.26112364727E+02 -0.55511625377E+02  0.11615611571E+03  0.00000000000E+00 0. -1.
         22    1    3    3    0    0  0.26030749903E+02  0.33886957001E+02 -0.23812000255E+02  0.48917656847E+02  0.00000000000E+00 0. -1.
</event>
<event>
 7    1  0.6510186E-006  0.1475983E+03  0.7818608E-02  0.1213125E+00
          2   -1    0    0  502    0  0.00000000000E+00  0.00000000000E+00  0.35216799249E+03  0.35216799249E+03  0.00000000000E+00 0. -1.
          1   -1    0    0  501    0 -0.00000000000E+00 -0.00000000000E+00 -0.10705619645E+04  0.10705619645E+04  0.00000000000E+00 0. -1.
         25    2    1    2    0    0  0.26938271493E+02  0.22661852632E+02 -0.90962714278E+02  0.15854352689E+03  0.12499041760E+03 0.  0.
          2    1    1    2  501    0  0.11460520168E+03  0.67646137214E+02 -0.91853940007E+03  0.92812983015E+03  0.00000000000E+00 0. -1.
          1    1    1    2  502    0 -0.14154347317E+03 -0.90307989847E+02  0.29110814235E+03  0.33605659995E+03  0.00000000000E+00 0. -1.
         22    1    3    3    0    0 -0.30140215831E+01  0.65795448683E+02 -0.17335070056E+02  0.68107488922E+02  0.00000000000E+00 0.  1.
         22    1    3    3    0    0  0.29952293076E+02 -0.43133596050E+02 -0.73627644222E+02  0.90436037963E+02  0.00000000000E+00 0.  1.
</event>
<event>
 7    1  0.6510186E-006  0.7273794E+02  0.7818608E-02  0.1359155E+00
          2   -1    0    0  502    0  0.00000000000E+00  0.00000000000E+00  0.19907590893E+04  0.19907590893E+04  0.00000000000E+00 0. -1.
          1   -1    0    0  501    0 -0.00000000000E+00 -0.00000000000E+00 -0.15217744555E+03  0.15217744555E+03  0.00000000000E+00 0. -1.
         25    2    1    2    0    0 -0.21392725236E+02  0.25054744283E+02  0.40236824325E+02  0.13538464874E+03  0.12499844870E+03 0.  0.
          2    1    1    2  501    0  0.71968702166E+02  0.27222190656E+02 -0.89657881318E+02  0.11814853972E+03  0.00000000000E+00 0. -1.
          1    1    1    2  502    0 -0.50575976930E+02 -0.52276934940E+02  0.18880027007E+04  0.18894033464E+04  0.00000000000E+00 0. -1.
         22    1    3    3    0    0  0.31631446219E+02  0.34138103604E+02  0.61854082383E+02  0.77407273657E+02  0.00000000000E+00 0.  1.
         22    1    3    3    0    0 -0.53024171455E+02 -0.90833593203E+01 -0.21617258059E+02  0.57977375079E+02  0.00000000000E+00 0.  1.
</event>
<event>
 7    1  0.6510186E-006  0.1381260E+03  0.7818608E-02  0.1346763E+00
          2   -1    0    0  502    0  0.00000000000E+00  0.00000000000E+00  0.19805081360E+04  0.19805081360E+04  0.00000000000E+00 0. -1.
          1   -1    0    0  501    0 -0.00000000000E+00 -0.00000000000E+00 -0.88370096215E+02  0.88370096215E+02  0.00000000000E+00 0. -1.
         25    2    1    2    0    0  0.95415645449E+02 -0.35289412581E+02  0.75879535170E+03  0.77572173381E+03  0.12499733796E+03 0.  0.
          2    1    1    2  501    0 -0.13004441512E+03  0.54753487522E+02 -0.17006009055E+02  0.14212212581E+03  0.00000000000E+00 0. -1.
          1    1    1    2  502    0  0.34628769673E+02 -0.19464074941E+02  0.11503486971E+04  0.11510343726E+04  0.00000000000E+00 0. -1.
         22    1    3    3    0    0 -0.26238282611E+01  0.36829674174E+02  0.12469328744E+03  0.13004508952E+03  0.00000000000E+00 0.  1.
         22    1    3    3    0    0  0.98039473710E+02 -0.72119086756E+02  0.63410206426E+03  0.64567664429E+03  0.00000000000E+00 0.  1.
</event>
<event>
 7    1  0.6510186E-006  0.1665035E+03  0.7818608E-02  0.1285724E+00
          2   -1    0    0  502    0  0.00000000000E+00  0.00000000000E+00  0.20737288760E+04  0.20737288760E+04  0.00000000000E+00 0. -1.
          1   -1    0    0  501    0 -0.00000000000E+00 -0.00000000000E+00 -0.52485642529E+03  0.52485642529E+03  0.00000000000E+00 0. -1.
         25    2    1    2    0    0 -0.11027847396E+03 -0.21096621728E+02 -0.29610831345E+03  0.34045830853E+03  0.12500126914E+03 0.  0.
          2    1    1    2  501    0 -0.56362606602E+02  0.88257577283E+01 -0.19915924682E+03  0.20716911695E+03  0.00000000000E+00 0. -1.
          1    1    1    2  502    0  0.16664108056E+03  0.12270864000E+02  0.20441400110E+04  0.20509578758E+04  0.00000000000E+00 0. -1.
         22    1    3    3    0    0 -0.62573552465E+02  0.48340188246E+02 -0.18361394027E+03  0.19991573807E+03  0.00000000000E+00 0. -1.
         22    1    3    3    0    0 -0.47704921495E+02 -0.69436809974E+02 -0.11249437318E+03  0.14054257046E+03  0.00000000000E+00 0. -1.
</event>
<event>
 7    1  0.6510186E-006  0.9534910E+02  0.7818608E-02  0.1346640E+00
          2   -1    0    0  502    0  0.00000000000E+00  0.00000000000E+00  0.20555698487E+02  0.20555698487E+02  0.00000000000E+00 0. -1.
          1   -1    0    0  501    0 -0.00000000000E+00 -0.00000000000E+00 -0.13652089007E+04  0.13652089007E+04  0.00000000000E+00 0. -1.
         25    2    1    2    0    0 -0.32863180720E+02 -0.71001037007E+02 -0.51554870153E+03  0.53622206867E+03  0.12499002911E+03 0.  0.
          2    1    1    2  501    0 -0.13919158000E+02  0.10461544864E+03 -0.70332047184E+03  0.71119464366E+03  0.00000000000E+00 0. -1.
          1    1    1    2  502    0  0.46782338720E+02 -0.33614411637E+02 -0.12578402880E+03  0.13834788682E+03  0.00000000000E+00 0. -1.
         22    1    3    3    0    0  0.29853698829E+02 -0.12186977333E+02 -0.33168008785E+03  0.33324382429E+03  0.00000000000E+00 0.  1.
         22    1    3    3    0    0 -0.62716879549E+02 -0.58814059675E+02 -0.18386861368E+03  0.20297824438E+03  0.00000000000E+00 0.  1.
</event>
<event>
 7    1  0.6510186E-006  0.1298503E+03  0.7818608E-02  0.1320966E+00
          2   -1    0    0  502    0  0.00000000000E+00  0.00000000000E+00  0.10397035673E+04  0.10397035673E+04  0.00000000000E+00 0. -1.
          1   -1    0    0  501    0 -0.00000000000E+00 -0.00000000000E+00 -0.33794134141E+03  0.33794134141E+03  0.00000000000E+00 0. -1.
         25    2    1    2    0    0  0.13322766724E+03 -0.83064499517E+01  0.43230678638E+02  0.18791627646E+03  0.12500010781E+03 0.  0.
          2    1    1    2  501    0 -0.11676095848E+03  0.58630841664E+02 -0.24871163731E+03  0.28094158744E+03  0.00000000000E+00 0. -1.
          1    1    1    2  502    0 -0.16466708762E+02 -0.50324391712E+02  0.90724318460E+03  0.90878704485E+03  0.00000000000E+00 0. -1.
         22    1    3    3    0    0 -0.56557176838E+01  0.90714940563E+01  0.46698982204E+02  0.47906931501E+02  0.00000000000E+00 0.  1.
         22    1    3    3    0    0  0.13888338493E+03 -0.17377944008E+02 -0.34683035659E+01  0.14000934496E+03  0.00000000000E+00 0.  1.
</event>
<event>
 7    1  0.6510186E-006  0.1009375E+03  0.7818608E-02  0.1389464E+00
          2   -1    0    0  502    0  0.00000000000E+00  0.00000000000E+00  0.78987606893E+03  0.78987606893E+03  0.00000000000E+00 0. -1.
          1   -1    0    0  501    0 -0.00000000000E+00 -0.00000000000E+00 -0.27347883673E+04  0.27347883673E+04  0.00000000000E+00 0. -1.
         25    2    1    2    0    0  0.92255041485E+02  0.86576667079E+02  0.10908498021E+03  0.20863766272E+03  0.12499451763E+03 0.  0.
          2    1    1    2  501    0 -0.88291690055E+02 -0.48650771384E+02 -0.26834886607E+04  0.26853814835E+04  0.00000000000E+00 0. -1.
          1    1    1    2  502    0 -0.39633514301E+01 -0.37925895696E+02  0.62949138207E+03  0.63064529002E+03  0.00000000000E+00 0. -1.
         22    1    3    3    0    0  0.16995608905E+02  0.13464036798E+02 -0.28373116220E+02  0.35709448792E+02  0.00000000000E+00 0.  1.
         22    1    3    3    0    0  0.75259432579E+02  0.73112630282E+02  0.13745809643E+03  0.17292821393E+03  0.00000000000E+00 0.  1.
</event>
<event>
 7    1  0.6510186E-006  0.2550862E+02  0.7818608E-02  0.1669671E+00
          2   -1    0    0  502    0  0.00000000000E+00  0.00000000000E+00  0.58866821870E+02  0.58866821870E+02  0.00000000000E+00 0. -1.
          1   -1    0    0  501    0 -0.00000000000E+00 -0.00000000000E+00 -0.32470769978E+03  0.32470769978E+03  0.00000000000E+00 0. -1.
         25    2    1    2    0    0 -0.86712097963E+01  0.65128523213E+01 -0.57795789531E+02  0.13814209428E+03  0.12500111120E+03 0.  0.
          2    1    1    2  501    0 -0.50530535406E+01 -0.25406950493E+02 -0.21836861839E+03  0.21989974984E+03  0.00000000000E+00 0. -1.
          1    1    1    2  502    0  0.13724263337E+02  0.18894098172E+02  0.10323530008E+02  0.25532677527E+02  0.00000000000E+00 0. -1.
         22    1    3    3    0    0  0.56291475960E+02 -0.14841216066E+00 -0.43877139033E+02  0.71371952626E+02  0.00000000000E+00 0.  1.
         22    1    3    3    0    0 -0.64962685756E+02  0.66612644820E+01 -0.13918650498E+02  0.66770141657E+02  0.00000000000E+00 0.  1.
</event>
<event>
 7    1  0.6510186E-006  0.1463139E+03  0.7818608E-02  0.1336653E+00
          2   -1    0    0  502    0  0.00000000000E+00  0.00000000000E+00  0.14201586716E+04  0.14201586716E+04  0.00000000000E+00 0. -1.
          1   -1    0    0  501    0 -0.00000000000E+00 -0.00000000000E+00 -0.71921200314E+02  0.71921200314E+02  0.00000000000E+00 0. -1.
         25    2    1    2    0    0  0.10653139550E+03  0.11697261898E+03  0.13738784667E+03  0.24398600491E+03  0.12498887294E+03 0.  0.
          2    1    1    2  501    0 -0.10919656888E+03 -0.76135349123E+02  0.22524929151E+03  0.26164427257E+03  0.00000000000E+00 0. -1.
          1    1    1    2  502    0  0.26651733825E+01 -0.40837269852E+02  0.98560033310E+03  0.98644959444E+03  0.00000000000E+00 0. -1.
         22    1    3    3    0    0  0.69690764263E+02  0.81791844570E+01  0.74576784496E+01  0.70564287355E+02  0.00000000000E+00 0. -1.
         22    1    3    3    0    0  0.36840631236E+02  0.10879343452E+03  0.12993016822E+03  0.17342171755E+03  0.00000000000E+00 0. -1.
</event>
<event>
 7    1  0.6510186E-006  0.5693786E+02  0.7818608E-02  0.1425729E+00
          2   -1    0    0  502    0  0.00000000000E+00  0.00000000000E+00  0.17549210304E+04  0.17549210304E+04  0.00000000000E+00 0. -1.
          1   -1    0    0  501    0 -0.00000000000E+00 -0.00000000000E+00 -0.29580498501E+03  0.29580498501E+03  0.00000000000E+00 0. -1.
         25    2    1    2    0    0 -0.78445299598E+02 -0.65564956245E+01  0.86615613544E+03  0.87866326593E+03  0.12500412501E+03 0.  0.
          2    1    1    2  501    0  0.40286391580E+02  0.40220957018E+02 -0.28601036927E+03  0.29162072982E+03  0.00000000000E+00 0. -1.
          1    1    1    2  502    0  0.38158908018E+02 -0.33664461393E+02  0.87897027923E+03  0.88044201967E+03  0.00000000000E+00 0. -1.
         22    1    3    3    0    0 -0.96173472009E+02 -0.42530993911E+02  0.54890719875E+03  0.55888937636E+03  0.00000000000E+00 0. -1.
         22    1    3    3    0    0  0.17728172411E+02  0.35974498286E+02  0.31724893668E+03  0.31977388957E+03  0.00000000000E+00 0. -1.
</event>
<event>
 7    1  0.6510186E-006  0.9624008E+02  0.7818608E-02  0.1348878E+00
          2   -1    0    0  502    0  0.00000000000E+00  0.00000000000E+00  0.11528938509E+03  0.11528938509E+03  0.00000000000E+00 0. -1.
          1   -1    0    0  501    0 -0.00000000000E+00 -0.00000000000E+00 -0.91496592388E+03  0.91496592388E+03  0.00000000000E+00 0. -1.
         25    2    1    2    0    0  0.10978902401E+03 -0.63861262145E+02 -0.52025921125E+03  0.54993309472E+03  0.12499948474E+03 0.  0.
          2    1    1    2  501    0 -0.14936524978E+02  0.53960974942E+02 -0.35453156606E+03  0.35892550471E+03  0.00000000000E+00 0. -1.
          1    1    1    2  502    0 -0.94852499028E+02  0.99002872026E+01  0.75114238522E+02  0.12139670954E+03  0.00000000000E+00 0. -1.
         22    1    3    3    0    0 -0.18305574627E+02 -0.42681700009E+02 -0.17537457210E+03  0.18141957479E+03  0.00000000000E+00 0.  1.
         22    1    3    3    0    0  0.12809459863E+03 -0.21179562136E+02 -0.34488463915E+03  0.36851351994E+03  0.00000000000E+00 0.  1.
</event>
<event>
 7    1  0.6510186E-006  0.6961511E+02  0.7818608E-02  0.1405779E+00
          2   -1    0    0  502    0  0.00000000000E+00  0.00000000000E+00  0.15361098612E+04  0.15361098612E+04  0.00000000000E+00 0. -1.
          1   -1    0    0  501    0 -0.00000000000E+00 -0.00000000000E+00 -0.13603633965E+03  0.13603633965E+03  0.00000000000E+00 0. -1.
         25    2    1    2    0    0  0.97049437565E+02  0.18269836104E+02  0.10102986971E+04  0.10227809256E+04  0.12499993713E+03 0.  0.
          2    1    1    2  501    0 -0.66625223985E+02  0.19587198624E+02 -0.11926712360E+03  0.13801168644E+03  0.00000000000E+00 0. -1.
          1    1    1    2  502    0 -0.30424213580E+02 -0.37857034727E+02  0.50904194811E+03  0.51135358881E+03  0.00000000000E+00 0. -1.
         22    1    3    3    0    0  0.63363403574E+02  0.18784634757E+02  0.95981787792E+03  0.96209050623E+03  0.00000000000E+00 0. -1.
         22    1    3    3    0    0  0.33686033991E+02 -0.51479865306E+00  0.50480819150E+02  0.60690419391E+02  0.00000000000E+00 0. -1.
</event>
<event>
 7    1  0.6510186E-006  0.1054140E+03  0.7818608E-02  0.1461740E+00
          2   -1    0    0  502    0  0.00000000000E+00  0.00000000000E+00  0.12010258597E+03  0.12010258597E+03  0.00000000000E+00 0. -1.
          1   -1    0    0  501    0 -0.00000000000E+00 -0.00000000000E+00 -0.45803585559E+03  0.45803585559E+03  0.00000000000E+00 0. -1.
         25    2    1    2    0    0  0.61307875549E+02 -0.77576637611E+02 -0.52275965226E+02  0.16773128711E+03  0.12499687127E+03 0.  0.
          2    1    1    2  501    0 -0.80745381774E+02  0.69549655167E+02 -0.33778504686E+03  0.35419727427E+03  0.00000000000E+00 0. -1.
          1    1    1    2  502    0  0.19437506225E+02  0.80269824440E+01  0.52127742472E+02  0.56209880187E+02  0.00000000000E+00 0. -1.
         22    1    3    3    0    0 -0.22980595750E+02 -0.69001150009E+02 -0.37156182566E+02  0.81669139744E+02  0.00000000000E+00 0.  1.
         22    1    3    3    0    0  0.84288471299E+02 -0.85754876019E+01 -0.15119782660E+02  0.86062147366E+02  0.00000000000E+00 0.  1.
</event>
<event>
 7    1  0.6510186E-006  0.9465112E+02  0.7818608E-02  0.1465901E+00
          2   -1    0    0  502    0  0.00000000000E+00  0.00000000000E+00  0.20535425178E+03  0.20535425178E+03  0.00000000000E+00 0. -1.
          1   -1    0    0  501    0 -0.00000000000E+00 -0.00000000000E+00 -0.12215428642E+03  0.12215428642E+03  0.00000000000E+00 0. -1.
         25    2    1    2    0    0  0.67358822102E+02  0.52864612935E+02  0.31010561822E+02  0.15465494272E+03  0.12499847258E+03 0.  0.
          2    1    1    2  501    0 -0.88607763759E+02 -0.44801089558E+02 -0.16365514929E+02  0.10062953594E+03  0.00000000000E+00 0. -1.
          1    1    1    2  502    0  0.21248941657E+02 -0.80635233763E+01  0.68554918461E+02  0.72224059537E+02  0.00000000000E+00 0. -1.
         22    1    3    3    0    0  0.16243609099E+02 -0.17855499401E+01  0.68877929004E+02  0.70789915448E+02  0.00000000000E+00 0.  1.
         22    1    3    3    0    0  0.51115213003E+02  0.54650162875E+02 -0.37867367182E+02  0.83865027275E+02  0.00000000000E+00 0.  1.
</event>
<event>
 7    1  0.6510186E-006  0.1736431E+03  0.7818608E-02  0.1289412E+00
          2   -1    0    0  502    0  0.00000000000E+00  0.00000000000E+00  0.45635244012E+03  0.45635244012E+03  0.00000000000E+00 0. -1.
          1   -1    0    0  501    0 -0.00000000000E+00 -0.00000000000E+00 -0.79349859350E+03  0.79349859350E+03  0.00000000000E+00 0. -1.
         25    2    1    2    0    0  0.90386213991E+02  0.96184230930E+02 -0.25361894496E+03  0.31203995500E+03  0.12500116124E+03 0.  0.
          2    1    1    2  501    0  0.52275192358E+02  0.77026093235E+01 -0.49096225306E+03  0.49379748871E+03  0.00000000000E+00 0. -1.
          1    1    1    2  502    0 -0.14266140635E+03 -0.10388684025E+03  0.40743504463E+03  0.44401358992E+03  0.00000000000E+00 0. -1.
         22    1    3    3    0    0  0.16648093018E+02  0.89077271057E+02 -0.20302709855E+03  0.22233290797E+03  0.00000000000E+00 0. -1.
         22    1    3    3    0    0  0.73738120972E+02  0.71069598722E+01 -0.50591846410E+02  0.89707047027E+02  0.00000000000E+00 0. -1.
</event>
<event>
 7    1  0.6510186E-006  0.5392416E+02  0.7818608E-02  0.1526312E+00
          2   -1    0    0  502    0  0.00000000000E+00  0.00000000000E+00  0.66979344703E+03  0.66979344703E+03  0.00000000000E+00 0. -1.
          1   -1    0    0  501    0 -0.00000000000E+00 -0.00000000000E+00 -0.83548489959E+02  0.83548489959E+02  0.00000000000E+00 0. -1.
         25    2    1    2    0    0 -0.40956600317E+02  0.65640260100E+02  0.27636236396E+03  0.31303302290E+03  0.12500972106E+03 0.  0.
          2    1    1    2  501    0  0.20715966082E+02 -0.48883131887E+02 -0.53854328499E+02  0.75624073759E+02  0.00000000000E+00 0. -1.
          1    1    1    2  502    0  0.20240634235E+02 -0.16757128213E+02  0.36373692161E+03  0.36468484032E+03  0.00000000000E+00 0. -1.
         22    1    3    3    0    0  0.80453216218E+01  0.65135610359E+02  0.53001262052E+02  0.84359402060E+02  0.00000000000E+00 0. -1.
         22    1    3    3    0    0 -0.49001921939E+02  0.50464974138E+00  0.22336110191E+03  0.22867362084E+03  0.00000000000E+00 0. -1.
</event>
<event>
 7    1  0.6510186E-006  0.5755013E+02  0.7818608E-02  0.1409263E+00
          2   -1    0    0  502    0  0.00000000000E+00  0.00000000000E+00  0.71145106450E+03  0.71145106450E+03  0.00000000000E+00 0. -1.
          1   -1    0    0  501    0 -0.00000000000E+00 -0.00000000000E+00 -0.12613391028E+03  0.12613391028E+03  0.00000000000E+00 0. -1.
         25    2    1    2    0    0 -0.10775496123E+02  0.29396876444E+02 -0.12375344107E+02  0.12945497727E+03  0.12500061735E+03 0.  0.
          2    1    1    2  501    0  0.67797646823E+02 -0.25318142777E+02 -0.29634792784E+02  0.78203262156E+02  0.00000000000E+00 0. -1.
          1    1    1    2  502    0 -0.57022150700E+02 -0.40787336671E+01  0.62732729111E+03  0.62992673535E+03  0.00000000000E+00 0. -1.
         22    1    3    3    0    0  0.45853006213E+02  0.16615191606E+02 -0.41925197862E+02  0.64313956391E+02  0.00000000000E+00 0.  1.
         22    1    3    3    0    0 -0.56628502336E+02  0.12781684838E+02  0.29549853756E+02  0.65141020879E+02  0.00000000000E+00 0.  1.
</event>
<event>
 7    1  0.6510186E-006  0.4378090E+02  0.7818608E-02  0.1556590E+00
          2   -1    0    0  502    0  0.00000000000E+00  0.00000000000E+00  0.16254034466E+04  0.16254034466E+04  0.00000000000E+00 0. -1.
          1   -1    0    0  501    0 -0.00000000000E+00 -0.00000000000E+00 -0.22567732505E+03  0.22567732505E+03  0.00000000000E+00 0. -1.
         25    2    1    2    0    0 -0.47124343109E+02 -0.18548074513E+02  0.26005404259E+03  0.29294524085E+03  0.12499629708E+03 0.  0.
          2    1    1    2  501    0  0.40205094196E+01  0.26279503219E+02 -0.20803015346E+03  0.20972201013E+03  0.00000000000E+00 0. -1.
          1    1    1    2  502    0  0.43103833690E+02 -0.77314287065E+01  0.13477022324E+04  0.13484135206E+04  0.00000000000E+00 0. -1.
         22    1    3    3    0    0  0.38409773108E+02 -0.24855701534E+02  0.61427268413E+02  0.76592596729E+02  0.00000000000E+00 0. -1.
         22    1    3    3    0    0 -0.85534116217E+02  0.63076270217E+01  0.19862677418E+03  0.21635264412E+03  0.00000000000E+00 0. -1.
</event>
<event>
 7    1  0.6510186E-006  0.1493245E+03  0.7818608E-02  0.1301664E+00
          2   -1    0    0  502    0  0.00000000000E+00  0.00000000000E+00  0.23278128254E+04  0.23278128254E+04  0.00000000000E+00 0. -1.
          1   -1    0    0  501    0 -0.00000000000E+00 -0.00000000000E+00 -0.39059133256E+03  0.39059133256E+03  0.00000000000E+00 0. -1.
         25    2    1    2    0    0  0.15907961956E+03 -0.98696716055E+02 -0.21695761090E+03  0.31264222216E+03  0.12500874783E+03 0.  0.
          2    1    1    2  501    0 -0.17580518755E+02  0.51945097409E+02 -0.11725459943E+03  0.12944500327E+03  0.00000000000E+00 0. -1.
          1    1    1    2  502    0 -0.14149910081E+03  0.46751618647E+02  0.22714337031E+04  0.22763169325E+04  0.00000000000E+00 0. -1.
         22    1    3    3    0    0  0.15452435712E+03 -0.66621063029E+02 -0.22332482491E+03  0.27962496384E+03  0.00000000000E+00 0. -1.
         22    1    3    3    0    0  0.45552624429E+01 -0.32075653026E+02  0.63672140105E+01  0.33017258324E+02  0.00000000000E+00 0. -1.
</event>
<event>
 7    1  0.6510186E-006  0.4485595E+02  0.7818608E-02  0.1533529E+00
          2   -1    0    0  502    0  0.00000000000E+00  0.00000000000E+00  0.71655101400E+03  0.71655101400E+03  0.00000000000E+00 0. -1.
          1   -1    0    0  501    0 -0.00000000000E+00 -0.00000000000E+00 -0.31589037480E+04  0.31589037480E+04  0.00000000000E+00 0. -1.
         25    2    1    2    0    0 -0.24906929148E+02  0.39013347076E+02 -0.21952350171E+03  0.25682338389E+03  0.12500114536E+03 0.  0.
          2    1    1    2  501    0  0.42507470450E+02 -0.14570314529E+02 -0.29202323847E+04  0.29205780866E+04  0.00000000000E+00 0. -1.
          1    1    1    2  502    0 -0.17600541302E+02 -0.24443032547E+02  0.69740315239E+03  0.69805329156E+03  0.00000000000E+00 0. -1.
         22    1    3    3    0    0  0.35105785439E+02 -0.26815174801E+02 -0.75828179860E+02  0.87757521796E+02  0.00000000000E+00 0.  1.
         22    1    3    3    0    0 -0.60012714587E+02  0.65828521878E+02 -0.14369532185E+03  0.16906586210E+03  0.00000000000E+00 0.  1.
</event>
<event>
 7    1  0.6510186E-006  0.9993797E+02  0.7818608E-02  0.1365614E+00
          2   -1    0    0  502    0  0.00000000000E+00  0.00000000000E+00  0.35451615615E+04  0.35451615615E+04  0.00000000000E+00 0. -1.
          1   -1    0    0  501    0 -0.00000000000E+00 -0.00000000000E+00 -0.27177436349E+03  0.27177436349E+03  0.00000000000E+00 0. -1.
         25    2    1    2    0    0 -0.76807911375E+02 -0.79860210571E+02  0.95373551540E+03  0.96825168450E+03  0.12499113062E+03 0.  0.
          2    1    1    2  501    0  0.32354881602E+02  0.94549403714E+02 -0.25485746847E+03  0.27374944263E+03  0.00000000000E+00 0. -1.
          1    1    1    2  502    0  0.44453029773E+02 -0.14689193143E+02  0.25745091511E+04  0.25749347979E+04  0.00000000000E+00 0. -1.
         22    1    3    3    0    0 -0.10090339320E+03 -0.36624575753E+02  0.78815687771E+03  0.79543328959E+03  0.00000000000E+00 0.  1.
         22    1    3    3    0    0  0.24095481822E+02 -0.43235634818E+02  0.16557863769E+03  0.17281839491E+03  0.00000000000E+00 0.  1.
</event>
<event>
 7    1  0.6510186E-006  0.1174618E+03  0.7818608E-02  0.1364448E+00
          2   -1    0    0  502    0  0.00000000000E+00  0.00000000000E+00  0.30953705559E+02  0.30953705559E+02  0.00000000000E+00 0. -1.
          1   -1    0    0  501    0 -0.00000000000E+00 -0.00000000000E+00 -0.99968982728E+03  0.99968982728E+03  0.00000000000E+00 0. -1.
         25    2    1    2    0    0 -0.89517580631E+02  0.34886725433E+02 -0.47345599736E+03  0.49901612905E+03  0.12500413896E+03 0.  0.
          2    1    1    2  501    0 -0.37934165283E+02 -0.13371330970E+02 -0.26078471457E+03  0.26386826399E+03  0.00000000000E+00 0. -1.
          1    1    1    2  502    0  0.12745174591E+03 -0.21515394463E+02 -0.23449540979E+03  0.26775913981E+03  0.00000000000E+00 0. -1.
         22    1    3    3    0    0 -0.11782327785E+03  0.44669924530E+02 -0.35039221826E+03  0.37236062302E+03  0.00000000000E+00 0. -1.
         22    1    3    3    0    0  0.28305697218E+02 -0.97831990969E+01 -0.12306377910E+03  0.12665550603E+03  0.00000000000E+00 0. -1.
</event>
<event>
 7    1  0.6510186E-006  0.1208371E+03  0.7818608E-02  0.1311724E+00
          2   -1    0    0  502    0  0.00000000000E+00  0.00000000000E+00  0.11222240949E+04  0.11222240949E+04  0.00000000000E+00 0. -1.
          1   -1    0    0  501    0 -0.00000000000E+00 -0.00000000000E+00 -0.96494995118E+03  0.96494995118E+03  0.00000000000E+00 0. -1.
         25    2    1    2    0    0 -0.16901155045E+03 -0.49458580933E+02 -0.54352258899E+02  0.22269100742E+03  0.12500424523E+03 0.  0.
          2    1    1    2  501    0  0.11707656435E+03  0.15913919475E+02 -0.82127619093E+03  0.82973173770E+03  0.00000000000E+00 0. -1.
          1    1    1    2  502    0  0.51934986105E+02  0.33544661458E+02  0.10329025935E+04  0.10347513010E+04  0.00000000000E+00 0. -1.
         22    1    3    3    0    0 -0.13930314027E+03 -0.58395183959E+02  0.98684103726E+01  0.15136957396E+03  0.00000000000E+00 0.  1.
         22    1    3    3    0    0 -0.29708410187E+02  0.89366030263E+01 -0.64220669271E+02  0.71321433463E+02  0.00000000000E+00 0.  1.
</event>
<event>
 7    1  0.6510186E-006  0.8847945E+02  0.7818608E-02  0.1408086E+00
          2   -1    0    0  502    0  0.00000000000E+00  0.00000000000E+00  0.73514644510E+03  0.73514644510E+03  0.00000000000E+00 0. -1.
          1   -1    0    0  501    0 -0.00000000000E+00 -0.00000000000E+00 -0.23441903524E+03  0.23441903524E+03  0.00000000000E+00 0. -1.
         25    2    1    2    0    0  0.48635340545E+02 -0.62801916829E+02  0.85917018393E+02  0.17122407487E+03  0.12500589049E+03 0.  0.
          2    1    1    2  501    0 -0.79575386116E+02  0.41564516730E+02 -0.18063491010E+03  0.20171470416E+03  0.00000000000E+00 0. -1.
          1    1    1    2  502    0  0.30940045571E+02  0.21237400099E+02  0.59544530156E+03  0.59662670132E+03  0.00000000000E+00 0. -1.
         22    1    3    3    0    0  0.31948958091E+02 -0.81682669991E+02  0.10701117878E+03  0.13836251979E+03  0.00000000000E+00 0.  1.
         22    1    3    3    0    0  0.16686382454E+02  0.18880753162E+02 -0.21094160386E+02  0.32861555072E+02  0.00000000000E+00 0.  1.
</event>
<event>
 7    1  0.6510186E-006  0.3356909E+02  0.7818608E-02  0.1628255E+00
          2   -1    0    0  502    0  0.00000000000E+00  0.00000000000E+00  0.96848836999E+03  0.96848836999E+03  0.00000000000E+00 0. -1.
          1   -1    0    0  501    0 -0.00000000000E+00 -0.00000000000E+00 -0.77952016522E+03  0.77952016522E+03  0.00000000000E+00 0. -1.
         25    2    1    2    0    0  0.54037961159E+02 -0.13106352901E+02 -0.17663169394E+02  0.13794549602E+03  0.12500037835E+03 0.  0.
          2    1    1    2  501    0 -0.32993235222E+02  0.53508218370E+01 -0.70117922809E+03  0.70197542319E+03  0.00000000000E+00 0. -1.
          1    1    1    2  502    0 -0.21044725937E+02  0.77555310638E+01  0.90781060226E+03  0.90808761599E+03  0.00000000000E+00 0. -1.
         22    1    3    3    0    0 -0.37386439469E+02  0.13234309405E+02 -0.16061754135E+02  0.42788698829E+02  0.00000000000E+00 0.  1.
         22    1    3    3    0    0  0.91424400627E+02 -0.26340662305E+02 -0.16014152587E+01  0.95156797191E+02  0.00000000000E+00 0.  1.
</event>
<event>
 7    1  0.6510186E-006  0.2578761E+03  0.7818608E-02  0.1214778E+00
          2   -1    0    0  502    0  0.00000000000E+00  0.00000000000E+00  0.36289746552E+04  0.36289746552E+04  0.00000000000E+00 0. -1.
          1   -1    0    0  501    0 -0.00000000000E+00 -0.00000000000E+00 -0.32352432579E+03  0.32352432579E+03  0.00000000000E+00 0. -1.
         25    2    1    2    0    0 -0.23092655678E+03 -0.21760039347E+03  0.11555063040E+04  0.12047808866E+04  0.12500064138E+03 0.  0.
          2    1    1    2  501    0  0.47157903420E+02  0.58121302394E+02 -0.28804846626E+03  0.29761362967E+03  0.00000000000E+00 0. -1.
          1    1    1    2  502    0  0.18376865336E+03  0.15947909107E+03  0.24379924917E+04  0.24501044647E+04  0.00000000000E+00 0. -1.
         22    1    3    3    0    0 -0.74007807841E+02 -0.20941943713E+01  0.22755271727E+03  0.23929433844E+03  0.00000000000E+00 0.  1.
         22    1    3    3    0    0 -0.15691874894E+03 -0.21550619910E+03  0.92795358673E+03  0.96548654819E+03  0.00000000000E+00 0.  1.
</event>
<event>
 7    1  0.6510186E-006  0.1455774E+03  0.7818608E-02  0.1343542E+00
          2   -1    0    0  502    0  0.00000000000E+00  0.00000000000E+00  0.38592113169E+03  0.38592113169E+03  0.00000000000E+00 0. -1.
          1   -1    0    0  501    0 -0.00000000000E+00 -0.00000000000E+00 -0.49935102410E+03  0.49935102410E+03  0.00000000000E+00 0. -1.
         25    2    1    2    0    0 -0.42498356053E+01 -0.11321517427E+03  0.25442327780E+02  0.17061376852E+03  0.12500403665E+03 0.  0.
          2    1    1    2  501    0  0.19880972076E+02  0.14867133639E+03 -0.41217673425E+03  0.43862065566E+03  0.00000000000E+00 0. -1.
          1    1    1    2  502    0 -0.15631136471E+02 -0.35456162124E+02  0.27330451406E+03  0.27603773160E+03  0.00000000000E+00 0. -1.
         22    1    3    3    0    0  0.19527156623E+02 -0.79037744831E+02 -0.41805771791E+02  0.91520475899E+02  0.00000000000E+00 0.  1.
         22    1    3    3    0    0 -0.23776992228E+02 -0.34177429435E+02  0.67248099571E+02  0.79093292624E+02  0.00000000000E+00 0.  1.
</event>
<event>
 7    1  0.6510186E-006  0.7420220E+02  0.7818608E-02  0.1408771E+00
          2   -1    0    0  502    0  0.00000000000E+00  0.00000000000E+00  0.26443952257E+03  0.26443952257E+03  0.00000000000E+00 0. -1.
          1   -1    0    0  501    0 -0.00000000000E+00 -0.00000000000E+00 -0.18071004799E+04  0.18071004799E+04  0.00000000000E+00 0. -1.
         25    2    1    2    0    0  0.68235702349E+02 -0.34079879988E+02 -0.53183069076E+03  0.55162065466E+03  0.12499565479E+03 0.  0.
          2    1    1    2  501    0  0.53880743370E+01  0.44181883079E+02 -0.12595494167E+04  0.12603355915E+04  0.00000000000E+00 0. -1.
          1    1    1    2  502    0 -0.73623776686E+02 -0.10102003090E+02  0.24871915006E+03  0.25958375636E+03  0.00000000000E+00 0. -1.
         22    1    3    3    0    0  0.70744321812E+02 -0.48936912437E+02 -0.52941858903E+03  0.53636146662E+03  0.00000000000E+00 0. -1.
         22    1    3    3    0    0 -0.25086194635E+01  0.14857032448E+02 -0.24121017317E+01  0.15259188037E+02  0.00000000000E+00 0. -1.
</event>
<event>
 7    1  0.6510186E-006  0.1141989E+03  0.7818608E-02  0.1414884E+00
          2   -1    0    0  502    0  0.00000000000E+00  0.00000000000E+00  0.15982050037E+04  0.15982050037E+04  0.00000000000E+00 0. -1.
          1   -1    0    0  501    0 -0.00000000000E+00 -0.00000000000E+00 -0.60728157993E+02  0.60728157993E+02  0.00000000000E+00 0. -1.
         25    2    1    2    0    0 -0.29638648815E+02 -0.11232738572E+03  0.35149006947E+03  0.39072407530E+03  0.12499657194E+03 0.  0.
          2    1    1    2  501    0 -0.24901794187E+02  0.11848478873E+02 -0.33491199488E+02  0.43383709483E+02  0.00000000000E+00 0. -1.
          1    1    1    2  502    0  0.54540443002E+02  0.10047890685E+03  0.12194779757E+04  0.12248253769E+04  0.00000000000E+00 0. -1.
         22    1    3    3    0    0 -0.61548641859E+02 -0.10110608526E+03  0.33015525629E+03  0.35073233248E+03  0.00000000000E+00 0.  1.
         22    1    3    3    0    0  0.31909993044E+02 -0.11221300462E+02  0.21334813176E+02  0.39991742815E+02  0.00000000000E+00 0.  1.
</event>
<event>
 7    1  0.6510186E-006  0.8001886E+02  0.7818608E-02  0.1452651E+00
          2   -1    0    0  502    0  0.00000000000E+00  0.00000000000E+00  0.18902724313E+04  0.18902724313E+04  0.00000000000E+00 0. -1.
          1   -1    0    0  501    0 -0.00000000000E+00 -0.00000000000E+00 -0.24169984461E+03  0.24169984461E+03  0.00000000000E+00 0. -1.
         25    2    1    2    0    0  0.55769004231E+02 -0.36355076583E+02  0.11012356468E+03  0.17939962575E+03  0.12500061118E+03 0.  0.
          2    1    1    2  501    0 -0.78955987200E+02  0.17952246272E+02 -0.19901500092E+03  0.21485646756E+03  0.00000000000E+00 0. -1.
          1    1    1    2  502    0  0.23186982969E+02  0.18402830311E+02  0.17374640229E+04  0.17377161826E+04  0.00000000000E+00 0. -1.
         22    1    3    3    0    0 -0.22722745344E+00  0.43818273963E+02  0.35141185995E+02  0.56169348568E+02  0.00000000000E+00 0. -1.
         22    1    3    3    0    0  0.55996231685E+02 -0.80173350546E+02  0.74982378683E+02  0.12323027718E+03  0.00000000000E+00 0. -1.
</event>
<event>
 7    1  0.6510186E-006  0.5676706E+02  0.7818608E-02  0.1510783E+00
          2   -1    0    0  502    0  0.00000000000E+00  0.00000000000E+00  0.10737336755E+04  0.10737336755E+04  0.00000000000E+00 0. -1.
          1   -1    0    0  501    0 -0.00000000000E+00 -0.00000000000E+00 -0.14322940121E+04  0.14322940121E+04  0.00000000000E+00 0. -1.
         25    2    1    2    0    0 -0.50950868465E+02  0.22896843754E+02  0.15682631786E+03  0.20818318670E+03  0.12500195518E+03 0.  0.
          2    1    1    2  501    0  0.16296120745E+02  0.22396723719E+02 -0.14055666457E+04  0.14058395258E+04  0.00000000000E+00 0. -1.
          1    1    1    2  502    0  0.34654747720E+02 -0.45293567473E+02  0.89017999125E+03  0.89200497511E+03  0.00000000000E+00 0. -1.
         22    1    3    3    0    0  0.61566276199E+01  0.42411252272E+02  0.13870034406E+03  0.14517025806E+03  0.00000000000E+00 0. -1.
         22    1    3    3    0    0 -0.57107496085E+02 -0.19514408517E+02  0.18125973796E+02  0.63012928633E+02  0.00000000000E+00 0. -1.
</event>
<event>
 7    1  0.6510186E-006  0.1729524E+03  0.7818608E-02  0.1218201E+00
          2   -1    0    0  502    0  0.00000000000E+00  0.00000000000E+00  0.88683072788E+03  0.88683072788E+03  0.00000000000E+00 0. -1.
          1   -1    0    0  501    0 -0.00000000000E+00 -0.00000000000E+00 -0.14743688437E+04  0.14743688437E+04  0.00000000000E+00 0. -1.
         25    2    1    2    0    0  0.12145325610E+03 -0.24124985112E+03 -0.35128897974E+02  0.29967877524E+03  0.12498377806E+03 0.  0.
          2    1    1    2  501    0 -0.23690333373E+02  0.10499702389E+03 -0.12953877323E+04  0.12998519084E+04  0.00000000000E+00 0. -1.
          1    1    1    2  502    0 -0.97762922723E+02  0.13625282723E+03  0.74297851440E+03  0.76166888794E+03  0.00000000000E+00 0. -1.
         22    1    3    3    0    0  0.44426566020E+02 -0.10390742392E+03  0.46632468855E+02  0.12224998840E+03  0.00000000000E+00 0.  1.
         22    1    3    3    0    0  0.77026690076E+02 -0.13734242720E+03 -0.81761366829E+02  0.17742878684E+03  0.00000000000E+00 0.  1.
</event>
<event>
 7    1  0.6510186E-006  0.6908606E+02  0.7818608E-02  0.1444245E+00
          2   -1    0    0  502    0  0.00000000000E+00  0.00000000000E+00  0.16190164185E+03  0.16190164185E+03  0.00000000000E+00 0. -1.
          1   -1    0    0  501    0 -0.00000000000E+00 -0.00000000000E+00 -0.32869534599E+03  0.32869534599E+03  0.00000000000E+00 0. -1.
         25    2    1    2    0    0  0.69673566147E+02  0.10054487434E+02 -0.59222089345E+02  0.15520284439E+03  0.12500067401E+03 0.  0.
          2    1    1    2  501    0 -0.54846136145E+02 -0.43388015313E+02 -0.21281286839E+03  0.22400878437E+03  0.00000000000E+00 0. -1.
          1    1    1    2  502    0 -0.14827430002E+02  0.33333527878E+02  0.10524125358E+03  0.11138535908E+03  0.00000000000E+00 0. -1.
         22    1    3    3    0    0  0.19157877527E+02 -0.11116221374E+02 -0.89787423979E+02  0.92479057920E+02  0.00000000000E+00 0. -1.
         22    1    3    3    0    0  0.50515688620E+02  0.21170708808E+02  0.30565334634E+02  0.62723786473E+02  0.00000000000E+00 0. -1.
</event>
<event>
 7    1  0.6510186E-006  0.1103692E+03  0.7818608E-02  0.1389179E+00
          2   -1    0    0  502    0  0.00000000000E+00  0.00000000000E+00  0.79970475615E+03  0.79970475615E+03  0.00000000000E+00 0. -1.
          1   -1    0    0  501    0 -0.00000000000E+00 -0.00000000000E+00 -0.11821212925E+03  0.11821212925E+03  0.00000000000E+00 0. -1.
         25    2    1    2    0    0  0.13167801233E+03 -0.44371985890E+01  0.13103148868E+03  0.22394863583E+03  0.12499981119E+03 0.  0.
          2    1    1    2  501    0 -0.10316808425E+03  0.24659950463E+02 -0.31738082364E+02  0.11072069652E+03  0.00000000000E+00 0. -1.
          1    1    1    2  502    0 -0.28509928083E+02 -0.20222751874E+02  0.58219922059E+03  0.58324755306E+03  0.00000000000E+00 0. -1.
         22    1    3    3    0    0  0.47923816303E+02 -0.11419499265E+02 -0.18329895414E+02  0.52565028283E+02  0.00000000000E+00 0.  1.
         22    1    3    3    0    0  0.83754196032E+02  0.69823006761E+01  0.14936138410E+03  0.17138360754E+03  0.00000000000E+00 0.  1.
</event>
<event>
 7    1  0.6510186E-006  0.1038439E+03  0.7818608E-02  0.1341907E+00
          2   -1    0    0  502    0  0.00000000000E+00  0.00000000000E+00  0.43268741231E+04  0.43268741231E+04  0.00000000000E+00 0. -1.
          1   -1    0    0  501    0 -0.00000000000E+00 -0.00000000000E+00 -0.33003693887E+02  0.33003693887E+02  0.00000000000E+00 0. -1.
         25    2    1    2    0    0  0.52366344104E+02 -0.86268560136E+02  0.69793726211E+03  0.71619216389E+03  0.12502117948E+03 0.  0.
          2    1    1    2  501    0 -0.93899569517E+02  0.50071113499E+02  0.95999363389E+02  0.14331825890E+03  0.00000000000E+00 0. -1.
          1    1    1    2  502    0  0.41533225413E+02  0.36197446637E+02  0.34999338038E+04  0.35003673942E+04  0.00000000000E+00 0. -1.
         22    1    3    3    0    0  0.58545508485E+01 -0.64660611502E+02  0.12400700250E+03  0.13997502318E+03  0.00000000000E+00 0.  1.
         22    1    3    3    0    0  0.46511793256E+02 -0.21607948634E+02  0.57393025961E+03  0.57621714071E+03  0.00000000000E+00 0.  1.
</event>
<event>
 7    1  0.6510186E-006  0.7687049E+02  0.7818608E-02  0.1348372E+00
          2   -1    0    0  502    0  0.00000000000E+00  0.00000000000E+00  0.27461629400E+04  0.27461629400E+04  0.00000000000E+00 0. -1.
          1   -1    0    0  501    0 -0.00000000000E+00 -0.00000000000E+00 -0.11935868343E+03  0.11935868343E+03  0.00000000000E+00 0. -1.
         25    2    1    2    0    0  0.25023451749E+01  0.65214624830E+02  0.34717108997E+03  0.37471407205E+03  0.12499464411E+03 0.  0.
          2    1    1    2  501    0  0.65604716500E+02 -0.25544443356E+02 -0.93124090297E+02  0.11674156761E+03  0.00000000000E+00 0. -1.
          1    1    1    2  502    0 -0.68107061675E+02 -0.39670181474E+02  0.23727572569E+04  0.23740659838E+04  0.00000000000E+00 0. -1.
         22    1    3    3    0    0  0.47674796348E+02 -0.24637110528E+01  0.62523110343E+02  0.78664448170E+02  0.00000000000E+00 0.  1.
         22    1    3    3    0    0 -0.45172451173E+02  0.67678335883E+02  0.28464797963E+03  0.29604962388E+03  0.00000000000E+00 0.  1.
</event>
<event>
 7    1  0.6510186E-006  0.6288567E+02  0.7818608E-02  0.1403777E+00
          2   -1    0    0  502    0  0.00000000000E+00  0.00000000000E+00  0.15919568289E+04  0.15919568289E+04  0.00000000000E+00 0. -1.
          1   -1    0    0  501    0 -0.00000000000E+00 -0.00000000000E+00 -0.53839663335E+03  0.53839663335E+03  0.00000000000E+00 0. -1.
         25    2    1    2    0    0 -0.71830951227E+02  0.37686367486E+02  0.89005611144E+03  0.90244372896E+03  0.12499941827E+03 0.  0.
          2    1    1    2  501    0  0.60869330547E+02  0.15819671687E+02 -0.52926623501E+03  0.53298976063E+03  0.00000000000E+00 0. -1.
          1    1    1    2  502    0  0.10961620680E+02 -0.53506039173E+02  0.69277031909E+03  0.69491997264E+03  0.00000000000E+00 0. -1.
         22    1    3    3    0    0 -0.55526874807E+02  0.87963545138E+01  0.12964924907E+03  0.14131361386E+03  0.00000000000E+00 0.  1.
         22    1    3    3    0    0 -0.16304076420E+02  0.28890012972E+02  0.76040686238E+03  0.76113011510E+03  0.00000000000E+00 0.  1.
</event>
<event>
 7    1  0.6510186E-006  0.1040726E+03  0.7818608E-02  0.1375973E+00
          2   -1    0    0  502    0  0.00000000000E+00  0.00000000000E+00  0.16094379919E+04  0.16094379919E+04  0.00000000000E+00 0. -1.
          1   -1    0    0  501    0 -0.00000000000E+00 -0.00000000000E+00 -0.98467898184E+03  0.98467898184E+03  0.00000000000E+00 0. -1.
         25    2    1    2    0    0  0.36065963341E+02 -0.56161371798E+02 -0.47040224041E+02  0.14929389975E+03  0.12498412871E+03 0.  0.
          2    1    1    2  501    0  0.36338919215E+02 -0.19555593587E+02 -0.88426937981E+03  0.88523176308E+03  0.00000000000E+00 0. -1.
          1    1    1    2  502    0 -0.72404882556E+02  0.75716965385E+02  0.15560686139E+04  0.15595913109E+04  0.00000000000E+00 0. -1.
         22    1    3    3    0    0  0.18625833679E+02 -0.41600125939E+02  0.39195978819E+02  0.60115030682E+02  0.00000000000E+00 0. -1.
         22    1    3    3    0    0  0.17440129662E+02 -0.14561245860E+02 -0.86236202860E+02  0.89178869063E+02  0.00000000000E+00 0. -1.
</event>
<event>
 7    1  0.6510186E-006  0.8383739E+02  0.7818608E-02  0.1329257E+00
          2   -1    0    0  502    0  0.00000000000E+00  0.00000000000E+00  0.74209018822E+03  0.74209018822E+03  0.00000000000E+00 0. -1.
          1   -1    0    0  501    0 -0.00000000000E+00 -0.00000000000E+00 -0.30656372643E+03  0.30656372643E+03  0.00000000000E+00 0. -1.
         25    2    1    2    0    0 -0.13720021837E+03  0.76263451216E+02  0.64129108195E+01  0.20076576793E+03  0.12500301691E+03 0.  0.
          2    1    1    2  501    0  0.61596266697E+02 -0.44859465213E+02 -0.19971226517E+03  0.21375560940E+03  0.00000000000E+00 0. -1.
          1    1    1    2  502    0  0.75603951672E+02 -0.31403986003E+02  0.62882581614E+03  0.63413253733E+03  0.00000000000E+00 0. -1.
         22    1    3    3    0    0 -0.88908035231E+02 -0.76592407261E-03  0.48379883403E+02  0.10121883149E+03  0.00000000000E+00 0. -1.
         22    1    3    3    0    0 -0.48292183138E+02  0.76264217140E+02 -0.41966972584E+02  0.99546936447E+02  0.00000000000E+00 0. -1.
</event>
<event>
 7    1  0.6510186E-006  0.1009172E+03  0.7818608E-02  0.1414046E+00
          2   -1    0    0  502    0  0.00000000000E+00  0.00000000000E+00  0.50006979264E+03  0.50006979264E+03  0.00000000000E+00 0. -1.
          1   -1    0    0  501    0 -0.00000000000E+00 -0.00000000000E+00 -0.19116565556E+03  0.19116565556E+03  0.00000000000E+00 0. -1.
         25    2    1    2    0    0  0.61092905168E+02  0.10747984734E+03  0.20426787729E+02  0.17699195211E+03  0.12499854723E+03 0.  0.
          2    1    1    2  501    0 -0.35192876431E+02 -0.89710260993E+02 -0.91549871699E+02  0.13292045925E+03  0.00000000000E+00 0. -1.
          1    1    1    2  502    0 -0.25900028737E+02 -0.17769586350E+02  0.38002722105E+03  0.38132303684E+03  0.00000000000E+00 0. -1.
         22    1    3    3    0    0  0.13079789099E+02  0.12144590472E+03 -0.20592288397E+01  0.12216558059E+03  0.00000000000E+00 0. -1.
         22    1    3    3    0    0  0.48013116069E+02 -0.13966057381E+02  0.22486016569E+02  0.54826371525E+02  0.00000000000E+00 0. -1.
</event>
<event>
 7    1  0.6510186E-006  0.1439872E+03  0.7818608E-02  0.1382647E+00
          2   -1    0    0  502    0  0.00000000000E+00  0.00000000000E+00  0.31008805361E+03  0.31008805361E+03  0.00000000000E+00 0. -1.
          1   -1    0    0  501    0 -0.00000000000E+00 -0.00000000000E+00 -0.25095328669E+03  0.25095328669E+03  0.00000000000E+00 0. -1.
         25    2    1    2    0    0 -0.33178865041E+02  0.15147905769E+03 -0.78550582463E+02  0.21410680272E+03  0.12499914785E+03 0.  0.
          2    1    1    2  501    0  0.26787380076E+02 -0.89586482739E+01 -0.81025390085E+02  0.85807545989E+02  0.00000000000E+00 0. -1.
          1    1    1    2  502    0  0.63914849651E+01 -0.14252040941E+03  0.21871073947E+03  0.26112699159E+03  0.00000000000E+00 0. -1.
         22    1    3    3    0    0  0.53081905496E+01 -0.10300201344E+02 -0.42364961509E+02  0.43921076925E+02  0.00000000000E+00 0. -1.
         22    1    3    3    0    0 -0.38487055590E+02  0.16177925903E+03 -0.36185620955E+02  0.17018572580E+03  0.00000000000E+00 0. -1.
</event>
<event>
 7    1  0.6510186E-006  0.1843745E+03  0.7818608E-02  0.1272752E+00
          2   -1    0    0  502    0  0.00000000000E+00  0.00000000000E+00  0.58805277113E+03  0.58805277113E+03  0.00000000000E+00 0. -1.
          1   -1    0    0  501    0 -0.00000000000E+00 -0.00000000000E+00 -0.33571475222E+03  0.33571475222E+03  0.00000000000E+00 0. -1.
         25    2    1    2    0    0  0.27970458117E+02 -0.18631710889E+03 -0.11995365164E+03  0.25594842233E+03  0.12499721901E+03 0.  0.
          2    1    1    2  501    0 -0.82508929604E+02  0.16572181320E+03 -0.87206666890E+02  0.20463735139E+03  0.00000000000E+00 0. -1.
          1    1    1    2  502    0  0.54538471488E+02  0.20595295686E+02  0.45949833744E+03  0.46318174963E+03  0.00000000000E+00 0. -1.
         22    1    3    3    0    0  0.46513786520E+01  0.16407868536E+02 -0.26480228967E+02  0.31496920475E+02  0.00000000000E+00 0.  1.
         22    1    3    3    0    0  0.23319079465E+02 -0.20272497742E+03 -0.93473422669E+02  0.22445150185E+03  0.00000000000E+00 0.  1.
</event>
<event>
 7    1  0.6510186E-006  0.1336267E+03  0.7818608E-02  0.1296830E+00
          2   -1    0    0  502    0  0.00000000000E+00  0.00000000000E+00  0.17976374514E+03  0.17976374514E+03  0.00000000000E+00 0. -1.
          1   -1    0    0  501    0 -0.00000000000E+00 -0.00000000000E+00 -0.16124315279E+04  0.16124315279E+04  0.00000000000E+00 0. -1.
         25    2    1    2    0    0  0.61002152192E+02  0.18286126699E+03 -0.49905617053E+03  0.54940223066E+03  0.12500497659E+03 0.  0.
          2    1    1    2  501    0 -0.31807033915E+02 -0.55625802017E+02 -0.10595021323E+04  0.10614380272E+04  0.00000000000E+00 0. -1.
          1    1    1    2  502    0 -0.29195118277E+02 -0.12723546497E+03  0.12589052008E+03  0.18135501516E+03  0.00000000000E+00 0. -1.
         22    1    3    3    0    0 -0.50657331162E+01  0.90566882060E+02 -0.35277299362E+03  0.36424827633E+03  0.00000000000E+00 0. -1.
         22    1    3    3    0    0  0.66067885309E+02  0.92294384929E+02 -0.14628317691E+03  0.18515395434E+03  0.00000000000E+00 0. -1.
</event>
<event>
 7    1  0.6510186E-006  0.3456165E+03  0.7818608E-02  0.1235782E+00
          2   -1    0    0  502    0  0.00000000000E+00  0.00000000000E+00  0.36058035037E+04  0.36058035037E+04  0.00000000000E+00 0. -1.
          1   -1    0    0  501    0 -0.00000000000E+00 -0.00000000000E+00 -0.15626548802E+03  0.15626548802E+03  0.00000000000E+00 0. -1.
         25    2    1    2    0    0  0.20508273744E+03 -0.24506123631E+03  0.21748166842E+04  0.22017188471E+04  0.12499733284E+03 0.  0.
          2    1    1    2  501    0 -0.19478914264E+03  0.28874564021E+03  0.70595168407E+02  0.35538786225E+03  0.00000000000E+00 0. -1.
          1    1    1    2  502    0 -0.10293594797E+02 -0.43684403902E+02  0.12041261631E+04  0.12049622824E+04  0.00000000000E+00 0. -1.
         22    1    3    3    0    0  0.17873420151E+02 -0.28985479880E+02  0.73056985952E+02  0.80603600343E+02  0.00000000000E+00 0.  1.
         22    1    3    3    0    0  0.18720931729E+03 -0.21607575642E+03  0.21017596983E+04  0.21211152468E+04  0.00000000000E+00 0.  1.
</event>
<event>
 7    1  0.6510186E-006  0.6437001E+02  0.7818608E-02  0.1426393E+00
          2   -1    0    0  502    0  0.00000000000E+00  0.00000000000E+00  0.12004849697E+04  0.12004849697E+04  0.00000000000E+00 0. -1.
          1   -1    0    0  501    0 -0.00000000000E+00 -0.00000000000E+00 -0.94324118827E+02  0.94324118827E+02  0.00000000000E+00 0. -1.
         25    2    1    2    0    0  0.21812483794E+02  0.57447190429E+02  0.34741279547E+03  0.37429472051E+03  0.12499969284E+03 0.  0.
          2    1    1    2  501    0 -0.44554938678E+02  0.45186977418E+01 -0.73275286118E+02  0.85876823099E+02  0.00000000000E+00 0. -1.
          1    1    1    2  502    0  0.22742454884E+02 -0.61965888171E+02  0.83202334156E+03  0.83463754496E+03  0.00000000000E+00 0. -1.
         22    1    3    3    0    0  0.13366790376E+02  0.93658825640E+02  0.29664603127E+03  0.31136717004E+03  0.00000000000E+00 0. -1.
         22    1    3    3    0    0  0.84456934182E+01 -0.36211635211E+02  0.50766764196E+02  0.62927550476E+02  0.00000000000E+00 0. -1.
</event>
<event>
 7    1  0.6510186E-006  0.2633479E+03  0.7818608E-02  0.1235735E+00
          2   -1    0    0  502    0  0.00000000000E+00  0.00000000000E+00  0.36664383889E+04  0.36664383889E+04  0.00000000000E+00 0. -1.
          1   -1    0    0  501    0 -0.00000000000E+00 -0.00000000000E+00 -0.17980410757E+04  0.17980410757E+04  0.00000000000E+00 0. -1.
         25    2    1    2    0    0  0.68230467129E+02 -0.20522811832E+03 -0.25828093413E+02  0.25113779648E+03  0.12501649980E+03 0.  0.
          2    1    1    2  501    0 -0.11373454387E+03  0.24267209789E+03 -0.16484915503E+04  0.16701346308E+04  0.00000000000E+00 0. -1.
          1    1    1    2  502    0  0.45504076736E+02 -0.37443979577E+02  0.35427169569E+04  0.35432070374E+04  0.00000000000E+00 0. -1.
         22    1    3    3    0    0  0.21386992230E+02 -0.89634979967E+02 -0.73234933481E+02  0.11770806494E+03  0.00000000000E+00 0.  1.
         22    1    3    3    0    0  0.46843474899E+02 -0.11559313835E+03  0.47406840068E+02  0.13342973154E+03  0.00000000000E+00 0.  1.
</event>
<event>
 7    1  0.6510186E-006  0.1261124E+03  0.7818608E-02  0.1371287E+00
          2   -1    0    0  502    0  0.00000000000E+00  0.00000000000E+00  0.21148165994E+04  0.21148165994E+04  0.00000000000E+00 0. -1.
          1   -1    0    0  501    0 -0.00000000000E+00 -0.00000000000E+00 -0.92027745486E+02  0.92027745486E+02  0.00000000000E+00 0. -1.
         25    2    1    2    0    0 -0.42237084076E+01 -0.10267878304E+03  0.71315726791E+03  0.73128568843E+03  0.12499878854E+03 0.  0.
          2    1    1    2  501    0 -0.22514467354E+02  0.12586985855E+03 -0.33322503575E+02  0.13213822980E+03  0.00000000000E+00 0. -1.
          1    1    1    2  502    0  0.26738175762E+02 -0.23191075503E+02  0.13429540896E+04  0.13434204267E+04  0.00000000000E+00 0. -1.
         22    1    3    3    0    0  0.58454276112E+02 -0.40243656338E+02  0.38073269368E+03  0.38729037983E+03  0.00000000000E+00 0.  1.
         22    1    3    3    0    0 -0.62677984520E+02 -0.62435126704E+02  0.33242457423E+03  0.34399530860E+03  0.00000000000E+00 0.  1.
</event>
<event>
 7    1  0.6510186E-006  0.6141321E+02  0.7818608E-02  0.1480399E+00
          2   -1    0    0  502    0  0.00000000000E+00  0.00000000000E+00  0.12722304378E+04  0.12722304378E+04  0.00000000000E+00 0. -1.
          1   -1    0    0  501    0 -0.00000000000E+00 -0.00000000000E+00 -0.23075716087E+03  0.23075716087E+03  0.00000000000E+00 0. -1.
         25    2    1    2    0    0  0.61052336323E+01  0.87921454095E+02  0.44442198461E+02  0.15927277094E+03  0.12500100235E+03 0.  0.
          2    1    1    2  501    0  0.78974832276E+01 -0.59607463452E+02 -0.16790705257E+03  0.17834853025E+03  0.00000000000E+00 0. -1.
          1    1    1    2  502    0 -0.14002716860E+02 -0.28313990643E+02  0.11649381311E+04  0.11653662975E+04  0.00000000000E+00 0. -1.
         22    1    3    3    0    0 -0.55751452044E+02  0.19061998551E+02  0.28102250657E+02  0.65278792006E+02  0.00000000000E+00 0.  1.
         22    1    3    3    0    0  0.61856685677E+02  0.68859455544E+02  0.16339947804E+02  0.93993978929E+02  0.00000000000E+00 0.  1.
</event>
<event>
 7    1  0.6510186E-006  0.6984083E+02  0.7818608E-02  0.1489264E+00
          2   -1    0    0  502    0  0.00000000000E+00  0.00000000000E+00  0.38665945427E+02  0.38665945427E+02  0.00000000000E+00 0. -1.
          1   -1    0    0  501    0 -0.00000000000E+00 -0.00000000000E+00 -0.20093947043E+04  0.20093947043E+04  0.00000000000E+00 0. -1.
         25    2    1    2    0    0  0.74481004469E+01 -0.43874769371E+02 -0.11931721486E+04  0.12005270671E+04  0.12499997230E+03 0.  0.
          2    1    1    2  501    0  0.38348702452E+01 -0.25817397424E+02 -0.77648733892E+03  0.77692588562E+03  0.00000000000E+00 0. -1.
          1    1    1    2  502    0 -0.11282970692E+02  0.69692166795E+02 -0.10692713922E+01  0.70607697042E+02  0.00000000000E+00 0. -1.
         22    1    3    3    0    0 -0.61551625994E+01  0.29712578781E+01 -0.49494240513E+00  0.68526905656E+01  0.00000000000E+00 0.  1.
         22    1    3    3    0    0  0.13603263046E+02 -0.46846027249E+02 -0.11926772062E+04  0.11936743766E+04  0.00000000000E+00 0.  1.
</event>
<event>
 7    1  0.6510186E-006  0.4925442E+02  0.7818608E-02  0.1481543E+00
          2   -1    0    0  502    0  0.00000000000E+00  0.00000000000E+00  0.21981622208E+03  0.21981622208E+03  0.00000000000E+00 0. -1.
          1   -1    0    0  501    0 -0.00000000000E+00 -0.00000000000E+00 -0.27446062934E+04  0.27446062934E+04  0.00000000000E+00 0. -1.
         25    2    1    2    0    0 -0.36996071578E+02 -0.39168322264E+02 -0.16400154756E+03  0.21312840136E+03  0.12499736430E+03 0.  0.
          2    1    1    2  501    0  0.49311927952E+02  0.20920172869E+01 -0.25538461804E+04  0.25543230719E+04  0.00000000000E+00 0. -1.
          1    1    1    2  502    0 -0.12315856374E+02  0.37076304978E+02  0.19305765659E+03  0.19697104223E+03  0.00000000000E+00 0. -1.
         22    1    3    3    0    0  0.12172773226E+01 -0.25927477071E+02 -0.17024036040E+03  0.17220771220E+03  0.00000000000E+00 0. -1.
         22    1    3    3    0    0 -0.38213348901E+02 -0.13240845193E+02  0.62388128401E+01  0.40920689160E+02  0.00000000000E+00 0. -1.
</event>
<event>
 7    1  0.6510186E-006  0.7170368E+02  0.7818608E-02  0.1391367E+00
          2   -1    0    0  502    0  0.00000000000E+00  0.00000000000E+00  0.27271767527E+04  0.27271767527E+04  0.00000000000E+00 0. -1.
          1   -1    0    0  501    0 -0.00000000000E+00 -0.00000000000E+00 -0.15876031703E+04  0.15876031703E+04  0.00000000000E+00 0. -1.
         25    2    1    2    0    0  0.92210837047E+01 -0.19128807573E+02 -0.12575517941E+02  0.12741265057E+03  0.12499960083E+03 0.  0.
          2    1    1    2  501    0 -0.51056295220E+02  0.51447902755E+02 -0.15164817058E+04  0.15182128955E+04  0.00000000000E+00 0. -1.
          1    1    1    2  502    0  0.41835211515E+02 -0.32319095181E+02  0.26686308061E+04  0.26691543770E+04  0.00000000000E+00 0. -1.
         22    1    3    3    0    0  0.64346174285E+02  0.57082963134E+01 -0.16971359068E+02  0.66791030988E+02  0.00000000000E+00 0.  1.
         22    1    3    3    0    0 -0.55125090580E+02 -0.24837103887E+02  0.43958411276E+01  0.60621619577E+02  0.00000000000E+00 0.  1.
</event>
<event>
 7    1  0.6510186E-006  0.1238021E+03  0.7818608E-02  0.1444263E+00
          2   -1    0    0  502    0  0.00000000000E+00  0.00000000000E+00  0.34746351123E+03  0.34746351123E+03  0.00000000000E+00 0. -1.
          1   -1    0    0  501    0 -0.00000000000E+00 -0.00000000000E+00 -0.26146994726E+04  0.26146994726E+04  0.00000000000E+00 0. -1.
         25    2    1    2    0    0  0.11220301079E+03 -0.62653321954E+02 -0.12402709033E+03  0.21799693769E+03  0.12499996530E+03 0.  0.
          2    1    1    2  501    0 -0.11610179747E+03  0.42674315779E+02 -0.24417753484E+04  0.24449064556E+04  0.00000000000E+00 0. -1.
          1    1    1    2  502    0  0.38987866777E+01  0.19979006175E+02  0.29856647728E+03  0.29925959062E+03  0.00000000000E+00 0. -1.
         22    1    3    3    0    0  0.38799104559E+02  0.12312910491E+02  0.15384154412E+02  0.43516094567E+02  0.00000000000E+00 0. -1.
         22    1    3    3    0    0  0.73403906232E+02 -0.74966232445E+02 -0.13941124474E+03  0.17448084313E+03  0.00000000000E+00 0. -1.
</event>
<event>
 7    1  0.6510186E-006  0.5946316E+02  0.7818608E-02  0.1485435E+00
          2   -1    0    0  502    0  0.00000000000E+00  0.00000000000E+00  0.17307399535E+03  0.17307399535E+03  0.00000000000E+00 0. -1.
          1   -1    0    0  501    0 -0.00000000000E+00 -0.00000000000E+00 -0.54088692748E+03  0.54088692748E+03  0.00000000000E+00 0. -1.
         25    2    1    2    0    0 -0.74587423263E+02 -0.43666125104E+02 -0.13905959127E+03  0.20599312220E+03  0.12500232910E+03 0.  0.
          2    1    1    2  501    0  0.31185581366E+02  0.43512314228E+01 -0.36150483350E+03  0.36287355696E+03  0.00000000000E+00 0. -1.
          1    1    1    2  502    0  0.43401841897E+02  0.39314893681E+02  0.13275149264E+03  0.14509424366E+03  0.00000000000E+00 0. -1.
         22    1    3    3    0    0 -0.56037035047E+02 -0.73916966280E+02 -0.40450566666E+02  0.10119345604E+03  0.00000000000E+00 0.  1.
         22    1    3    3    0    0 -0.18550388217E+02  0.30250841176E+02 -0.98609024608E+02  0.10479966617E+03  0.00000000000E+00 0.  1.
</event>
<event>
 7    1  0.6510186E-006  0.6690204E+02  0.7818608E-02  0.1531753E+00
          2   -1    0    0  502    0  0.00000000000E+00  0.00000000000E+00  0.10478391109E+04  0.10478391109E+04  0.00000000000E+00 0. -1.
          1   -1    0    0  501    0 -0.00000000000E+00 -0.00000000000E+00 -0.35255591663E+03  0.35255591663E+03  0.00000000000E+00 0. -1.
         25    2    1    2    0    0 -0.82888301237E+02  0.16343586514E+02  0.21384942410E+03  0.26171494569E+03  0.12500221322E+03 0.  0.
          2    1    1    2  501    0  0.66536703194E+02 -0.40922864307E+01 -0.32511176415E+03  0.33187578831E+03  0.00000000000E+00 0. -1.
          1    1    1    2  502    0  0.16351598042E+02 -0.12251300083E+02  0.80654553436E+03  0.80680429356E+03  0.00000000000E+00 0. -1.
         22    1    3    3    0    0 -0.10037610236E+03  0.22877070724E+02  0.21930372436E+03  0.24226606409E+03  0.00000000000E+00 0. -1.
         22    1    3    3    0    0  0.17487801128E+02 -0.65334842099E+01 -0.54543002634E+01  0.19448881602E+02  0.00000000000E+00 0. -1.
</event>
<event>
 7    1  0.6510186E-006  0.5822194E+02  0.7818608E-02  0.1480631E+00
          2   -1    0    0  502    0  0.00000000000E+00  0.00000000000E+00  0.26101674405E+03  0.26101674405E+03  0.00000000000E+00 0. -1.
          1   -1    0    0  501    0 -0.00000000000E+00 -0.00000000000E+00 -0.67975744658E+03  0.67975744658E+03  0.00000000000E+00 0. -1.
         25    2    1    2    0    0 -0.12180403457E+02  0.26304436286E+02 -0.13104048494E+03  0.18340405208E+03  0.12500060812E+03 0.  0.
          2    1    1    2  501    0  0.95824305480E+01 -0.59467090578E+02 -0.51960862395E+03  0.52308821428E+03  0.00000000000E+00 0. -1.
          1    1    1    2  502    0  0.25979729095E+01  0.33162654292E+02  0.23190840635E+03  0.23428192427E+03  0.00000000000E+00 0. -1.
         22    1    3    3    0    0  0.51549549583E+02 -0.77228311524E+01 -0.33270491860E+02  0.61837883307E+02  0.00000000000E+00 0. -1.
         22    1    3    3    0    0 -0.63729953041E+02  0.34027267439E+02 -0.97769993078E+02  0.12156616877E+03  0.00000000000E+00 0. -1.
</event>
<event>
 7    1  0.6510186E-006  0.2110299E+03  0.7818608E-02  0.1324021E+00
          2   -1    0    0  502    0  0.00000000000E+00  0.00000000000E+00  0.46747748546E+03  0.46747748546E+03  0.00000000000E+00 0. -1.
          1   -1    0    0  501    0 -0.00000000000E+00 -0.00000000000E+00 -0.63811253997E+03  0.63811253997E+03  0.00000000000E+00 0. -1.
         25    2    1    2    0    0  0.19592629963E+03  0.10408314612E+03 -0.71943933453E+02  0.26462223116E+03  0.12501431706E+03 0.  0.
          2    1    1    2  501    0 -0.19585789378E+03 -0.72376154761E+02 -0.44587213034E+03  0.49234193295E+03  0.00000000000E+00 0. -1.
          1    1    1    2  502    0 -0.68405849285E-01 -0.31706991356E+02  0.34718100927E+03  0.34862586132E+03  0.00000000000E+00 0. -1.
         22    1    3    3    0    0 -0.17050723392E+02  0.17243222170E+02 -0.25645655133E+01  0.24385095351E+02  0.00000000000E+00 0.  1.
         22    1    3    3    0    0  0.21297702302E+03  0.86839923947E+02 -0.69379367939E+02  0.24023713581E+03  0.00000000000E+00 0.  1.
</event>
<event>
 7    1  0.6510186E-006  0.8799031E+02  0.7818608E-02  0.1405982E+00
          2   -1    0    0  502    0  0.00000000000E+00  0.00000000000E+00  0.32906548244E+04  0.32906548244E+04  0.00000000000E+00 0. -1.
          1   -1    0    0  501    0 -0.00000000000E+00 -0.00000000000E+00 -0.42066778246E+02  0.42066778246E+02  0.00000000000E+00 0. -1.
         25    2    1    2    0    0 -0.76992497644E+02  0.12434951597E+02  0.37666845862E+03  0.40445809523E+03  0.12499900146E+03 0.  0.
          2    1    1    2  501    0  0.75582833035E+02 -0.50772530688E+02  0.45871310540E+02  0.10195485105E+03  0.00000000000E+00 0. -1.
          1    1    1    2  502    0  0.14096646085E+01  0.38337579091E+02  0.28260482769E+04  0.28263086563E+04  0.00000000000E+00 0. -1.
         22    1    3    3    0    0 -0.93306030282E+02 -0.22183263403E+02  0.17855277389E+03  0.20268005705E+03  0.00000000000E+00 0.  1.
         22    1    3    3    0    0  0.16313532638E+02  0.34618215001E+02  0.19811568473E+03  0.20177803818E+03  0.00000000000E+00 0.  1.
</event>
<event>
 7    1  0.6510186E-006  0.1223209E+03  0.7818608E-02  0.1269963E+00
          2   -1    0    0  502    0  0.00000000000E+00  0.00000000000E+00  0.12653366221E+04  0.12653366221E+04  0.00000000000E+00 0. -1.
          1   -1    0    0  501    0 -0.00000000000E+00 -0.00000000000E+00 -0.67867450312E+02  0.67867450312E+02  0.00000000000E+00 0. -1.
         25    2    1    2    0    0 -0.31950399683E+02 -0.11534385383E+03  0.66465898363E+03  0.68682148169E+03  0.12500860183E+03 0.  0.
          2    1    1    2  501    0  0.10736202988E+03  0.65730705744E+02  0.22166921114E+02  0.12782215586E+03  0.00000000000E+00 0. -1.
          1    1    1    2  502    0 -0.75411630193E+02  0.49613148085E+02  0.51064326709E+03  0.51856043491E+03  0.00000000000E+00 0. -1.
         22    1    3    3    0    0 -0.63501402140E+02 -0.33846164884E+02  0.43849722362E+03  0.44436224645E+03  0.00000000000E+00 0.  1.
         22    1    3    3    0    0  0.31551002456E+02 -0.81497688945E+02  0.22616176001E+03  0.24245923524E+03  0.00000000000E+00 0.  1.
</event>
<event>
 7    1  0.6510186E-006  0.7974742E+02  0.7818608E-02  0.1405736E+00
          2   -1    0    0  502    0  0.00000000000E+00  0.00000000000E+00  0.41029453081E+03  0.41029453081E+03  0.00000000000E+00 0. -1.
          1   -1    0    0  501    0 -0.00000000000E+00 -0.00000000000E+00 -0.73951989073E+03  0.73951989073E+03  0.00000000000E+00 0. -1.
         25    2    1    2    0    0  0.54075329944E+02  0.10756700957E+03 -0.20040615693E+03  0.26511923398E+03  0.12502310842E+03 0.  0.
          2    1    1    2  501    0 -0.25522967113E+02 -0.33870969350E+02 -0.50172088141E+03  0.50351018585E+03  0.00000000000E+00 0. -1.
          1    1    1    2  502    0 -0.28552362831E+02 -0.73696040221E+02  0.37290167841E+03  0.38118500171E+03  0.00000000000E+00 0. -1.
         22    1    3    3    0    0 -0.17261461861E+02  0.99942768616E+02 -0.10841707225E+03  0.14846136406E+03  0.00000000000E+00 0. -1.
         22    1    3    3    0    0  0.71336791805E+02  0.76242409553E+01 -0.91989084674E+02  0.11665786992E+03  0.00000000000E+00 0. -1.
</event>
<event>
 7    1  0.1111411E-005  0.1293609E+03  0.7818608E-02  0.1325734E+00
          2   -1    0    0  502    0  0.00000000000E+00  0.00000000000E+00  0.15960007414E+04  0.15960007414E+04  0.00000000000E+00 0. -1.
          1   -1    0    0  501    0 -0.00000000000E+00 -0.00000000000E+00 -0.15510741164E+04  0.15510741164E+04  0.00000000000E+00 0. -1.
         25    2    1    2    0    0 -0.16999265371E+03 -0.22148338072E+02 -0.34446741179E+03  0.40456028797E+03  0.12499271029E+03 0.  0.
          2    1    1    2  501    0  0.12487485393E+03 -0.15111164010E+01 -0.11728299718E+04  0.11794601119E+04  0.00000000000E+00 0. -1.
          1    1    1    2  502    0  0.45117799776E+02  0.23659454473E+02  0.15622240086E+04  0.15630544580E+04  0.00000000000E+00 0. -1.
         22    1    3    3    0    0 -0.46415106695E+01  0.46086415158E+01  0.10320897625E+02  0.12219006740E+02  0.00000000000E+00 0.  1.
         22    1    3    3    0    0 -0.16535114304E+03 -0.26756979587E+02 -0.35478830942E+03  0.39234128123E+03  0.00000000000E+00 0.  1.
</event>
<event>
 7    1  0.6510186E-006  0.9354865E+02  0.7818608E-02  0.1433214E+00
          2   -1    0    0  502    0  0.00000000000E+00  0.00000000000E+00  0.25738730799E+03  0.25738730799E+03  0.00000000000E+00 0. -1.
          1   -1    0    0  501    0 -0.00000000000E+00 -0.00000000000E+00 -0.10819222926E+04  0.10819222926E+04  0.00000000000E+00 0. -1.
         25    2    1    2    0    0 -0.68885749537E+02 -0.87233221247E+02 -0.78491894280E+03  0.80254388014E+03  0.12499620558E+03 0.  0.
          2    1    1    2  501    0  0.50561167087E+02  0.64419356599E+02 -0.28147357781E+03  0.29314443561E+03  0.00000000000E+00 0. -1.
          1    1    1    2  502    0  0.18324582450E+02  0.22813864648E+02  0.24185753597E+03  0.24362128488E+03  0.00000000000E+00 0. -1.
         22    1    3    3    0    0 -0.31808053554E+02  0.16488136636E+02 -0.64760302478E+02  0.74010186445E+02  0.00000000000E+00 0.  1.
         22    1    3    3    0    0 -0.37077695983E+02 -0.10372135788E+03 -0.72015864032E+03  0.72853369369E+03  0.00000000000E+00 0.  1.
</event>
<event>
 7    1  0.6510186E-006  0.1031689E+03  0.7818608E-02  0.1306074E+00
          2   -1    0    0  502    0  0.00000000000E+00  0.00000000000E+00  0.11623559585E+03  0.11623559585E+03  0.00000000000E+00 0. -1.
          1   -1    0    0  501    0 -0.00000000000E+00 -0.00000000000E+00 -0.86540677661E+03  0.86540677661E+03  0.00000000000E+00 0. -1.
         25    2    1    2    0    0  0.12248637358E+03  0.10153065670E+03 -0.17392016049E+03  0.26680544648E+03  0.12500215232E+03 0.  0.
          2    1    1    2  501    0 -0.73787440696E+02 -0.19144164589E+02 -0.60870143144E+03  0.61345620714E+03  0.00000000000E+00 0. -1.
          1    1    1    2  502    0 -0.48698932881E+02 -0.82386492108E+02  0.33450411176E+02  0.10138071884E+03  0.00000000000E+00 0. -1.
         22    1    3    3    0    0  0.69668464925E+02  0.37537945097E+02 -0.58313079887E+01  0.79352356487E+02  0.00000000000E+00 0. -1.
         22    1    3    3    0    0  0.52817908651E+02  0.63992711601E+02 -0.16808885251E+03  0.18745309000E+03  0.00000000000E+00 0. -1.
</event>
<event>
 7    1  0.6510186E-006  0.1713834E+03  0.7818608E-02  0.1269526E+00
          2   -1    0    0  502    0  0.00000000000E+00  0.00000000000E+00  0.32693073880E+04  0.32693073880E+04  0.00000000000E+00 0. -1.
          1   -1    0    0  501    0 -0.00000000000E+00 -0.00000000000E+00 -0.76642808501E+03  0.76642808501E+03  0.00000000000E+00 0. -1.
         25    2    1    2    0    0 -0.11170875138E+03 -0.19355457774E+02  0.82148022129E+02  0.18765303022E+03  0.12494752231E+03 0.  0.
          2    1    1    2  501    0  0.17579904402E+03  0.10494162008E+02 -0.70247075268E+03  0.72421032145E+03  0.00000000000E+00 0. -1.
          1    1    1    2  502    0 -0.64090292645E+02  0.88612957662E+01  0.31232020336E+04  0.31238721214E+04  0.00000000000E+00 0. -1.
         22    1    3    3    0    0 -0.12605697475E+03  0.15809496034E+02  0.45701087930E+02  0.13501440844E+03  0.00000000000E+00 0. -1.
         22    1    3    3    0    0  0.14348223377E+02 -0.35164953808E+02  0.36446934200E+02  0.52638621780E+02  0.00000000000E+00 0. -1.
</event>
<event>
 7    1  0.6510186E-006  0.7706420E+02  0.7818608E-02  0.1341807E+00
          2   -1    0    0  502    0  0.00000000000E+00  0.00000000000E+00  0.13132695312E+03  0.13132695312E+03  0.00000000000E+00 0. -1.
          1   -1    0    0  501    0 -0.00000000000E+00 -0.00000000000E+00 -0.28174750186E+04  0.28174750186E+04  0.00000000000E+00 0. -1.
         25    2    1    2    0    0  0.12953083399E+03 -0.41364209241E+02 -0.22435470486E+03  0.29060254823E+03  0.12500229072E+03 0.  0.
          2    1    1    2  501    0 -0.55554488091E+02  0.49340920122E+02 -0.25452824327E+04  0.25463667234E+04  0.00000000000E+00 0. -1.
          1    1    1    2  502    0 -0.73976345902E+02 -0.79767108810E+01  0.83489072061E+02  0.11183270015E+03  0.00000000000E+00 0. -1.
         22    1    3    3    0    0  0.14866867626E+03 -0.19539253135E+02 -0.21047956478E+03  0.25842949697E+03  0.00000000000E+00 0. -1.
         22    1    3    3    0    0 -0.19137842262E+02 -0.21824956106E+02 -0.13875140074E+02  0.32173051262E+02  0.00000000000E+00 0. -1.
</event>
<event>
 7    1  0.6510186E-006  0.7380027E+02  0.7818608E-02  0.1369990E+00
          2   -1    0    0  502    0  0.00000000000E+00  0.00000000000E+00  0.46220465371E+03  0.46220465371E+03  0.00000000000E+00 0. -1.
          1   -1    0    0  501    0 -0.00000000000E+00 -0.00000000000E+00 -0.97011298762E+02  0.97011298762E+02  0.00000000000E+00 0. -1.
         25    2    1    2    0    0  0.61842597094E+02  0.73629357986E+02  0.19947014087E+03  0.25427993127E+03  0.12499662867E+03 0.  0.
          2    1    1    2  501    0 -0.61128139783E+02 -0.92490742843E+00 -0.48928929191E+02  0.78304182767E+02  0.00000000000E+00 0. -1.
          1    1    1    2  502    0 -0.71445731113E+00 -0.72704450557E+02  0.21465214327E+03  0.22663183844E+03  0.00000000000E+00 0. -1.
         22    1    3    3    0    0  0.25984871331E+02  0.94369894459E+02  0.75632904499E+02  0.12369812756E+03  0.00000000000E+00 0. -1.
         22    1    3    3    0    0  0.35857725763E+02 -0.20740536473E+02  0.12383723637E+03  0.13058180371E+03  0.00000000000E+00 0. -1.
</event>
<event>
 7    1  0.6510186E-006  0.7984809E+02  0.7818608E-02  0.1354405E+00
          2   -1    0    0  502    0  0.00000000000E+00  0.00000000000E+00  0.10620607273E+04  0.10620607273E+04  0.00000000000E+00 0. -1.
          1   -1    0    0  501    0 -0.00000000000E+00 -0.00000000000E+00 -0.10380244394E+03  0.10380244394E+03  0.00000000000E+00 0. -1.
         25    2    1    2    0    0 -0.18220028614E+02  0.61266777037E+02  0.13534545053E+03  0.19501149822E+03  0.12500202418E+03 0.  0.
          2    1    1    2  501    0 -0.57487964249E+02 -0.28989435260E+02 -0.57667433616E+02  0.86433710380E+02  0.00000000000E+00 0. -1.
          1    1    1    2  502    0  0.75707992863E+02 -0.32277341777E+02  0.88058026648E+03  0.88441796267E+03  0.00000000000E+00 0. -1.
         22    1    3    3    0    0  0.19396557390E+02 -0.16882148488E+02  0.96699439009E+02  0.10006005637E+03  0.00000000000E+00 0. -1.
         22    1    3    3    0    0 -0.37616586004E+02  0.78148925525E+02  0.38646011525E+02  0.94951441854E+02  0.00000000000E+00 0. -1.
</event>
<event>
 7    1  0.6510186E-006  0.1779304E+03  0.7818608E-02  0.1315621E+00
          2   -1    0    0  502    0  0.00000000000E+00  0.00000000000E+00  0.49064906412E+03  0.49064906412E+03  0.00000000000E+00 0. -1.
          1   -1    0    0  501    0 -0.00000000000E+00 -0.00000000000E+00 -0.15877298514E+04  0.15877298514E+04  0.00000000000E+00 0. -1.
         25    2    1    2    0    0 -0.13296155911E+03 -0.46367005035E+02  0.67328216527E+02  0.19996802580E+03  0.12500178896E+03 0.  0.
          2    1    1    2  501    0  0.17349343521E+03  0.45721520168E+02 -0.15149482588E+04  0.15255355309E+04  0.00000000000E+00 0. -1.
          1    1    1    2  502    0 -0.40531876101E+02  0.64548486678E+00  0.35053925491E+03  0.35287535882E+03  0.00000000000E+00 0. -1.
         22    1    3    3    0    0 -0.24217340149E+02  0.48698063498E+01 -0.34496105704E+02  0.42428479663E+02  0.00000000000E+00 0. -1.
         22    1    3    3    0    0 -0.10874421896E+03 -0.51236811384E+02  0.10182432223E+03  0.15753954613E+03  0.00000000000E+00 0. -1.
</event>
<event>
 7    1  0.6510186E-006  0.6671948E+02  0.7818608E-02  0.1395017E+00
          2   -1    0    0  502    0  0.00000000000E+00  0.00000000000E+00  0.65574929128E+01  0.65574929128E+01  0.00000000000E+00 0. -1.
          1   -1    0    0  501    0 -0.00000000000E+00 -0.00000000000E+00 -0.38594439987E+04  0.38594439987E+04  0.00000000000E+00 0. -1.
         25    2    1    2    0    0  0.50549838506E+02  0.11074005495E+02 -0.98213761918E+03  0.99141144212E+03  0.12499769912E+03 0.  0.
          2    1    1    2  501    0 -0.31749436687E+02 -0.62952080255E+02 -0.23228049568E+04  0.23238747510E+04  0.00000000000E+00 0. -1.
          1    1    1    2  502    0 -0.18800401819E+02  0.51878074761E+02 -0.54794392982E+03  0.55071529847E+03  0.00000000000E+00 0. -1.
         22    1    3    3    0    0  0.75778586108E+00  0.63104887192E+02 -0.43475198434E+03  0.43930864881E+03  0.00000000000E+00 0. -1.
         22    1    3    3    0    0  0.49792052645E+02 -0.52030881698E+02 -0.54738563483E+03  0.55210279331E+03  0.00000000000E+00 0. -1.
</event>
<event>
 7    1  0.6510186E-006  0.3313230E+02  0.7818608E-02  0.1587402E+00
          2   -1    0    0  502    0  0.00000000000E+00  0.00000000000E+00  0.40901073548E+03  0.40901073548E+03  0.00000000000E+00 0. -1.
          1   -1    0    0  501    0 -0.00000000000E+00 -0.00000000000E+00 -0.13620176146E+04  0.13620176146E+04  0.00000000000E+00 0. -1.
         25    2    1    2    0    0  0.53740076242E+02 -0.25218526728E+02  0.42690794927E+02  0.14481304120E+03  0.12499737215E+03 0.  0.
          2    1    1    2  501    0 -0.21532879698E+02  0.19403108234E+02 -0.13099463399E+04  0.13102669800E+04  0.00000000000E+00 0. -1.
          1    1    1    2  502    0 -0.32207196545E+02  0.58154184937E+01  0.31424866579E+03  0.31594832893E+03  0.00000000000E+00 0. -1.
         22    1    3    3    0    0 -0.86129344213E+01 -0.42166787165E+01  0.72106812842E+02  0.72741703836E+02  0.00000000000E+00 0. -1.
         22    1    3    3    0    0  0.62353010664E+02 -0.21001848011E+02 -0.29416017915E+02  0.72071337359E+02  0.00000000000E+00 0. -1.
</event>
<event>
 7    1  0.6510186E-006  0.1074748E+03  0.7818608E-02  0.1279920E+00
          2   -1    0    0  502    0  0.00000000000E+00  0.00000000000E+00  0.21843684181E+04  0.21843684181E+04  0.00000000000E+00 0. -1.
          1   -1    0    0  501    0 -0.00000000000E+00 -0.00000000000E+00 -0.20564324789E+02  0.20564324789E+02  0.00000000000E+00 0. -1.
         25    2    1    2    0    0  0.28549578496E+02  0.48295157230E+02  0.13614324127E+04  0.13683095389E+04  0.12500111660E+03 0.  0.
          2    1    1    2  501    0 -0.11900283566E+03 -0.25104832385E+02  0.27005524574E+03  0.29617860027E+03  0.00000000000E+00 0. -1.
          1    1    1    2  502    0  0.90453257163E+02 -0.23190324846E+02  0.53231643485E+03  0.54044460374E+03  0.00000000000E+00 0. -1.
         22    1    3    3    0    0 -0.98334004008E+01  0.32812244106E+01  0.68258077054E+01  0.12411843050E+02  0.00000000000E+00 0.  1.
         22    1    3    3    0    0  0.38382978897E+02  0.45013932820E+02  0.13546066050E+04  0.13558976958E+04  0.00000000000E+00 0.  1.
</event>
<event>
 7    1  0.6510186E-006  0.5964106E+02  0.7818608E-02  0.1433446E+00
          2   -1    0    0  502    0  0.00000000000E+00  0.00000000000E+00  0.42359253572E+03  0.42359253572E+03  0.00000000000E+00 0. -1.
          1   -1    0    0  501    0 -0.00000000000E+00 -0.00000000000E+00 -0.53582301445E+03  0.53582301445E+03  0.00000000000E+00 0. -1.
         25    2    1    2    0    0 -0.11274589869E+02 -0.10848982943E+02 -0.32728564684E+01  0.12601891017E+03  0.12500094929E+03 0.  0.
          2    1    1    2  501    0 -0.30113624225E+02 -0.34531705242E+02 -0.46744534019E+03  0.46968544271E+03  0.00000000000E+00 0. -1.
          1    1    1    2  502    0  0.41388214093E+02  0.45380688185E+02  0.35848771793E+03  0.36371119729E+03  0.00000000000E+00 0. -1.
         22    1    3    3    0    0 -0.16808576221E+02 -0.66928987227E+02  0.43952166550E+01  0.69147201644E+02  0.00000000000E+00 0. -1.
         22    1    3    3    0    0  0.55339863518E+01  0.56080004284E+02 -0.76680731234E+01  0.56871708528E+02  0.00000000000E+00 0. -1.
</event>
<event>
 7    1  0.6510186E-006  0.8149607E+02  0.7818608E-02  0.1412983E+00
          2   -1    0    0  502    0  0.00000000000E+00  0.00000000000E+00  0.24410627197E+04  0.24410627197E+04  0.00000000000E+00 0. -1.
          1   -1    0    0  501    0 -0.00000000000E+00 -0.00000000000E+00 -0.10916087207E+04  0.10916087207E+04  0.00000000000E+00 0. -1.
         25    2    1    2    0    0 -0.63447960733E+02  0.66755848069E+02 -0.13901510665E+02  0.15589371445E+03  0.12501044449E+03 0.  0.
          2    1    1    2  501    0 -0.12474923611E+02 -0.37180061461E+02 -0.10056284994E+04  0.10063928952E+04  0.00000000000E+00 0. -1.
          1    1    1    2  502    0  0.75922884344E+02 -0.29575786608E+02  0.23689840090E+04  0.23703848308E+04  0.00000000000E+00 0. -1.
         22    1    3    3    0    0 -0.54742399788E+02 -0.25419586803E+02  0.76320132077E+01  0.60836940697E+02  0.00000000000E+00 0. -1.
         22    1    3    3    0    0 -0.87055609442E+01  0.92175434871E+02 -0.21533523873E+02  0.95056773749E+02  0.00000000000E+00 0. -1.
</event>
<event>
 7    1  0.6510186E-006  0.1930362E+03  0.7818608E-02  0.1228847E+00
          2   -1    0    0  502    0  0.00000000000E+00  0.00000000000E+00  0.63457027345E+03  0.63457027345E+03  0.00000000000E+00 0. -1.
          1   -1    0    0  501    0 -0.00000000000E+00 -0.00000000000E+00 -0.88241241293E+03  0.88241241293E+03  0.00000000000E+00 0. -1.
         25    2    1    2    0    0  0.14267253411E+03  0.82236780358E+02 -0.39944306207E+02  0.21056701597E+03  0.12499832233E+03 0.  0.
          2    1    1    2  501    0 -0.11418115571E+03 -0.16369328593E+03 -0.74047095964E+03  0.76689638820E+03  0.00000000000E+00 0. -1.
          1    1    1    2  502    0 -0.28491378395E+02  0.81456505569E+02  0.53257312637E+03  0.53951928221E+03  0.00000000000E+00 0. -1.
         22    1    3    3    0    0  0.10245260532E+02  0.73336212481E+01  0.37705125381E+02  0.39754544947E+02  0.00000000000E+00 0. -1.
         22    1    3    3    0    0  0.13242727358E+03  0.74903159110E+02 -0.77649431588E+02  0.17081247102E+03  0.00000000000E+00 0. -1.
</event>
<event>
 7    1  0.6510186E-006  0.1064204E+03  0.7818608E-02  0.1284120E+00
          2   -1    0    0  502    0  0.00000000000E+00  0.00000000000E+00  0.21351664986E+04  0.21351664986E+04  0.00000000000E+00 0. -1.
          1   -1    0    0  501    0 -0.00000000000E+00 -0.00000000000E+00 -0.16149032889E+03  0.16149032889E+03  0.00000000000E+00 0. -1.
         25    2    1    2    0    0  0.11687168893E+02  0.18687253937E+03  0.21127834078E+03  0.30874085888E+03  0.12499777908E+03 0.  0.
          2    1    1    2  501    0  0.10888093407E+02 -0.99108992933E+02 -0.89391663760E+02  0.13391046489E+03  0.00000000000E+00 0. -1.
          1    1    1    2  502    0 -0.22575262301E+02 -0.87763546434E+02  0.18517894927E+04  0.18540055037E+04  0.00000000000E+00 0. -1.
         22    1    3    3    0    0  0.26649211442E+02 -0.27817574700E+01  0.59899585503E+02  0.65619196799E+02  0.00000000000E+00 0. -1.
         22    1    3    3    0    0 -0.14962042549E+02  0.18965429684E+03  0.15137875527E+03  0.24312166208E+03  0.00000000000E+00 0. -1.
</event>
<event>
 7    1  0.8256367E-006  0.1197458E+03  0.7818608E-02  0.1313625E+00
          2   -1    0    0  502    0  0.00000000000E+00  0.00000000000E+00  0.28593977905E+04  0.28593977905E+04  0.00000000000E+00 0. -1.
          1   -1    0    0  501    0 -0.00000000000E+00 -0.00000000000E+00 -0.13676433806E+04  0.13676433806E+04  0.00000000000E+00 0. -1.
         25    2    1    2    0    0 -0.10962553353E+03  0.77782089515E+02 -0.16577390874E+03  0.24734247048E+03  0.12501799002E+03 0.  0.
          2    1    1    2  501    0 -0.88927516679E+01 -0.60678721974E+02 -0.11590023136E+04  0.11606236907E+04  0.00000000000E+00 0. -1.
          1    1    1    2  502    0  0.11851828520E+03 -0.17103367541E+02  0.28165306323E+04  0.28190750100E+04  0.00000000000E+00 0. -1.
         22    1    3    3    0    0 -0.13702486715E+03  0.53979801479E+02 -0.13296078601E+03  0.19841422278E+03  0.00000000000E+00 0. -1.
         22    1    3    3    0    0  0.27399333620E+02  0.23802288036E+02 -0.32813122737E+02  0.48928247693E+02  0.00000000000E+00 0. -1.
</event>
<event>
 7    1  0.6510186E-006  0.4462839E+02  0.7818608E-02  0.1487231E+00
          2   -1    0    0  502    0  0.00000000000E+00  0.00000000000E+00  0.54541719852E+03  0.54541719852E+03  0.00000000000E+00 0. -1.
          1   -1    0    0  501    0 -0.00000000000E+00 -0.00000000000E+00 -0.34697882377E+03  0.34697882377E+03  0.00000000000E+00 0. -1.
         25    2    1    2    0    0  0.52161919424E+02 -0.34459661451E+02  0.35982239161E+03  0.38601076122E+03  0.12499528059E+03 0.  0.
          2    1    1    2  501    0 -0.91343055447E+01  0.40410637566E+02 -0.32983356349E+03  0.33242538226E+03  0.00000000000E+00 0. -1.
          1    1    1    2  502    0 -0.43027613879E+02 -0.59509761156E+01  0.16844954663E+03  0.17395987880E+03  0.00000000000E+00 0. -1.
         22    1    3    3    0    0  0.64069427922E+02 -0.85852853855E+01  0.34994284279E+03  0.35586316463E+03  0.00000000000E+00 0. -1.
         22    1    3    3    0    0 -0.11907508498E+02 -0.25874376065E+02  0.98795488177E+01  0.30147596591E+02  0.00000000000E+00 0. -1.
</event>
<event>
 7    1  0.6510186E-006  0.1023545E+03  0.7818608E-02  0.1300398E+00
          2   -1    0    0  502    0  0.00000000000E+00  0.00000000000E+00  0.99769450658E+02  0.99769450658E+02  0.00000000000E+00 0. -1.
          1   -1    0    0  501    0 -0.00000000000E+00 -0.00000000000E+00 -0.17170131965E+04  0.17170131965E+04  0.00000000000E+00 0. -1.
         25    2    1    2    0    0  0.14724197674E+03  0.14096571650E+02 -0.19229737317E+03  0.27290026764E+03  0.12496944947E+03 0.  0.
          2    1    1    2  501    0 -0.59122897413E+02 -0.55282805200E+02 -0.14427318244E+04  0.14450006306E+04  0.00000000000E+00 0. -1.
          1    1    1    2  502    0 -0.88119079332E+02  0.41186233550E+02  0.17785451656E+02  0.98881748907E+02  0.00000000000E+00 0. -1.
         22    1    3    3    0    0  0.76589906276E+01  0.21886370855E+02 -0.10622852215E+03  0.10872981322E+03  0.00000000000E+00 0. -1.
         22    1    3    3    0    0  0.13958298612E+03 -0.77897992046E+01 -0.86068851023E+02  0.16417045441E+03  0.00000000000E+00 0. -1.
</event>
<event>
 7    1  0.6510186E-006  0.1867880E+03  0.7818608E-02  0.1293002E+00
          2   -1    0    0  502    0  0.00000000000E+00  0.00000000000E+00  0.10878431799E+03  0.10878431799E+03  0.00000000000E+00 0. -1.
          1   -1    0    0  501    0 -0.00000000000E+00 -0.00000000000E+00 -0.87771848690E+03  0.87771848690E+03  0.00000000000E+00 0. -1.
         25    2    1    2    0    0  0.40698562008E+02 -0.17431763701E+03 -0.16727886981E+03  0.27504480733E+03  0.12499765689E+03 0.  0.
          2    1    1    2  501    0 -0.42569058197E+02 -0.21075340732E+02 -0.47770065753E+03  0.48005646846E+03  0.00000000000E+00 0. -1.
          1    1    1    2  502    0  0.18704961894E+01  0.19539297774E+03 -0.12395464157E+03  0.23140152911E+03  0.00000000000E+00 0. -1.
         22    1    3    3    0    0  0.19293510232E+02  0.18449804525E+01 -0.70080079447E+02  0.72710804048E+02  0.00000000000E+00 0.  1.
         22    1    3    3    0    0  0.21405051776E+02 -0.17616261747E+03 -0.97198790365E+02  0.20233400328E+03  0.00000000000E+00 0.  1.
</event>
<event>
 7    1  0.6510186E-006  0.4555009E+02  0.7818608E-02  0.1471578E+00
          2   -1    0    0  502    0  0.00000000000E+00  0.00000000000E+00  0.20911595424E+04  0.20911595424E+04  0.00000000000E+00 0. -1.
          1   -1    0    0  501    0 -0.00000000000E+00 -0.00000000000E+00 -0.56104598862E+02  0.56104598862E+02  0.00000000000E+00 0. -1.
         25    2    1    2    0    0 -0.11111386586E+02 -0.68545925873E+00  0.95379720871E+03  0.96202037111E+03  0.12502058362E+03 0.  0.
          2    1    1    2  501    0 -0.14491535713E+02 -0.43183405684E+02 -0.41330935432E+02  0.61506563532E+02  0.00000000000E+00 0. -1.
          1    1    1    2  502    0  0.25602922299E+02  0.43868864943E+02  0.11225886703E+04  0.11237372066E+04  0.00000000000E+00 0. -1.
         22    1    3    3    0    0 -0.41612247033E+01  0.48482977717E+02  0.77293053916E+03  0.77446080165E+03  0.00000000000E+00 0. -1.
         22    1    3    3    0    0 -0.69501618830E+01 -0.49168436975E+02  0.18086666954E+03  0.18755956946E+03  0.00000000000E+00 0. -1.
</event>
<event>
 7    1  0.6510186E-006  0.6231583E+02  0.7818608E-02  0.1475503E+00
          2   -1    0    0  502    0  0.00000000000E+00  0.00000000000E+00  0.35063881305E+03  0.35063881305E+03  0.00000000000E+00 0. -1.
          1   -1    0    0  501    0 -0.00000000000E+00 -0.00000000000E+00 -0.15234225498E+04  0.15234225498E+04  0.00000000000E+00 0. -1.
         25    2    1    2    0    0 -0.73097477566E+02  0.25464099480E+02  0.73317075905E+02  0.16429161640E+03  0.12499872004E+03 0.  0.
          2    1    1    2  501    0  0.11785691349E+02 -0.29995999320E+02 -0.14736801668E+04  0.14740325290E+04  0.00000000000E+00 0. -1.
          1    1    1    2  502    0  0.61311786217E+02  0.45318998396E+01  0.22757935417E+03  0.23573721744E+03  0.00000000000E+00 0. -1.
         22    1    3    3    0    0 -0.47134465105E+02 -0.23292228088E+02 -0.19670320758E+02  0.56134723735E+02  0.00000000000E+00 0. -1.
         22    1    3    3    0    0 -0.25963012461E+02  0.48756327568E+02  0.92987396663E+02  0.10815689267E+03  0.00000000000E+00 0. -1.
</event>
<event>
 7    1  0.6510186E-006  0.1427953E+03  0.7818608E-02  0.1348841E+00
          2   -1    0    0  502    0  0.00000000000E+00  0.00000000000E+00  0.14316450916E+04  0.14316450916E+04  0.00000000000E+00 0. -1.
          1   -1    0    0  501    0 -0.00000000000E+00 -0.00000000000E+00 -0.17993037365E+03  0.17993037365E+03  0.00000000000E+00 0. -1.
         25    2    1    2    0    0  0.10687581972E+03  0.21508451814E+02  0.23901198288E+02  0.16758155433E+03  0.12500902259E+03 0.  0.
          2    1    1    2  501    0  0.31441837253E+02  0.20888077134E+02 -0.10074359399E+03  0.10758332876E+03  0.00000000000E+00 0. -1.
          1    1    1    2  502    0 -0.13831765697E+03 -0.42396528948E+02  0.13285571137E+04  0.13364105822E+04  0.00000000000E+00 0. -1.
         22    1    3    3    0    0 -0.59539325905E+01 -0.21838967653E+02 -0.28029155976E+02  0.36028091903E+02  0.00000000000E+00 0.  1.
         22    1    3    3    0    0  0.11282975231E+03  0.43347419467E+02  0.51930354264E+02  0.13155346242E+03  0.00000000000E+00 0.  1.
</event>
<event>
 7    1  0.6510186E-006  0.5984570E+02  0.7818608E-02  0.1441709E+00
          2   -1    0    0  502    0  0.00000000000E+00  0.00000000000E+00  0.15673911243E+04  0.15673911243E+04  0.00000000000E+00 0. -1.
          1   -1    0    0  501    0 -0.00000000000E+00 -0.00000000000E+00 -0.23993958924E+03  0.23993958924E+03  0.00000000000E+00 0. -1.
         25    2    1    2    0    0  0.65312620639E+02  0.22282970187E+02  0.22830993189E+03  0.26928137258E+03  0.12499905376E+03 0.  0.
          2    1    1    2  501    0 -0.86440252394E+01 -0.42038080162E+02 -0.21666507155E+03  0.22087478938E+03  0.00000000000E+00 0. -1.
          1    1    1    2  502    0 -0.56668595400E+02  0.19755109976E+02  0.13158066747E+04  0.13171745516E+04  0.00000000000E+00 0. -1.
         22    1    3    3    0    0 -0.96837075559E+01  0.52013234444E+02  0.46740532512E+02  0.70596233107E+02  0.00000000000E+00 0.  1.
         22    1    3    3    0    0  0.74996328195E+02 -0.29730264257E+02  0.18156939938E+03  0.19868513947E+03  0.00000000000E+00 0.  1.
</event>
<event>
 7    1  0.6510186E-006  0.1226829E+03  0.7818608E-02  0.1310025E+00
          2   -1    0    0  502    0  0.00000000000E+00  0.00000000000E+00  0.20193719916E+04  0.20193719916E+04  0.00000000000E+00 0. -1.
          1   -1    0    0  501    0 -0.00000000000E+00 -0.00000000000E+00 -0.50058297480E+02  0.50058297480E+02  0.00000000000E+00 0. -1.
         25    2    1    2    0    0  0.10748149123E+02  0.49393619679E+02  0.13485841743E+04  0.13553077550E+04  0.12499833378E+03 0.  0.
          2    1    1    2  501    0  0.11844245953E+03 -0.31976327348E+02  0.56568847276E+02  0.13509676611E+03  0.00000000000E+00 0. -1.
          1    1    1    2  502    0 -0.12919060865E+03 -0.17417292331E+02  0.56416067263E+03  0.57902576797E+03  0.00000000000E+00 0. -1.
         22    1    3    3    0    0  0.44082619145E+02  0.62846083744E+02  0.49047501369E+03  0.49644601580E+03  0.00000000000E+00 0.  1.
         22    1    3    3    0    0 -0.33334470022E+02 -0.13452464066E+02  0.85810916057E+03  0.85886173925E+03  0.00000000000E+00 0.  1.
</event>
<event>
 7    1  0.6510186E-006  0.1793880E+03  0.7818608E-02  0.1274563E+00
          2   -1    0    0  502    0  0.00000000000E+00  0.00000000000E+00  0.24748950795E+03  0.24748950795E+03  0.00000000000E+00 0. -1.
          1   -1    0    0  501    0 -0.00000000000E+00 -0.00000000000E+00 -0.46646792618E+03  0.46646792618E+03  0.00000000000E+00 0. -1.
         25    2    1    2    0    0 -0.14588072251E+03 -0.15070545188E+03 -0.13724968659E+03  0.28009443266E+03  0.12498838469E+03 0.  0.
          2    1    1    2  501    0  0.14151503797E+03  0.91983816308E+02 -0.22366176886E+03  0.28020013433E+03  0.00000000000E+00 0. -1.
          1    1    1    2  502    0  0.43656845478E+01  0.58721635572E+02  0.14193303721E+03  0.15366286714E+03  0.00000000000E+00 0. -1.
         22    1    3    3    0    0 -0.92239140010E+02 -0.35682718667E+02 -0.84333637707E+01  0.99259442804E+02  0.00000000000E+00 0. -1.
         22    1    3    3    0    0 -0.53641582505E+02 -0.11502273321E+03 -0.12881632282E+03  0.18083498985E+03  0.00000000000E+00 0. -1.
</event>
<event>
 7    1  0.6510186E-006  0.7408153E+02  0.7818608E-02  0.1390468E+00
          2   -1    0    0  502    0  0.00000000000E+00  0.00000000000E+00  0.24602831115E+03  0.24602831115E+03  0.00000000000E+00 0. -1.
          1   -1    0    0  501    0 -0.00000000000E+00 -0.00000000000E+00 -0.21906037399E+03  0.21906037399E+03  0.00000000000E+00 0. -1.
         25    2    1    2    0    0 -0.58054354353E+02 -0.80342179716E+02 -0.46446035745E+02  0.16615675756E+03  0.12500263975E+03 0.  0.
          2    1    1    2  501    0  0.50992096855E+02  0.74844206558E+01 -0.99006048624E+02  0.11161723952E+03  0.00000000000E+00 0. -1.
          1    1    1    2  502    0  0.70622574980E+01  0.72857759060E+02  0.17242002154E+03  0.18731468806E+03  0.00000000000E+00 0. -1.
         22    1    3    3    0    0 -0.59927865608E+02  0.42201990699E+00  0.18262759872E+02  0.62650263968E+02  0.00000000000E+00 0. -1.
         22    1    3    3    0    0  0.18735112548E+01 -0.80764199623E+02 -0.64708795617E+02  0.10350649359E+03  0.00000000000E+00 0. -1.
</event>
<event>
 7    1  0.6510186E-006  0.7546817E+02  0.7818608E-02  0.1398865E+00
          2   -1    0    0  502    0  0.00000000000E+00  0.00000000000E+00  0.64662360133E+02  0.64662360133E+02  0.00000000000E+00 0. -1.
          1   -1    0    0  501    0 -0.00000000000E+00 -0.00000000000E+00 -0.13452227099E+04  0.13452227099E+04  0.00000000000E+00 0. -1.
         25    2    1    2    0    0  0.24331788739E+02 -0.20758513363E+02 -0.12793063363E+03  0.18169826752E+03  0.12500024631E+03 0.  0.
          2    1    1    2  501    0 -0.44501626897E+02  0.63556567670E+02 -0.11737944427E+04  0.11763559095E+04  0.00000000000E+00 0. -1.
          1    1    1    2  502    0  0.20169838158E+02 -0.42798054307E+02  0.21164726546E+02  0.51830893042E+02  0.00000000000E+00 0. -1.
         22    1    3    3    0    0 -0.39881153574E+02 -0.67788740044E+01 -0.30331616798E+01  0.40566730370E+02  0.00000000000E+00 0. -1.
         22    1    3    3    0    0  0.64212942313E+02 -0.13979639359E+02 -0.12489747195E+03  0.14113153715E+03  0.00000000000E+00 0. -1.
</event>
<event>
 7    1  0.6510186E-006  0.4537038E+02  0.7818608E-02  0.1513264E+00
          2   -1    0    0  502    0  0.00000000000E+00  0.00000000000E+00  0.11679844604E+04  0.11679844604E+04  0.00000000000E+00 0. -1.
          1   -1    0    0  501    0 -0.00000000000E+00 -0.00000000000E+00 -0.11646415384E+03  0.11646415384E+03  0.00000000000E+00 0. -1.
         25    2    1    2    0    0  0.16724716184E+02  0.75481232959E+02  0.11795248257E+03  0.18845303300E+03  0.12499849937E+03 0.  0.
          2    1    1    2  501    0 -0.37112242390E+01 -0.43984588289E+02 -0.74906925007E+02  0.86945181616E+02  0.00000000000E+00 0. -1.
          1    1    1    2  502    0 -0.13013491945E+02 -0.31496644670E+02  0.10084747490E+04  0.10090503996E+04  0.00000000000E+00 0. -1.
         22    1    3    3    0    0  0.52948941353E+02  0.43462527341E+02  0.87906125917E+01  0.69064148029E+02  0.00000000000E+00 0.  1.
         22    1    3    3    0    0 -0.36224225169E+02  0.32018705618E+02  0.10916186998E+03  0.11938888497E+03  0.00000000000E+00 0.  1.
</event>
<event>
 7    1  0.6510186E-006  0.1472997E+03  0.7818608E-02  0.1248747E+00
          2   -1    0    0  502    0  0.00000000000E+00  0.00000000000E+00  0.16081625217E+04  0.16081625217E+04  0.00000000000E+00 0. -1.
          1   -1    0    0  501    0 -0.00000000000E+00 -0.00000000000E+00 -0.40714416406E+03  0.40714416406E+03  0.00000000000E+00 0. -1.
         25    2    1    2    0    0  0.65072966613E+02 -0.10514417571E+03  0.10060459942E+04  0.10212925587E+04  0.12498063590E+03 0.  0.
          2    1    1    2  501    0 -0.11178551089E+01 -0.92353644047E+02 -0.37563179131E+03  0.38681996822E+03  0.00000000000E+00 0. -1.
          1    1    1    2  502    0 -0.63955111505E+02  0.19749781975E+03  0.57060415468E+03  0.60719415876E+03  0.00000000000E+00 0. -1.
         22    1    3    3    0    0  0.37401615903E+02  0.22940105186E+02  0.21017697599E+03  0.21470791913E+03  0.00000000000E+00 0.  1.
         22    1    3    3    0    0  0.27671350710E+02 -0.12808428089E+03  0.79586901824E+03  0.80658463961E+03  0.00000000000E+00 0.  1.
</event>
<event>
 7    1  0.6510186E-006  0.4564013E+02  0.7818608E-02  0.1516429E+00
          2   -1    0    0  502    0  0.00000000000E+00  0.00000000000E+00  0.97211176037E+03  0.97211176037E+03  0.00000000000E+00 0. -1.
          1   -1    0    0  501    0 -0.00000000000E+00 -0.00000000000E+00 -0.31570821125E+03  0.31570821125E+03  0.00000000000E+00 0. -1.
         25    2    1    2    0    0 -0.17538596644E+02 -0.73418092904E+02 -0.74919735374E+02  0.16412181121E+03  0.12500073371E+03 0.  0.
          2    1    1    2  501    0  0.22478807404E+01  0.43990146921E+02 -0.19341408901E+03  0.19836631726E+03  0.00000000000E+00 0. -1.
          1    1    1    2  502    0  0.15290715904E+02  0.29427945983E+02  0.92473737351E+03  0.92533184316E+03  0.00000000000E+00 0. -1.
         22    1    3    3    0    0  0.24066919515E+02 -0.91162387365E+02 -0.26667616286E+02  0.97984484708E+02  0.00000000000E+00 0.  1.
         22    1    3    3    0    0 -0.41605516159E+02  0.17744294461E+02 -0.48252119088E+02  0.66137326505E+02  0.00000000000E+00 0.  1.
</event>
<event>
 7    1  0.6510186E-006  0.4373253E+02  0.7818608E-02  0.1546544E+00
          2   -1    0    0  502    0  0.00000000000E+00  0.00000000000E+00  0.21206915613E+04  0.21206915613E+04  0.00000000000E+00 0. -1.
          1   -1    0    0  501    0 -0.00000000000E+00 -0.00000000000E+00 -0.18800014966E+03  0.18800014966E+03  0.00000000000E+00 0. -1.
         25    2    1    2    0    0  0.48593092696E+02  0.52036003679E+02  0.23977722155E+03  0.27961714295E+03  0.12499438514E+03 0.  0.
          2    1    1    2  501    0 -0.22376850569E+02 -0.17463609959E+02 -0.16662693619E+03  0.16902732613E+03  0.00000000000E+00 0. -1.
          1    1    1    2  502    0 -0.26216242127E+02 -0.34572393720E+02  0.18595411262E+04  0.18600472419E+04  0.00000000000E+00 0. -1.
         22    1    3    3    0    0  0.18891853253E+02  0.67367320732E+02  0.47760991165E+02  0.84713459964E+02  0.00000000000E+00 0.  1.
         22    1    3    3    0    0  0.29701239443E+02 -0.15331317053E+02  0.19201623039E+03  0.19490368298E+03  0.00000000000E+00 0.  1.
</event>
<event>
 7    1  0.6510186E-006  0.5279441E+02  0.7818608E-02  0.1447215E+00
          2   -1    0    0  502    0  0.00000000000E+00  0.00000000000E+00  0.18318257038E+02  0.18318257038E+02  0.00000000000E+00 0. -1.
          1   -1    0    0  501    0 -0.00000000000E+00 -0.00000000000E+00 -0.30094369084E+04  0.30094369084E+04  0.00000000000E+00 0. -1.
         25    2    1    2    0    0  0.32202254679E+01  0.27176855026E+02 -0.10767941022E+04  0.10843709511E+04  0.12500347930E+03 0.  0.
          2    1    1    2  501    0 -0.49921118554E+02 -0.27335769270E+02 -0.18897595547E+04  0.18906164437E+04  0.00000000000E+00 0. -1.
          1    1    1    2  502    0  0.46700893086E+02  0.15891424383E+00 -0.24564994471E+02  0.52767770676E+02  0.00000000000E+00 0. -1.
         22    1    3    3    0    0  0.28255123591E+02  0.35364086685E+02 -0.10273666600E+04  0.10283633720E+04  0.00000000000E+00 0.  1.
         22    1    3    3    0    0 -0.25034898123E+02 -0.81872316594E+01 -0.49427442153E+02  0.56007579166E+02  0.00000000000E+00 0.  1.
</event>
<event>
 7    1  0.6510186E-006  0.1932192E+03  0.7818608E-02  0.1281378E+00
          2   -1    0    0  502    0  0.00000000000E+00  0.00000000000E+00  0.75230368436E+03  0.75230368436E+03  0.00000000000E+00 0. -1.
          1   -1    0    0  501    0 -0.00000000000E+00 -0.00000000000E+00 -0.33711513468E+03  0.33711513468E+03  0.00000000000E+00 0. -1.
         25    2    1    2    0    0  0.21509596103E+03 -0.14529435733E+02 -0.17152718273E+03  0.30252895181E+03  0.12499926125E+03 0.  0.
          2    1    1    2  501    0 -0.16641445875E+03  0.30470772929E+02 -0.26755512442E+02  0.17128367561E+03  0.00000000000E+00 0. -1.
          1    1    1    2  502    0 -0.48681502278E+02 -0.15941337195E+02  0.61347124485E+03  0.61560619161E+03  0.00000000000E+00 0. -1.
         22    1    3    3    0    0  0.14351952545E+03  0.18839762875E+02 -0.17035465681E+03  0.22354753397E+03  0.00000000000E+00 0. -1.
         22    1    3    3    0    0  0.71576435587E+02 -0.33369198609E+02 -0.11725259274E+01  0.78981417841E+02  0.00000000000E+00 0. -1.
</event>
<event>
 7    1  0.6510186E-006  0.5285198E+02  0.7818608E-02  0.1496400E+00
          2   -1    0    0  502    0  0.00000000000E+00  0.00000000000E+00  0.16610435638E+04  0.16610435638E+04  0.00000000000E+00 0. -1.
          1   -1    0    0  501    0 -0.00000000000E+00 -0.00000000000E+00 -0.31723946557E+02  0.31723946557E+02  0.00000000000E+00 0. -1.
         25    2    1    2    0    0 -0.82122965700E+02 -0.89629853258E+01  0.50442283032E+03  0.52620560234E+03  0.12500171035E+03 0.  0.
          2    1    1    2  501    0  0.30860320709E+02  0.11183685780E+02 -0.69505531080E+01  0.33552114842E+02  0.00000000000E+00 0. -1.
          1    1    1    2  502    0  0.51262644991E+02 -0.22207004541E+01  0.11318473400E+04  0.11330097932E+04  0.00000000000E+00 0. -1.
         22    1    3    3    0    0 -0.32459247943E+02 -0.64643751968E+02  0.19706635627E+03  0.20992276250E+03  0.00000000000E+00 0.  1.
         22    1    3    3    0    0 -0.49663717757E+02  0.55680766642E+02  0.30735647405E+03  0.31628283984E+03  0.00000000000E+00 0.  1.
</event>
<event>
 7    1  0.6510186E-006  0.4072044E+02  0.7818608E-02  0.1505682E+00
          2   -1    0    0  502    0  0.00000000000E+00  0.00000000000E+00  0.42302559383E+03  0.42302559383E+03  0.00000000000E+00 0. -1.
          1   -1    0    0  501    0 -0.00000000000E+00 -0.00000000000E+00 -0.25128492782E+03  0.25128492782E+03  0.00000000000E+00 0. -1.
         25    2    1    2    0    0 -0.13290504853E+02 -0.10684146660E+01 -0.48485367365E+02  0.13473396081E+03  0.12499852126E+03 0.  0.
          2    1    1    2  501    0  0.13268028633E+02  0.41042984237E+02 -0.15568300512E+03  0.16154802760E+03  0.00000000000E+00 0. -1.
          1    1    1    2  502    0  0.22476219814E-01 -0.39974569571E+02  0.37590903850E+03  0.37802853324E+03  0.00000000000E+00 0. -1.
         22    1    3    3    0    0  0.41915772222E+02  0.13223653577E+02 -0.62123589439E+02  0.76099522598E+02  0.00000000000E+00 0. -1.
         22    1    3    3    0    0 -0.55206277075E+02 -0.14292068243E+02  0.13638222074E+02  0.58634438212E+02  0.00000000000E+00 0. -1.
</event>
<event>
 7    1  0.6510186E-006  0.7003783E+02  0.7818608E-02  0.1473114E+00
          2   -1    0    0  502    0  0.00000000000E+00  0.00000000000E+00  0.49161716381E+03  0.49161716381E+03  0.00000000000E+00 0. -1.
          1   -1    0    0  501    0 -0.00000000000E+00 -0.00000000000E+00 -0.44087595275E+03  0.44087595275E+03  0.00000000000E+00 0. -1.
         25    2    1    2    0    0 -0.70629894571E+01  0.42513990588E+02 -0.16295061945E+03  0.20984497216E+03  0.12499873098E+03 0.  0.
          2    1    1    2  501    0 -0.17058297808E+02  0.23658483391E+02 -0.25097987512E+03  0.25266896738E+03  0.00000000000E+00 0. -1.
          1    1    1    2  502    0  0.24121287265E+02 -0.66172473979E+02  0.46467170563E+03  0.46997917701E+03  0.00000000000E+00 0. -1.
         22    1    3    3    0    0 -0.63808088875E+02  0.14741785708E+02 -0.10702111801E+03  0.12546837112E+03  0.00000000000E+00 0.  1.
         22    1    3    3    0    0  0.56745099418E+02  0.27772204880E+02 -0.55929501438E+02  0.84376601040E+02  0.00000000000E+00 0.  1.
</event>
<event>
 7    1  0.6510186E-006  0.6173912E+02  0.7818608E-02  0.1459475E+00
          2   -1    0    0  502    0  0.00000000000E+00  0.00000000000E+00  0.88480738843E+03  0.88480738843E+03  0.00000000000E+00 0. -1.
          1   -1    0    0  501    0 -0.00000000000E+00 -0.00000000000E+00 -0.26881624946E+02  0.26881624946E+02  0.00000000000E+00 0. -1.
         25    2    1    2    0    0  0.25885366055E+02 -0.27248263441E+02  0.37569828092E+03  0.39772682112E+03  0.12499962364E+03 0.  0.
          2    1    1    2  501    0 -0.28885188695E+01 -0.36387080359E+02  0.11317369318E+02  0.38215782166E+02  0.00000000000E+00 0. -1.
          1    1    1    2  502    0 -0.22996847186E+02  0.63635343800E+02  0.47091011325E+03  0.47574641010E+03  0.00000000000E+00 0. -1.
         22    1    3    3    0    0  0.11139220746E+02 -0.77318383850E+02  0.21392456691E+03  0.22774093846E+03  0.00000000000E+00 0. -1.
         22    1    3    3    0    0  0.14746145309E+02  0.50070120409E+02  0.16177371401E+03  0.16998588266E+03  0.00000000000E+00 0. -1.
</event>
<event>
 7    1  0.6510186E-006  0.6343192E+02  0.7818608E-02  0.1460324E+00
          2   -1    0    0  502    0  0.00000000000E+00  0.00000000000E+00  0.17179623447E+04  0.17179623447E+04  0.00000000000E+00 0. -1.
          1   -1    0    0  501    0 -0.00000000000E+00 -0.00000000000E+00 -0.16514688777E+04  0.16514688777E+04  0.00000000000E+00 0. -1.
         25    2    1    2    0    0  0.69663818801E+02  0.48028127587E+02  0.28354665716E+02  0.15358368019E+03  0.12499684421E+03 0.  0.
          2    1    1    2  501    0 -0.34967820063E+02  0.48973402165E+01 -0.15880426654E+04  0.15884351543E+04  0.00000000000E+00 0. -1.
          1    1    1    2  502    0 -0.34695998738E+02 -0.52925467804E+02  0.16261814667E+04  0.16274123878E+04  0.00000000000E+00 0. -1.
         22    1    3    3    0    0 -0.13594819463E+02 -0.32106150937E+02  0.12008908048E+02  0.36875980214E+02  0.00000000000E+00 0.  1.
         22    1    3    3    0    0  0.83258638263E+02  0.80134278524E+02  0.16345757668E+02  0.11670769998E+03  0.00000000000E+00 0.  1.
</event>
<event>
 7    1  0.6510186E-006  0.1326750E+03  0.7818608E-02  0.1420892E+00
          2   -1    0    0  502    0  0.00000000000E+00  0.00000000000E+00  0.62441130287E+03  0.62441130287E+03  0.00000000000E+00 0. -1.
          1   -1    0    0  501    0 -0.00000000000E+00 -0.00000000000E+00 -0.39261132823E+03  0.39261132823E+03  0.00000000000E+00 0. -1.
         25    2    1    2    0    0  0.12953688212E+03  0.21055646989E+02 -0.13879304316E+03  0.22827806178E+03  0.12499688220E+03 0.  0.
          2    1    1    2  501    0 -0.12671140441E+03 -0.43540291324E+02 -0.18735677989E+03  0.23033475628E+03  0.00000000000E+00 0. -1.
          1    1    1    2  502    0 -0.28254777104E+01  0.22484644335E+02  0.55794979770E+03  0.55840981305E+03  0.00000000000E+00 0. -1.
         22    1    3    3    0    0  0.73052606271E+02  0.35413593957E+02 -0.14845396150E+03  0.16920220036E+03  0.00000000000E+00 0.  1.
         22    1    3    3    0    0  0.56484275852E+02 -0.14357946968E+02  0.96609183419E+01  0.59075861423E+02  0.00000000000E+00 0.  1.
</event>
<event>
 7    1  0.6510186E-006  0.6773276E+02  0.7818608E-02  0.1404211E+00
          2   -1    0    0  502    0  0.00000000000E+00  0.00000000000E+00  0.12179816137E+04  0.12179816137E+04  0.00000000000E+00 0. -1.
          1   -1    0    0  501    0 -0.00000000000E+00 -0.00000000000E+00 -0.20708426315E+04  0.20708426315E+04  0.00000000000E+00 0. -1.
         25    2    1    2    0    0  0.18625083336E+02  0.73901440750E+01  0.11813921034E+03  0.17316256937E+03  0.12500757759E+03 0.  0.
          2    1    1    2  501    0  0.37902203349E+02  0.33426126097E+02 -0.20418846328E+04  0.20425099110E+04  0.00000000000E+00 0. -1.
          1    1    1    2  502    0 -0.56527286685E+02 -0.40816270172E+02  0.10708844047E+04  0.10731517648E+04  0.00000000000E+00 0. -1.
         22    1    3    3    0    0  0.70980248380E+02  0.80778700107E+01  0.85692124558E+02  0.11156427679E+03  0.00000000000E+00 0.  1.
         22    1    3    3    0    0 -0.52355165044E+02 -0.68772593564E+00  0.32447085778E+02  0.61598292584E+02  0.00000000000E+00 0.  1.
</event>
<event>
 7    1  0.6510186E-006  0.1251213E+03  0.7818608E-02  0.1388647E+00
          2   -1    0    0  502    0  0.00000000000E+00  0.00000000000E+00  0.76823468857E+03  0.76823468857E+03  0.00000000000E+00 0. -1.
          1   -1    0    0  501    0 -0.00000000000E+00 -0.00000000000E+00 -0.28259686807E+03  0.28259686807E+03  0.00000000000E+00 0. -1.
         25    2    1    2    0    0  0.10448578367E+03 -0.15421033009E+02  0.20838020865E+02  0.16496667320E+03  0.12499877162E+03 0.  0.
          2    1    1    2  501    0  0.22259230594E+02  0.21525816851E+02 -0.20338975662E+03  0.20573338872E+03  0.00000000000E+00 0. -1.
          1    1    1    2  502    0 -0.12674501426E+03 -0.61047838416E+01  0.66818955625E+03  0.68013149472E+03  0.00000000000E+00 0. -1.
         22    1    3    3    0    0  0.10088628384E+03 -0.60981432385E+02  0.16989336063E+02  0.11910253945E+03  0.00000000000E+00 0.  1.
         22    1    3    3    0    0  0.35994998271E+01  0.45560399376E+02  0.38486848020E+01  0.45864133754E+02  0.00000000000E+00 0.  1.
</event>
<event>
 7    1  0.6510186E-006  0.8333844E+02  0.7818608E-02  0.1320014E+00
          2   -1    0    0  502    0  0.00000000000E+00  0.00000000000E+00  0.51230120983E+03  0.51230120983E+03  0.00000000000E+00 0. -1.
          1   -1    0    0  501    0 -0.00000000000E+00 -0.00000000000E+00 -0.10568688504E+04  0.10568688504E+04  0.00000000000E+00 0. -1.
         25    2    1    2    0    0  0.14246575374E+02 -0.33075317539E+02  0.69092404906E+02  0.14729445098E+03  0.12499981333E+03 0.  0.
          2    1    1    2  501    0  0.67090523471E+02  0.51229422876E+02 -0.10116946194E+04  0.10152101236E+04  0.00000000000E+00 0. -1.
          1    1    1    2  502    0 -0.81337098845E+02 -0.18154105337E+02  0.39803457392E+03  0.40666548566E+03  0.00000000000E+00 0. -1.
         22    1    3    3    0    0  0.66518669602E+02  0.21289759980E+01  0.41992420256E+02  0.78693260852E+02  0.00000000000E+00 0. -1.
         22    1    3    3    0    0 -0.52272094229E+02 -0.35204293537E+02  0.27099984650E+02  0.68601190125E+02  0.00000000000E+00 0. -1.
</event>
<event>
 7    1  0.6510186E-006  0.1413713E+03  0.7818608E-02  0.1375711E+00
          2   -1    0    0  502    0  0.00000000000E+00  0.00000000000E+00  0.47421169407E+03  0.47421169407E+03  0.00000000000E+00 0. -1.
          1   -1    0    0  501    0 -0.00000000000E+00 -0.00000000000E+00 -0.13214393992E+03  0.13214393992E+03  0.00000000000E+00 0. -1.
         25    2    1    2    0    0 -0.23436164326E+02 -0.15958355351E+03  0.17733319700E+03  0.27035253842E+03  0.12500907137E+03 0.  0.
          2    1    1    2  501    0 -0.76501328207E+01  0.29467647169E+02 -0.64083720287E+02  0.70947797483E+02  0.00000000000E+00 0. -1.
          1    1    1    2  502    0  0.31086297147E+02  0.13011590634E+03  0.22881827744E+03  0.26505529809E+03  0.00000000000E+00 0. -1.
         22    1    3    3    0    0 -0.51725702292E+02 -0.86603129689E+02  0.32952484080E+02  0.10612029286E+03  0.00000000000E+00 0.  1.
         22    1    3    3    0    0  0.28289537966E+02 -0.72980423822E+02  0.14438071292E+03  0.16423224556E+03  0.00000000000E+00 0.  1.
</event>
<event>
 7    1  0.6510186E-006  0.9932282E+02  0.7818608E-02  0.1405191E+00
          2   -1    0    0  502    0  0.00000000000E+00  0.00000000000E+00  0.11156540846E+04  0.11156540846E+04  0.00000000000E+00 0. -1.
          1   -1    0    0  501    0 -0.00000000000E+00 -0.00000000000E+00 -0.21196936252E+03  0.21196936252E+03  0.00000000000E+00 0. -1.
         25    2    1    2    0    0  0.49176543062E+02 -0.58259384554E+02  0.14613977835E+03  0.20686597054E+03  0.12499682666E+03 0.  0.
          2    1    1    2  501    0 -0.83369888773E+02  0.57678546301E+02 -0.16711765384E+03  0.19546269025E+03  0.00000000000E+00 0. -1.
          1    1    1    2  502    0  0.34193345711E+02  0.58083825230E+00  0.92466259753E+03  0.92529478629E+03  0.00000000000E+00 0. -1.
         22    1    3    3    0    0  0.31868936218E+02  0.35801342757E+02  0.68896028876E+02  0.83928708043E+02  0.00000000000E+00 0. -1.
         22    1    3    3    0    0  0.17307606844E+02 -0.94060727311E+02  0.77243749476E+02  0.12293726250E+03  0.00000000000E+00 0. -1.
</event>
<event>
 7    1  0.6510186E-006  0.1165922E+03  0.7818608E-02  0.1378118E+00
          2   -1    0    0  502    0  0.00000000000E+00  0.00000000000E+00  0.90140806314E+03  0.90140806314E+03  0.00000000000E+00 0. -1.
          1   -1    0    0  501    0 -0.00000000000E+00 -0.00000000000E+00 -0.20900711764E+03  0.20900711764E+03  0.00000000000E+00 0. -1.
         25    2    1    2    0    0  0.55958586673E+02  0.14101423037E+03  0.71467460740E+03  0.74121635353E+03  0.12500204672E+03 0.  0.
          2    1    1    2  501    0 -0.46067318119E+02 -0.10619796077E+03 -0.17633855510E+03  0.21093954272E+03  0.00000000000E+00 0. -1.
          1    1    1    2  502    0 -0.98912685544E+01 -0.34816269593E+02  0.15406489320E+03  0.15825928452E+03  0.00000000000E+00 0. -1.
         22    1    3    3    0    0  0.73472594246E+02  0.13566527960E+03  0.44624832499E+03  0.47216613364E+03  0.00000000000E+00 0.  1.
         22    1    3    3    0    0 -0.17514007573E+02  0.53489507656E+01  0.26842628241E+03  0.26905021989E+03  0.00000000000E+00 0.  1.
</event>
<event>
 7    1  0.6510186E-006  0.7111880E+02  0.7818608E-02  0.1469820E+00
          2   -1    0    0  502    0  0.00000000000E+00  0.00000000000E+00  0.14316332193E+04  0.14316332193E+04  0.00000000000E+00 0. -1.
          1   -1    0    0  501    0 -0.00000000000E+00 -0.00000000000E+00 -0.80297502114E+03  0.80297502114E+03  0.00000000000E+00 0. -1.
         25    2    1    2    0    0  0.64871829897E+02 -0.43425294308E+02  0.67568631458E+03  0.69157148089E+03  0.12500002785E+03 0.  0.
          2    1    1    2  501    0 -0.69641436646E+02  0.14406589308E+02 -0.79315185754E+03  0.79633369176E+03  0.00000000000E+00 0. -1.
          1    1    1    2  502    0  0.47696067490E+01  0.29018705000E+02  0.74612374114E+03  0.74670306781E+03  0.00000000000E+00 0. -1.
         22    1    3    3    0    0  0.52642197249E+01 -0.76297619889E+02  0.28948921684E+03  0.29942118408E+03  0.00000000000E+00 0.  1.
         22    1    3    3    0    0  0.59607610172E+02  0.32872325581E+02  0.38619709775E+03  0.39215029681E+03  0.00000000000E+00 0.  1.
</event>
<event>
 7    1  0.6510186E-006  0.1079836E+03  0.7818608E-02  0.1324141E+00
          2   -1    0    0  502    0  0.00000000000E+00  0.00000000000E+00  0.26921274786E+04  0.26921274786E+04  0.00000000000E+00 0. -1.
          1   -1    0    0  501    0 -0.00000000000E+00 -0.00000000000E+00 -0.33516187979E+03  0.33516187979E+03  0.00000000000E+00 0. -1.
         25    2    1    2    0    0 -0.36742532516E+02  0.13132635522E+03  0.46374038259E+03  0.49927495404E+03  0.12499484796E+03 0.  0.
          2    1    1    2  501    0 -0.19687673465E+02 -0.10588909023E+03 -0.30780997991E+03  0.32610901191E+03  0.00000000000E+00 0. -1.
          1    1    1    2  502    0  0.56430205981E+02 -0.25437264991E+02  0.22010351962E+04  0.22019053925E+04  0.00000000000E+00 0. -1.
         22    1    3    3    0    0 -0.75589192572E+02  0.99231285351E+02  0.24648585014E+03  0.27625323228E+03  0.00000000000E+00 0. -1.
         22    1    3    3    0    0  0.38846660057E+02  0.32095069872E+02  0.21725453245E+03  0.22302172176E+03  0.00000000000E+00 0. -1.
</event>
<event>
 7    1  0.6510186E-006  0.7267768E+02  0.7818608E-02  0.1476984E+00
          2   -1    0    0  502    0  0.00000000000E+00  0.00000000000E+00  0.41129773737E+02  0.41129773737E+02  0.00000000000E+00 0. -1.
          1   -1    0    0  501    0 -0.00000000000E+00 -0.00000000000E+00 -0.96083125503E+03  0.96083125503E+03  0.00000000000E+00 0. -1.
         25    2    1    2    0    0  0.22124189340E+02  0.84122880108E+02 -0.28789779372E+03  0.32569335625E+03  0.12499953586E+03 0.  0.
          2    1    1    2  501    0 -0.37010124843E+02 -0.61185521276E+02 -0.64282185086E+03  0.64678694273E+03  0.00000000000E+00 0. -1.
          1    1    1    2  502    0  0.14885935503E+02 -0.22937358833E+02  0.11018163287E+02  0.29480729778E+02  0.00000000000E+00 0. -1.
         22    1    3    3    0    0  0.34263312496E+02  0.70231444218E+02 -0.29556117635E+03  0.30571692676E+03  0.00000000000E+00 0. -1.
         22    1    3    3    0    0 -0.12139123156E+02  0.13891435891E+02  0.76633826278E+01  0.19976429496E+02  0.00000000000E+00 0. -1.
</event>
<event>
 7    1  0.6510186E-006  0.1007562E+03  0.7818608E-02  0.1413332E+00
          2   -1    0    0  502    0  0.00000000000E+00  0.00000000000E+00  0.76039506365E+03  0.76039506365E+03  0.00000000000E+00 0. -1.
          1   -1    0    0  501    0 -0.00000000000E+00 -0.00000000000E+00 -0.35603403618E+03  0.35603403618E+03  0.00000000000E+00 0. -1.
         25    2    1    2    0    0  0.57865670052E+02  0.45263668699E+02  0.38406627625E+03  0.41052283127E+03  0.12499941988E+03 0.  0.
          2    1    1    2  501    0 -0.89414214326E+02 -0.47593953759E+02 -0.33460438373E+03  0.34960002828E+03  0.00000000000E+00 0. -1.
          1    1    1    2  502    0  0.31548544274E+02  0.23302850610E+01  0.35489913495E+03  0.35630624028E+03  0.00000000000E+00 0. -1.
         22    1    3    3    0    0  0.50229402283E+02  0.77292106724E+02  0.16505937448E+03  0.18905464744E+03  0.00000000000E+00 0.  1.
         22    1    3    3    0    0  0.76362677687E+01 -0.32028438026E+02  0.21900690176E+03  0.22146818383E+03  0.00000000000E+00 0.  1.
</event>
<event>
 7    1  0.6510186E-006  0.1627425E+03  0.7818608E-02  0.1370057E+00
          2   -1    0    0  502    0  0.00000000000E+00  0.00000000000E+00  0.20629218492E+03  0.20629218492E+03  0.00000000000E+00 0. -1.
          1   -1    0    0  501    0 -0.00000000000E+00 -0.00000000000E+00 -0.10041277529E+04  0.10041277529E+04  0.00000000000E+00 0. -1.
         25    2    1    2    0    0 -0.11700694461E+03 -0.96078769742E+02 -0.13483454100E+03  0.23817182235E+03  0.12499483363E+03 0.  0.
          2    1    1    2  501    0 -0.25366537158E+02  0.11148180908E+02 -0.77286883849E+03  0.77336536298E+03  0.00000000000E+00 0. -1.
          1    1    1    2  502    0  0.14237348177E+03  0.84930588835E+02  0.10986781151E+03  0.19888275249E+03  0.00000000000E+00 0. -1.
         22    1    3    3    0    0 -0.50578233209E+02  0.21273551969E+02 -0.68862239159E+02  0.88049586427E+02  0.00000000000E+00 0. -1.
         22    1    3    3    0    0 -0.66428711405E+02 -0.11735232171E+03 -0.65972301836E+02  0.15012223593E+03  0.00000000000E+00 0. -1.
</event>
<event>
 7    1  0.6510186E-006  0.8956171E+02  0.7818608E-02  0.1462908E+00
          2   -1    0    0  502    0  0.00000000000E+00  0.00000000000E+00  0.10510922828E+04  0.10510922828E+04  0.00000000000E+00 0. -1.
          1   -1    0    0  501    0 -0.00000000000E+00 -0.00000000000E+00 -0.96168816641E+02  0.96168816641E+02  0.00000000000E+00 0. -1.
         25    2    1    2    0    0  0.51945139281E+02  0.43075243433E+02  0.11130292052E+03  0.18046351798E+03  0.12499986845E+03 0.  0.
          2    1    1    2  501    0  0.22957630433E+02  0.86797125236E+01 -0.56752931268E+02  0.61832721209E+02  0.00000000000E+00 0. -1.
          1    1    1    2  502    0 -0.74902769714E+02 -0.51754955956E+02  0.90037347696E+03  0.90496486030E+03  0.00000000000E+00 0. -1.
         22    1    3    3    0    0  0.93560686552E+02  0.30185013325E+02  0.72924253211E+02  0.12240377365E+03  0.00000000000E+00 0. -1.
         22    1    3    3    0    0 -0.41615547271E+02  0.12890230108E+02  0.38378667308E+02  0.58059744326E+02  0.00000000000E+00 0. -1.
</event>
<event>
 7    1  0.6510186E-006  0.6563790E+02  0.7818608E-02  0.1430757E+00
          2   -1    0    0  502    0  0.00000000000E+00  0.00000000000E+00  0.14629418002E+04  0.14629418002E+04  0.00000000000E+00 0. -1.
          1   -1    0    0  501    0 -0.00000000000E+00 -0.00000000000E+00 -0.44845764491E+03  0.44845764491E+03  0.00000000000E+00 0. -1.
         25    2    1    2    0    0 -0.18887206002E+02 -0.66527816446E+02  0.10074984654E+04  0.10175758381E+04  0.12499900663E+03 0.  0.
          2    1    1    2  501    0  0.52073309049E+02  0.39998702222E+02 -0.43997519349E+03  0.44484794771E+03  0.00000000000E+00 0. -1.
          1    1    1    2  502    0 -0.33186103046E+02  0.26529114224E+02  0.44696088335E+03  0.44897565923E+03  0.00000000000E+00 0. -1.
         22    1    3    3    0    0  0.14068179918E+02  0.32956442965E+02  0.18607650201E+03  0.18949539683E+03  0.00000000000E+00 0.  1.
         22    1    3    3    0    0 -0.32955385921E+02 -0.99484259411E+02  0.82142196338E+03  0.82808044130E+03  0.00000000000E+00 0.  1.
</event>
<event>
 7    1  0.6510186E-006  0.1699839E+03  0.7818608E-02  0.1262743E+00
          2   -1    0    0  502    0  0.00000000000E+00  0.00000000000E+00  0.12592906487E+03  0.12592906487E+03  0.00000000000E+00 0. -1.
          1   -1    0    0  501    0 -0.00000000000E+00 -0.00000000000E+00 -0.22922941835E+04  0.22922941835E+04  0.00000000000E+00 0. -1.
         25    2    1    2    0    0  0.13363721897E+02 -0.15972626440E+03 -0.31398409184E+03  0.37403524340E+03  0.12500113909E+03 0.  0.
          2    1    1    2  501    0  0.69443518041E+02  0.57702846559E+01 -0.18674291601E+04  0.18687288103E+04  0.00000000000E+00 0. -1.
          1    1    1    2  502    0 -0.82807239938E+02  0.15395597975E+03  0.15048133300E+02  0.17545919469E+03  0.00000000000E+00 0. -1.
         22    1    3    3    0    0  0.60004239803E+02 -0.63085475456E+02 -0.87602794389E+02  0.12350925306E+03  0.00000000000E+00 0. -1.
         22    1    3    3    0    0 -0.46640517906E+02 -0.96640788946E+02 -0.22638129745E+03  0.25052599034E+03  0.00000000000E+00 0. -1.
</event>
<event>
 7    1  0.6510186E-006  0.7309304E+02  0.7818608E-02  0.1397702E+00
          2   -1    0    0  502    0  0.00000000000E+00  0.00000000000E+00  0.15211335390E+04  0.15211335390E+04  0.00000000000E+00 0. -1.
          1   -1    0    0  501    0 -0.00000000000E+00 -0.00000000000E+00 -0.40321688631E+03  0.40321688631E+03  0.00000000000E+00 0. -1.
         25    2    1    2    0    0 -0.27616361414E+02 -0.35265419222E+02 -0.97913451241E+02  0.16498303198E+03  0.12500417471E+03 0.  0.
          2    1    1    2  501    0  0.75562868599E+02  0.23779160881E+02 -0.26557726288E+03  0.27713981699E+03  0.00000000000E+00 0. -1.
          1    1    1    2  502    0 -0.47946507185E+02  0.11486258341E+02  0.14814073668E+04  0.14822275764E+04  0.00000000000E+00 0. -1.
         22    1    3    3    0    0  0.10333062506E+02 -0.69284624690E+02 -0.21767234988E+02  0.73354917478E+02  0.00000000000E+00 0.  1.
         22    1    3    3    0    0 -0.37949423921E+02  0.34019205468E+02 -0.76146216253E+02  0.91628114497E+02  0.00000000000E+00 0.  1.
</event>
<event>
 7    1  0.6510186E-006  0.6310930E+02  0.7818608E-02  0.1460691E+00
          2   -1    0    0  502    0  0.00000000000E+00  0.00000000000E+00  0.24020060801E+03  0.24020060801E+03  0.00000000000E+00 0. -1.
          1   -1    0    0  501    0 -0.00000000000E+00 -0.00000000000E+00 -0.17463273421E+04  0.17463273421E+04  0.00000000000E+00 0. -1.
         25    2    1    2    0    0  0.68426156343E+02 -0.25793719823E+02 -0.36289490527E+03  0.39072272830E+03  0.12499633308E+03 0.  0.
          2    1    1    2  501    0 -0.27525423145E+02 -0.22252478627E+02 -0.13648861049E+04  0.13653449751E+04  0.00000000000E+00 0. -1.
          1    1    1    2  502    0 -0.40900733198E+02  0.48046198450E+02  0.22165427612E+03  0.23046024665E+03  0.00000000000E+00 0. -1.
         22    1    3    3    0    0 -0.21824095448E+02  0.16472767897E+02 -0.18332181805E+03  0.18534975640E+03  0.00000000000E+00 0.  1.
         22    1    3    3    0    0  0.90250251791E+02 -0.42266487720E+02 -0.17957308722E+03  0.20537297189E+03  0.00000000000E+00 0.  1.
</event>
<event>
 7    1  0.6510186E-006  0.1171462E+03  0.7818608E-02  0.1367161E+00
          2   -1    0    0  502    0  0.00000000000E+00  0.00000000000E+00  0.91755785677E+02  0.91755785677E+02  0.00000000000E+00 0. -1.
          1   -1    0    0  501    0 -0.00000000000E+00 -0.00000000000E+00 -0.11258371500E+04  0.11258371500E+04  0.00000000000E+00 0. -1.
         25    2    1    2    0    0 -0.59663623196E+02  0.67001905075E+02 -0.19410160306E+03  0.24768730081E+03  0.12499825382E+03 0.  0.
          2    1    1    2  501    0  0.98903667809E+02 -0.70856358926E+02 -0.89443651334E+03  0.90267338251E+03  0.00000000000E+00 0. -1.
          1    1    1    2  502    0 -0.39240044613E+02  0.38544538512E+01  0.54456752047E+02  0.67232252374E+02  0.00000000000E+00 0. -1.
         22    1    3    3    0    0 -0.61734608742E+02 -0.66488559694E+01 -0.14869841485E+03  0.16114151476E+03  0.00000000000E+00 0.  1.
         22    1    3    3    0    0  0.20709855457E+01  0.73650761045E+02 -0.45403188209E+02  0.86545786050E+02  0.00000000000E+00 0.  1.
</event>
<event>
 7    1  0.6510186E-006  0.1182597E+03  0.7818608E-02  0.1384365E+00
          2   -1    0    0  502    0  0.00000000000E+00  0.00000000000E+00  0.17037468482E+04  0.17037468482E+04  0.00000000000E+00 0. -1.
          1   -1    0    0  501    0 -0.00000000000E+00 -0.00000000000E+00 -0.83267936156E+02  0.83267936156E+02  0.00000000000E+00 0. -1.
         25    2    1    2    0    0  0.56408070035E+02  0.12152153931E+03  0.45044040024E+03  0.48627963448E+03  0.12498789484E+03 0.  0.
          2    1    1    2  501    0 -0.72492175588E+02 -0.91663545756E+02 -0.12661990238E+02  0.11754848846E+03  0.00000000000E+00 0. -1.
          1    1    1    2  502    0  0.16084105553E+02 -0.29857993557E+02  0.11827005020E+04  0.11831866614E+04  0.00000000000E+00 0. -1.
         22    1    3    3    0    0  0.82342568495E+02  0.35668198275E+02  0.27456852836E+03  0.28886051256E+03  0.00000000000E+00 0.  1.
         22    1    3    3    0    0 -0.25934498460E+02  0.85853341038E+02  0.17587187189E+03  0.19741912192E+03  0.00000000000E+00 0.  1.
</event>
<event>
 7    1  0.6510186E-006  0.1073229E+03  0.7818608E-02  0.1330798E+00
          2   -1    0    0  502    0  0.00000000000E+00  0.00000000000E+00  0.12965522900E+04  0.12965522900E+04  0.00000000000E+00 0. -1.
          1   -1    0    0  501    0 -0.00000000000E+00 -0.00000000000E+00 -0.17688263115E+03  0.17688263115E+03  0.00000000000E+00 0. -1.
         25    2    1    2    0    0  0.23872787391E+02 -0.44838254538E+02  0.74240913680E+03  0.75457071704E+03  0.12500104625E+03 0.  0.
          2    1    1    2  501    0 -0.63564056461E+02  0.88117321019E+02 -0.15173228173E+03  0.18662190883E+03  0.00000000000E+00 0. -1.
          1    1    1    2  502    0  0.39691269070E+02 -0.43279066481E+02  0.52899280380E+03  0.53224229531E+03  0.00000000000E+00 0. -1.
         22    1    3    3    0    0  0.37285625737E+02 -0.71312052416E+02  0.28340779296E+03  0.29461093635E+03  0.00000000000E+00 0.  1.
         22    1    3    3    0    0 -0.13412838346E+02  0.26473797877E+02  0.45900134384E+03  0.45995978069E+03  0.00000000000E+00 0.  1.
</event>
<event>
 7    1  0.6510186E-006  0.2126136E+03  0.7818608E-02  0.1234713E+00
          2   -1    0    0  502    0  0.00000000000E+00  0.00000000000E+00  0.43632896423E+03  0.43632896423E+03  0.00000000000E+00 0. -1.
          1   -1    0    0  501    0 -0.00000000000E+00 -0.00000000000E+00 -0.18451219868E+04  0.18451219868E+04  0.00000000000E+00 0. -1.
         25    2    1    2    0    0 -0.20521789513E+03 -0.37529627878E+02 -0.50480614931E+03  0.56033354306E+03  0.12498629386E+03 0.  0.
          2    1    1    2  501    0  0.21201438907E+02 -0.70646362081E+02 -0.12835403740E+04  0.12856579254E+04  0.00000000000E+00 0. -1.
          1    1    1    2  502    0  0.18401645622E+03  0.10817598996E+03  0.37955350078E+03  0.43545948252E+03  0.00000000000E+00 0. -1.
         22    1    3    3    0    0 -0.21720949419E+03 -0.43983237563E+02 -0.42437174591E+03  0.47875449688E+03  0.00000000000E+00 0.  1.
         22    1    3    3    0    0  0.11991599067E+02  0.64536096859E+01 -0.80434403400E+02  0.81579046185E+02  0.00000000000E+00 0.  1.
</event>
<event>
 7    1  0.6510186E-006  0.1559848E+03  0.7818608E-02  0.1303191E+00
          2   -1    0    0  502    0  0.00000000000E+00  0.00000000000E+00  0.70785692626E+03  0.70785692626E+03  0.00000000000E+00 0. -1.
          1   -1    0    0  501    0 -0.00000000000E+00 -0.00000000000E+00 -0.90225150104E+03  0.90225150104E+03  0.00000000000E+00 0. -1.
         25    2    1    2    0    0  0.10871364637E+03 -0.26868337963E+02 -0.19930500924E+03  0.26056071490E+03  0.12501533885E+03 0.  0.
          2    1    1    2  501    0  0.35159058579E+02 -0.37995066146E+02 -0.66210028380E+03  0.66412090034E+03  0.00000000000E+00 0. -1.
          1    1    1    2  502    0 -0.14387270495E+03  0.64863404109E+02  0.66701071826E+03  0.68542681206E+03  0.00000000000E+00 0. -1.
         22    1    3    3    0    0  0.13442116544E+03 -0.16872672078E+02 -0.13824496763E+03  0.19355983017E+03  0.00000000000E+00 0.  1.
         22    1    3    3    0    0 -0.25707519066E+02 -0.99956658845E+01 -0.61060041613E+02  0.67000884731E+02  0.00000000000E+00 0.  1.
</event>
<event>
 7    1  0.6510186E-006  0.5676901E+02  0.7818608E-02  0.1511054E+00
          2   -1    0    0  502    0  0.00000000000E+00  0.00000000000E+00  0.18556512674E+04  0.18556512674E+04  0.00000000000E+00 0. -1.
          1   -1    0    0  501    0 -0.00000000000E+00 -0.00000000000E+00 -0.41555069531E+03  0.41555069531E+03  0.00000000000E+00 0. -1.
         25    2    1    2    0    0  0.65321400675E+00 -0.57924947997E+02  0.12954282239E+03  0.18910142773E+03  0.12498912292E+03 0.  0.
          2    1    1    2  501    0  0.26476063994E+02  0.79586287924E+01 -0.38479890467E+03  0.38579077072E+03  0.00000000000E+00 0. -1.
          1    1    1    2  502    0 -0.27129278001E+02  0.49966319205E+02  0.16953566544E+04  0.16963097643E+04  0.00000000000E+00 0. -1.
         22    1    3    3    0    0  0.16621377386E+02 -0.12819133448E+02 -0.21866811935E+02  0.30311018339E+02  0.00000000000E+00 0. -1.
         22    1    3    3    0    0 -0.15968163379E+02 -0.45105814549E+02  0.15140963432E+03  0.15879040939E+03  0.00000000000E+00 0. -1.
</event>
<event>
 7    1  0.6510186E-006  0.1223585E+03  0.7818608E-02  0.1274527E+00
          2   -1    0    0  502    0  0.00000000000E+00  0.00000000000E+00  0.18984030181E+04  0.18984030181E+04  0.00000000000E+00 0. -1.
          1   -1    0    0  501    0 -0.00000000000E+00 -0.00000000000E+00 -0.54786646884E+03  0.54786646884E+03  0.00000000000E+00 0. -1.
         25    2    1    2    0    0 -0.17580002754E+02 -0.39694785434E+02  0.82817369794E+02  0.15610353547E+03  0.12499945823E+03 0.  0.
          2    1    1    2  501    0  0.21058474862E+02  0.12598340598E+03 -0.50217557328E+03  0.51816559549E+03  0.00000000000E+00 0. -1.
          1    1    1    2  502    0 -0.34784721084E+01 -0.86288620541E+02  0.17698947528E+04  0.17720003560E+04  0.00000000000E+00 0. -1.
         22    1    3    3    0    0 -0.68709762409E+02 -0.26394082760E+02  0.70357551792E+02  0.10182270940E+03  0.00000000000E+00 0.  1.
         22    1    3    3    0    0  0.51129759655E+02 -0.13300702673E+02  0.12459818002E+02  0.54280826068E+02  0.00000000000E+00 0.  1.
</event>
<event>
 7    1  0.6510186E-006  0.7304688E+02  0.7818608E-02  0.1518403E+00
          2   -1    0    0  502    0  0.00000000000E+00  0.00000000000E+00  0.14663553347E+02  0.14663553347E+02  0.00000000000E+00 0. -1.
          1   -1    0    0  501    0 -0.00000000000E+00 -0.00000000000E+00 -0.11220685419E+04  0.11220685419E+04  0.00000000000E+00 0. -1.
         25    2    1    2    0    0  0.63441169188E+02 -0.31223505275E+01 -0.73285242755E+03  0.74614457080E+03  0.12499803577E+03 0.  0.
          2    1    1    2  501    0 -0.83552091658E+02 -0.57552409048E+00 -0.23223289826E+03  0.24680640648E+03  0.00000000000E+00 0. -1.
          1    1    1    2  502    0  0.20110922470E+02  0.36978746180E+01 -0.14231966279E+03  0.14378111801E+03  0.00000000000E+00 0. -1.
         22    1    3    3    0    0 -0.33644607731E+02 -0.20572971798E+02 -0.27281567107E+03  0.27565122379E+03  0.00000000000E+00 0. -1.
         22    1    3    3    0    0  0.97085776919E+02  0.17450621270E+02 -0.46003675648E+03  0.47049334700E+03  0.00000000000E+00 0. -1.
</event>
<event>
 7    1  0.6510186E-006  0.1221353E+03  0.7818608E-02  0.1336154E+00
          2   -1    0    0  502    0  0.00000000000E+00  0.00000000000E+00  0.86195591572E+03  0.86195591572E+03  0.00000000000E+00 0. -1.
          1   -1    0    0  501    0 -0.00000000000E+00 -0.00000000000E+00 -0.29418393303E+03  0.29418393303E+03  0.00000000000E+00 0. -1.
         25    2    1    2    0    0 -0.12812613906E+03  0.78045732524E+02  0.32866566460E+02  0.19802244971E+03  0.12500094209E+03 0.  0.
          2    1    1    2  501    0  0.79897796785E+02 -0.87972815305E+02 -0.19402430991E+03  0.22752649736E+03  0.00000000000E+00 0. -1.
          1    1    1    2  502    0  0.48228342278E+02  0.99270827805E+01  0.72892972614E+03  0.73059090168E+03  0.00000000000E+00 0. -1.
         22    1    3    3    0    0 -0.90955368524E+02 -0.10947707179E+02  0.42707302576E+02  0.10107742106E+03  0.00000000000E+00 0.  1.
         22    1    3    3    0    0 -0.37170770539E+02  0.88993439703E+02 -0.98407361157E+01  0.96945028650E+02  0.00000000000E+00 0.  1.
</event>
<event>
 7    1  0.6510186E-006  0.6198027E+02  0.7818608E-02  0.1432436E+00
          2   -1    0    0  502    0  0.00000000000E+00  0.00000000000E+00  0.28939422069E+03  0.28939422069E+03  0.00000000000E+00 0. -1.
          1   -1    0    0  501    0 -0.00000000000E+00 -0.00000000000E+00 -0.54966094383E+03  0.54966094383E+03  0.00000000000E+00 0. -1.
         25    2    1    2    0    0 -0.22329475089E+02  0.71401786208E+02  0.15341003681E+03  0.21153259524E+03  0.12495830875E+03 0.  0.
          2    1    1    2  501    0  0.50004475428E+02 -0.36648775569E+02 -0.51404058293E+03  0.51776568177E+03  0.00000000000E+00 0. -1.
          1    1    1    2  502    0 -0.27675000339E+02 -0.34753010639E+02  0.10036382299E+03  0.10975688751E+03  0.00000000000E+00 0. -1.
         22    1    3    3    0    0  0.21739994462E+02  0.66744962200E+02  0.23109307426E+02  0.73902350626E+02  0.00000000000E+00 0.  1.
         22    1    3    3    0    0 -0.44069469551E+02  0.46568240081E+01  0.13030072938E+03  0.13763024462E+03  0.00000000000E+00 0.  1.
</event>
<event>
 7    1  0.6510186E-006  0.7908816E+02  0.7818608E-02  0.1379959E+00
          2   -1    0    0  502    0  0.00000000000E+00  0.00000000000E+00  0.17298991470E+04  0.17298991470E+04  0.00000000000E+00 0. -1.
          1   -1    0    0  501    0 -0.00000000000E+00 -0.00000000000E+00 -0.82920416905E+02  0.82920416905E+02  0.00000000000E+00 0. -1.
         25    2    1    2    0    0  0.52116209124E+02 -0.22461734724E+02  0.31270567385E+03  0.34151158082E+03  0.12499877037E+03 0.  0.
          2    1    1    2  501    0 -0.37052146384E+02  0.72817805322E+02 -0.43480723232E+02  0.92551972515E+02  0.00000000000E+00 0. -1.
          1    1    1    2  502    0 -0.15064062740E+02 -0.50356070598E+02  0.13777537795E+04  0.13787560105E+04  0.00000000000E+00 0. -1.
         22    1    3    3    0    0  0.92467800017E+02 -0.24081462544E+02  0.19676192043E+03  0.21873606061E+03  0.00000000000E+00 0.  1.
         22    1    3    3    0    0 -0.40351590892E+02  0.16197278192E+01  0.11594375342E+03  0.12277552021E+03  0.00000000000E+00 0.  1.
</event>
<event>
 7    1  0.6510186E-006  0.1601880E+03  0.7818608E-02  0.1328626E+00
          2   -1    0    0  502    0  0.00000000000E+00  0.00000000000E+00  0.25259382114E+04  0.25259382114E+04  0.00000000000E+00 0. -1.
          1   -1    0    0  501    0 -0.00000000000E+00 -0.00000000000E+00 -0.69910775947E+03  0.69910775947E+03  0.00000000000E+00 0. -1.
         25    2    1    2    0    0 -0.14895208896E+03  0.67683280706E+02  0.54475256680E+03  0.58236298104E+03  0.12499412530E+03 0.  0.
          2    1    1    2  501    0  0.15765118306E+03 -0.28534909010E+02 -0.67066120143E+03  0.68953214838E+03  0.00000000000E+00 0. -1.
          1    1    1    2  502    0 -0.86990941060E+01 -0.39148371696E+02  0.19527390866E+04  0.19531508415E+04  0.00000000000E+00 0. -1.
         22    1    3    3    0    0  0.13965192191E+02  0.26329903580E+02  0.15612151924E+03  0.15894092986E+03  0.00000000000E+00 0. -1.
         22    1    3    3    0    0 -0.16291728115E+03  0.41353377126E+02  0.38863104756E+03  0.42342205118E+03  0.00000000000E+00 0. -1.
</event>
<event>
 7    1  0.6510186E-006  0.7967992E+02  0.7818608E-02  0.1369670E+00
          2   -1    0    0  502    0  0.00000000000E+00  0.00000000000E+00  0.45124506635E+03  0.45124506635E+03  0.00000000000E+00 0. -1.
          1   -1    0    0  501    0 -0.00000000000E+00 -0.00000000000E+00 -0.11582961841E+03  0.11582961841E+03  0.00000000000E+00 0. -1.
         25    2    1    2    0    0  0.27869370855E+02 -0.17406598732E+02  0.11978530940E+03  0.17622053036E+03  0.12500185383E+03 0.  0.
          2    1    1    2  501    0 -0.55394768776E+02  0.67062318581E+02 -0.62423362467E+02  0.10706358467E+03  0.00000000000E+00 0. -1.
          1    1    1    2  502    0  0.27525397921E+02 -0.49655719849E+02  0.27805350101E+03  0.28379056973E+03  0.00000000000E+00 0. -1.
         22    1    3    3    0    0  0.93353994045E+01 -0.64367905807E+02  0.10517702525E+03  0.12366318620E+03  0.00000000000E+00 0. -1.
         22    1    3    3    0    0  0.18533971450E+02  0.46961307075E+02  0.14608284155E+02  0.52557344167E+02  0.00000000000E+00 0. -1.
</event>
<event>
 7    1  0.6510186E-006  0.7613987E+02  0.7818608E-02  0.1341329E+00
          2   -1    0    0  502    0  0.00000000000E+00  0.00000000000E+00  0.51284167777E+03  0.51284167777E+03  0.00000000000E+00 0. -1.
          1   -1    0    0  501    0 -0.00000000000E+00 -0.00000000000E+00 -0.98469027004E+02  0.98469027004E+02  0.00000000000E+00 0. -1.
         25    2    1    2    0    0 -0.27819523371E+02 -0.12061520073E+02  0.11949690472E+02  0.12917200963E+03  0.12499282708E+03 0.  0.
          2    1    1    2  501    0 -0.28196997237E+02  0.70053281272E+02  0.39802363365E+01  0.75619938848E+02  0.00000000000E+00 0. -1.
          1    1    1    2  502    0  0.56016520608E+02 -0.57991761198E+02  0.39844272396E+03  0.40651875630E+03  0.00000000000E+00 0. -1.
         22    1    3    3    0    0 -0.61335833720E+02  0.77597758060E+01  0.46305974917E+02  0.77243394098E+02  0.00000000000E+00 0. -1.
         22    1    3    3    0    0  0.33516310349E+02 -0.19821295879E+02 -0.34356284445E+02  0.51928615528E+02  0.00000000000E+00 0. -1.
</event>
<event>
 7    1  0.6510186E-006  0.1418345E+03  0.7818608E-02  0.1290230E+00
          2   -1    0    0  502    0  0.00000000000E+00  0.00000000000E+00  0.14194992405E+04  0.14194992405E+04  0.00000000000E+00 0. -1.
          1   -1    0    0  501    0 -0.00000000000E+00 -0.00000000000E+00 -0.22112861239E+03  0.22112861239E+03  0.00000000000E+00 0. -1.
         25    2    1    2    0    0  0.58595986887E+02 -0.74152942903E+02  0.11157994781E+03  0.19234858293E+03  0.12496297044E+03 0.  0.
          2    1    1    2  501    0  0.63695188276E+02 -0.80033322670E+01 -0.17060441642E+03  0.18228273982E+03  0.00000000000E+00 0. -1.
          1    1    1    2  502    0 -0.12229117516E+03  0.82156275170E+02  0.12573950967E+04  0.12659965301E+04  0.00000000000E+00 0. -1.
         22    1    3    3    0    0 -0.11251290866E+02 -0.39388385927E+02 -0.15026324213E+02  0.43632865039E+02  0.00000000000E+00 0. -1.
         22    1    3    3    0    0  0.69847277753E+02 -0.34764556975E+02  0.12660627202E+03  0.14871571789E+03  0.00000000000E+00 0. -1.
</event>
<event>
 7    1  0.6510186E-006  0.1186732E+03  0.7818608E-02  0.1423965E+00
          2   -1    0    0  502    0  0.00000000000E+00  0.00000000000E+00  0.21321257360E+03  0.21321257360E+03  0.00000000000E+00 0. -1.
          1   -1    0    0  501    0 -0.00000000000E+00 -0.00000000000E+00 -0.71683788867E+03  0.71683788867E+03  0.00000000000E+00 0. -1.
         25    2    1    2    0    0 -0.26901668084E+02  0.13676762048E+03 -0.34713921681E+03  0.39440996225E+03  0.12499800285E+03 0.  0.
          2    1    1    2  501    0  0.14982431248E+02 -0.19694442460E+02 -0.32728917230E+03  0.32822331821E+03  0.00000000000E+00 0. -1.
          1    1    1    2  502    0  0.11919236837E+02 -0.11707317802E+03  0.17080307403E+03  0.20741718182E+03  0.00000000000E+00 0. -1.
         22    1    3    3    0    0  0.14802313565E+02  0.24496729373E+02 -0.15583877487E+01  0.28664033374E+02  0.00000000000E+00 0.  1.
         22    1    3    3    0    0 -0.41703981649E+02  0.11227089110E+03 -0.34558082906E+03  0.36574592887E+03  0.00000000000E+00 0.  1.
</event>
<event>
 7    1  0.7285138E-006  0.1098324E+03  0.7818608E-02  0.1305202E+00
          2   -1    0    0  502    0  0.00000000000E+00  0.00000000000E+00  0.13255124463E+04  0.13255124463E+04  0.00000000000E+00 0. -1.
          1   -1    0    0  501    0 -0.00000000000E+00 -0.00000000000E+00 -0.54734016706E+03  0.54734016706E+03  0.00000000000E+00 0. -1.
         25    2    1    2    0    0 -0.88244539002E+02 -0.11262619879E+02 -0.10334044846E+03  0.18497646514E+03  0.12499239616E+03 0.  0.
          2    1    1    2  501    0  0.10139138045E+03 -0.59708021669E+02 -0.39355428912E+03  0.41076786433E+03  0.00000000000E+00 0. -1.
          1    1    1    2  502    0 -0.13146841447E+02  0.70970641548E+02  0.12750670168E+04  0.12771082838E+04  0.00000000000E+00 0. -1.
         22    1    3    3    0    0 -0.16856868317E+01 -0.49074438145E+02 -0.68536435072E+02  0.84311238585E+02  0.00000000000E+00 0.  1.
         22    1    3    3    0    0 -0.86558852171E+02  0.37811818266E+02 -0.34804013387E+02  0.10066522656E+03  0.00000000000E+00 0.  1.
</event>
<event>
 7    1  0.6510186E-006  0.9030862E+02  0.7818608E-02  0.1422375E+00
          2   -1    0    0  502    0  0.00000000000E+00  0.00000000000E+00  0.68406721101E+03  0.68406721101E+03  0.00000000000E+00 0. -1.
          1   -1    0    0  501    0 -0.00000000000E+00 -0.00000000000E+00 -0.53993944054E+03  0.53993944054E+03  0.00000000000E+00 0. -1.
         25    2    1    2    0    0  0.10528087382E+03  0.14402469114E+02 -0.27182749486E+03  0.31750101107E+03  0.12500084624E+03 0.  0.
          2    1    1    2  501    0 -0.23318912884E+02  0.23231428440E+02 -0.24107623351E+03  0.24331301102E+03  0.00000000000E+00 0. -1.
          1    1    1    2  502    0 -0.81961960936E+02 -0.37633897554E+02  0.65703149885E+03  0.66319262946E+03  0.00000000000E+00 0. -1.
         22    1    3    3    0    0  0.15215095811E+02  0.11248035815E+02  0.10150198128E+02  0.21471934526E+02  0.00000000000E+00 0.  1.
         22    1    3    3    0    0  0.90065778009E+02  0.31544332986E+01 -0.28197769299E+03  0.29602907655E+03  0.00000000000E+00 0.  1.
</event>
<event>
 7    1  0.6510186E-006  0.6981879E+02  0.7818608E-02  0.1527817E+00
          2   -1    0    0  502    0  0.00000000000E+00  0.00000000000E+00  0.39745587421E+02  0.39745587421E+02  0.00000000000E+00 0. -1.
          1   -1    0    0  501    0 -0.00000000000E+00 -0.00000000000E+00 -0.18118093071E+04  0.18118093071E+04  0.00000000000E+00 0. -1.
         25    2    1    2    0    0 -0.37079074986E+02 -0.40845347635E+02 -0.17308339461E+03  0.22051182425E+03  0.12499761165E+03 0.  0.
          2    1    1    2  501    0  0.57172430186E+02  0.40963862470E+02 -0.16076292544E+04  0.16091670343E+04  0.00000000000E+00 0. -1.
          1    1    1    2  502    0 -0.20093355200E+02 -0.11851483490E+00  0.86489293434E+01  0.21876035924E+02  0.00000000000E+00 0. -1.
         22    1    3    3    0    0 -0.33023441917E+01  0.17389330404E+01 -0.16560424526E+03  0.16564629610E+03  0.00000000000E+00 0. -1.
         22    1    3    3    0    0 -0.33776730795E+02 -0.42584280676E+02 -0.74791493584E+01  0.54865528148E+02  0.00000000000E+00 0. -1.
</event>
<event>
 7    1  0.6510186E-006  0.1397247E+03  0.7818608E-02  0.1415851E+00
          2   -1    0    0  502    0  0.00000000000E+00  0.00000000000E+00  0.21086945158E+03  0.21086945158E+03  0.00000000000E+00 0. -1.
          1   -1    0    0  501    0 -0.00000000000E+00 -0.00000000000E+00 -0.14544137266E+04  0.14544137266E+04  0.00000000000E+00 0. -1.
         25    2    1    2    0    0 -0.48528848653E+02 -0.15222114106E+03 -0.25134861619E+03  0.32299808422E+03  0.12500124245E+03 0.  0.
          2    1    1    2  501    0  0.10572641223E+02  0.19714699209E+02 -0.11399796480E+04  0.11401991265E+04  0.00000000000E+00 0. -1.
          1    1    1    2  502    0  0.37956207430E+02  0.13250644185E+03  0.14778398916E+03  0.20208596752E+03  0.00000000000E+00 0. -1.
         22    1    3    3    0    0 -0.80058583093E+02 -0.10973494022E+03 -0.22749377689E+03  0.26496141673E+03  0.00000000000E+00 0. -1.
         22    1    3    3    0    0  0.31529734440E+02 -0.42486200840E+02 -0.23854839305E+02  0.58036667495E+02  0.00000000000E+00 0. -1.
</event>
<event>
 7    1  0.6510186E-006  0.1173697E+03  0.7818608E-02  0.1275367E+00
          2   -1    0    0  502    0  0.00000000000E+00  0.00000000000E+00  0.17711159676E+04  0.17711159676E+04  0.00000000000E+00 0. -1.
          1   -1    0    0  501    0 -0.00000000000E+00 -0.00000000000E+00 -0.20890306134E+04  0.20890306134E+04  0.00000000000E+00 0. -1.
         25    2    1    2    0    0  0.14204816232E+03 -0.56605596010E+01  0.15318832856E+04  0.15435351528E+04  0.12499857898E+03 0.  0.
          2    1    1    2  501    0 -0.66840159279E+02  0.59228905065E+02 -0.20730736152E+04  0.20749963576E+04  0.00000000000E+00 0. -1.
          1    1    1    2  502    0 -0.75208003042E+02 -0.53568345464E+02  0.22327568382E+03  0.24161507060E+03  0.00000000000E+00 0. -1.
         22    1    3    3    0    0  0.92863152497E+01 -0.17293180508E+02  0.75844707471E+03  0.75870103129E+03  0.00000000000E+00 0.  1.
         22    1    3    3    0    0  0.13276184707E+03  0.11632620907E+02  0.77343621090E+03  0.78483412148E+03  0.00000000000E+00 0.  1.
</event>
<event>
 7    1  0.6510186E-006  0.5513865E+02  0.7818608E-02  0.1448494E+00
          2   -1    0    0  502    0  0.00000000000E+00  0.00000000000E+00  0.22007497114E+03  0.22007497114E+03  0.00000000000E+00 0. -1.
          1   -1    0    0  501    0 -0.00000000000E+00 -0.00000000000E+00 -0.19659365430E+04  0.19659365430E+04  0.00000000000E+00 0. -1.
         25    2    1    2    0    0  0.17362042751E+02 -0.18016395910E+02 -0.14249547813E+03  0.19119894580E+03  0.12500417807E+03 0.  0.
          2    1    1    2  501    0  0.62659897386E+01  0.55482972556E+02 -0.17961438099E+04  0.17970114660E+04  0.00000000000E+00 0. -1.
          1    1    1    2  502    0 -0.23628032490E+02 -0.37466576647E+02  0.19277771614E+03  0.19780110243E+03  0.00000000000E+00 0. -1.
         22    1    3    3    0    0  0.40224114460E+02 -0.41922479209E+02 -0.14676497604E+03  0.15784622846E+03  0.00000000000E+00 0.  1.
         22    1    3    3    0    0 -0.22862071708E+02  0.23906083299E+02  0.42694979062E+01  0.33352717339E+02  0.00000000000E+00 0.  1.
</event>
<event>
 7    1  0.6510186E-006  0.7418745E+02  0.7818608E-02  0.1414515E+00
          2   -1    0    0  502    0  0.00000000000E+00  0.00000000000E+00  0.64703023367E+03  0.64703023367E+03  0.00000000000E+00 0. -1.
          1   -1    0    0  501    0 -0.00000000000E+00 -0.00000000000E+00 -0.28467766171E+03  0.28467766171E+03  0.00000000000E+00 0. -1.
         25    2    1    2    0    0  0.44724991808E+02  0.73773830234E+01  0.17675450889E+03  0.22118044417E+03  0.12499552712E+03 0.  0.
          2    1    1    2  501    0  0.31858632415E+02 -0.28237256266E+02 -0.25718590283E+03  0.26068544976E+03  0.00000000000E+00 0. -1.
          1    1    1    2  502    0 -0.76583624223E+02  0.20859873242E+02  0.44278396590E+03  0.44984200145E+03  0.00000000000E+00 0. -1.
         22    1    3    3    0    0  0.53615506633E+02 -0.29980101433E+01  0.19278089342E+03  0.20012017261E+03  0.00000000000E+00 0.  1.
         22    1    3    3    0    0 -0.88905148251E+01  0.10375393167E+02 -0.16026384532E+02  0.21060271565E+02  0.00000000000E+00 0.  1.
</event>
<event>
 7    1  0.6510186E-006  0.5953523E+02  0.7818608E-02  0.1434454E+00
          2   -1    0    0  502    0  0.00000000000E+00  0.00000000000E+00  0.40196095102E+03  0.40196095102E+03  0.00000000000E+00 0. -1.
          1   -1    0    0  501    0 -0.00000000000E+00 -0.00000000000E+00 -0.78008139341E+03  0.78008139341E+03  0.00000000000E+00 0. -1.
         25    2    1    2    0    0  0.95123470353E+02  0.11809412235E+02 -0.16502505199E+02  0.15837840995E+03  0.12499380478E+03 0.  0.
          2    1    1    2  501    0 -0.38024141051E+02 -0.25082181637E+02 -0.68928791436E+03  0.69079141571E+03  0.00000000000E+00 0. -1.
          1    1    1    2  502    0 -0.57099329302E+02  0.13272769402E+02  0.32766997717E+03  0.33287251877E+03  0.00000000000E+00 0. -1.
         22    1    3    3    0    0  0.81337742941E+02  0.35468302546E+02 -0.59903116839E+02  0.10706172201E+03  0.00000000000E+00 0. -1.
         22    1    3    3    0    0  0.13785727412E+02 -0.23658890311E+02  0.43400611641E+02  0.51316687947E+02  0.00000000000E+00 0. -1.
</event>
<event>
 7    1  0.6510186E-006  0.9679898E+02  0.7818608E-02  0.1302309E+00
          2   -1    0    0  502    0  0.00000000000E+00  0.00000000000E+00  0.17664443177E+03  0.17664443177E+03  0.00000000000E+00 0. -1.
          1   -1    0    0  501    0 -0.00000000000E+00 -0.00000000000E+00 -0.23318141600E+04  0.23318141600E+04  0.00000000000E+00 0. -1.
         25    2    1    2    0    0  0.14602469844E+03 -0.57504567767E+02 -0.20783064042E+03  0.28887447669E+03  0.12499960127E+03 0.  0.
          2    1    1    2  501    0 -0.95144678051E+02 -0.94537561713E+01 -0.20692628559E+04  0.20714706491E+04  0.00000000000E+00 0. -1.
          1    1    1    2  502    0 -0.50880020386E+02  0.66958323939E+02  0.12192376802E+03  0.14811346605E+03  0.00000000000E+00 0. -1.
         22    1    3    3    0    0 -0.17527461838E+02 -0.16072210321E+02 -0.60046973005E+02  0.64584571147E+02  0.00000000000E+00 0. -1.
         22    1    3    3    0    0  0.16355216028E+03 -0.41432357447E+02 -0.14778366741E+03  0.22428990554E+03  0.00000000000E+00 0. -1.
</event>
<event>
 7    1  0.6510186E-006  0.2115786E+03  0.7818608E-02  0.1295712E+00
          2   -1    0    0  502    0  0.00000000000E+00  0.00000000000E+00  0.41566412921E+03  0.41566412921E+03  0.00000000000E+00 0. -1.
          1   -1    0    0  501    0 -0.00000000000E+00 -0.00000000000E+00 -0.41682159326E+03  0.41682159326E+03  0.00000000000E+00 0. -1.
         25    2    1    2    0    0  0.23356554016E+03  0.62058086640E+02 -0.50425788289E+02  0.27671602782E+03  0.12499972906E+03 0.  0.
          2    1    1    2  501    0 -0.19336197561E+03 -0.54590933061E+02 -0.21155460715E+03  0.29176081881E+03  0.00000000000E+00 0. -1.
          1    1    1    2  502    0 -0.40203564543E+02 -0.74671535783E+01  0.26082293138E+03  0.26400887583E+03  0.00000000000E+00 0. -1.
         22    1    3    3    0    0  0.24258883306E+03  0.70633703116E+02 -0.32288089224E+02  0.25471745650E+03  0.00000000000E+00 0. -1.
         22    1    3    3    0    0 -0.90232929049E+01 -0.85756164766E+01 -0.18137699064E+02  0.21998571321E+02  0.00000000000E+00 0. -1.
</event>
<event>
 7    1  0.6510186E-006  0.1005280E+03  0.7818608E-02  0.1289402E+00
          2   -1    0    0  502    0  0.00000000000E+00  0.00000000000E+00  0.37259853960E+03  0.37259853960E+03  0.00000000000E+00 0. -1.
          1   -1    0    0  501    0 -0.00000000000E+00 -0.00000000000E+00 -0.15725719980E+04  0.15725719980E+04  0.00000000000E+00 0. -1.
         25    2    1    2    0    0 -0.68431386669E+02 -0.51954503932E+01 -0.20463353100E+03  0.24941911213E+03  0.12500065640E+03 0.  0.
          2    1    1    2  501    0  0.11295858911E+02  0.90577424594E+02 -0.13364206954E+04  0.13395343002E+04  0.00000000000E+00 0. -1.
          1    1    1    2  502    0  0.57135527758E+02 -0.85381974201E+02  0.34108076800E+03  0.35621712529E+03  0.00000000000E+00 0. -1.
         22    1    3    3    0    0 -0.66212622965E+02  0.58532275398E+01 -0.27511981835E+02  0.71939424915E+02  0.00000000000E+00 0. -1.
         22    1    3    3    0    0 -0.22187637036E+01 -0.11048677933E+02 -0.17712154917E+03  0.17747968722E+03  0.00000000000E+00 0. -1.
</event>
<event>
 7    1  0.6510186E-006  0.2862592E+02  0.7818608E-02  0.1623782E+00
          2   -1    0    0  502    0  0.00000000000E+00  0.00000000000E+00  0.72083806329E+03  0.72083806329E+03  0.00000000000E+00 0. -1.
          1   -1    0    0  501    0 -0.00000000000E+00 -0.00000000000E+00 -0.46581654674E+03  0.46581654674E+03  0.00000000000E+00 0. -1.
         25    2    1    2    0    0  0.18942050435E+01 -0.57948600930E+01 -0.37002071760E+03  0.39061624754E+03  0.12501421108E+03 0.  0.
          2    1    1    2  501    0 -0.23907943870E+02 -0.12535141157E+02 -0.83070422064E+02  0.87346520056E+02  0.00000000000E+00 0. -1.
          1    1    1    2  502    0  0.22013738826E+02  0.18330001250E+02  0.70811265622E+03  0.70869184244E+03  0.00000000000E+00 0. -1.
         22    1    3    3    0    0  0.63003506579E+01 -0.49257636064E+02 -0.61631837691E+02  0.79148547341E+02  0.00000000000E+00 0.  1.
         22    1    3    3    0    0 -0.44061456144E+01  0.43462775971E+02 -0.30838887991E+03  0.31146770020E+03  0.00000000000E+00 0.  1.
</event>
<event>
 7    1  0.6510186E-006  0.1334812E+03  0.7818608E-02  0.1376772E+00
          2   -1    0    0  502    0  0.00000000000E+00  0.00000000000E+00  0.73988409009E+03  0.73988409009E+03  0.00000000000E+00 0. -1.
          1   -1    0    0  501    0 -0.00000000000E+00 -0.00000000000E+00 -0.11682537194E+04  0.11682537194E+04  0.00000000000E+00 0. -1.
         25    2    1    2    0    0  0.10126325778E+03 -0.73205460795E+02 -0.10398257700E+03  0.20508282833E+03  0.12503320875E+03 0.  0.
          2    1    1    2  501    0 -0.87585352577E+02  0.10209586969E+03 -0.10088839447E+04  0.10178121508E+04  0.00000000000E+00 0. -1.
          1    1    1    2  502    0 -0.13677905199E+02 -0.28890408898E+02  0.68449689237E+03  0.68524283030E+03  0.00000000000E+00 0. -1.
         22    1    3    3    0    0  0.11171511682E+03 -0.37258103960E+02 -0.11645808465E+03  0.16562282185E+03  0.00000000000E+00 0. -1.
         22    1    3    3    0    0 -0.10451859041E+02 -0.35947356836E+02  0.12475507645E+02  0.39460006486E+02  0.00000000000E+00 0. -1.
</event>
<event>
 7    1  0.6510186E-006  0.7364650E+02  0.7818608E-02  0.1425711E+00
          2   -1    0    0  502    0  0.00000000000E+00  0.00000000000E+00  0.19624952076E+04  0.19624952076E+04  0.00000000000E+00 0. -1.
          1   -1    0    0  501    0 -0.00000000000E+00 -0.00000000000E+00 -0.21584074915E+03  0.21584074915E+03  0.00000000000E+00 0. -1.
         25    2    1    2    0    0  0.13615157463E+02  0.97787742200E+02 -0.57577839232E+02  0.16937283158E+03  0.12499653383E+03 0.  0.
          2    1    1    2  501    0 -0.29530076809E+02 -0.26002747364E+02 -0.97847687718E+02  0.10546249712E+03  0.00000000000E+00 0. -1.
          1    1    1    2  502    0  0.15914919346E+02 -0.71784994836E+02  0.19020799854E+04  0.19035006281E+04  0.00000000000E+00 0. -1.
         22    1    3    3    0    0  0.56537150786E+02  0.59358272775E+02 -0.72962377813E+02  0.10974225504E+03  0.00000000000E+00 0.  1.
         22    1    3    3    0    0 -0.42921993324E+02  0.38429469425E+02  0.15384538580E+02  0.59630576540E+02  0.00000000000E+00 0.  1.
</event>
<event>
 7    1  0.6510186E-006  0.4677061E+02  0.7818608E-02  0.1484937E+00
          2   -1    0    0  502    0  0.00000000000E+00  0.00000000000E+00  0.16146872846E+03  0.16146872846E+03  0.00000000000E+00 0. -1.
          1   -1    0    0  501    0 -0.00000000000E+00 -0.00000000000E+00 -0.40663469196E+03  0.40663469196E+03  0.00000000000E+00 0. -1.
         25    2    1    2    0    0 -0.62762407641E+02  0.51428633800E+02 -0.25072289238E+03  0.29167087140E+03  0.12500361704E+03 0.  0.
          2    1    1    2  501    0  0.34487244595E+02 -0.22891537331E+02 -0.12927652603E+03  0.13574171320E+03  0.00000000000E+00 0. -1.
          1    1    1    2  502    0  0.28275163046E+02 -0.28537096469E+02  0.13483345491E+03  0.14069083582E+03  0.00000000000E+00 0. -1.
         22    1    3    3    0    0 -0.95924781570E+02  0.14157106787E+02 -0.14081654275E+03  0.17097159443E+03  0.00000000000E+00 0. -1.
         22    1    3    3    0    0  0.33162373929E+02  0.37271527013E+02 -0.10990634963E+03  0.12069927696E+03  0.00000000000E+00 0. -1.
</event>
<event>
 7    1  0.6510186E-006  0.4484516E+02  0.7818608E-02  0.1475389E+00
          2   -1    0    0  502    0  0.00000000000E+00  0.00000000000E+00  0.18223504439E+03  0.18223504439E+03  0.00000000000E+00 0. -1.
          1   -1    0    0  501    0 -0.00000000000E+00 -0.00000000000E+00 -0.62065531390E+03  0.62065531390E+03  0.00000000000E+00 0. -1.
         25    2    1    2    0    0 -0.60558119061E+02  0.17017653714E+02 -0.25942944744E+03  0.29476313326E+03  0.12499912083E+03 0.  0.
          2    1    1    2  501    0  0.38902869472E+02  0.22258215674E+02 -0.33900055537E+03  0.34195063673E+03  0.00000000000E+00 0. -1.
          1    1    1    2  502    0  0.21655249589E+02 -0.39275869388E+02  0.16000973330E+03  0.16617658831E+03  0.00000000000E+00 0. -1.
         22    1    3    3    0    0 -0.10394351331E-01  0.14700360087E+02  0.10533014972E+02  0.18084388271E+02  0.00000000000E+00 0.  1.
         22    1    3    3    0    0 -0.60547724710E+02  0.23172936268E+01 -0.26996246241E+03  0.27667874499E+03  0.00000000000E+00 0.  1.
</event>
<event>
 7    1  0.6510186E-006  0.8512729E+02  0.7818608E-02  0.1377782E+00
          2   -1    0    0  502    0  0.00000000000E+00  0.00000000000E+00  0.12612471860E+03  0.12612471860E+03  0.00000000000E+00 0. -1.
          1   -1    0    0  501    0 -0.00000000000E+00 -0.00000000000E+00 -0.10866932000E+04  0.10866932000E+04  0.00000000000E+00 0. -1.
         25    2    1    2    0    0  0.23848081619E+02 -0.60551254829E+02 -0.25318606705E+03  0.28976518613E+03  0.12500197231E+03 0.  0.
          2    1    1    2  501    0  0.48314482533E+02  0.11689426091E+02 -0.79670788040E+03  0.79825708803E+03  0.00000000000E+00 0. -1.
          1    1    1    2  502    0 -0.72162564153E+02  0.48861828737E+02  0.89325466088E+02  0.12479564441E+03  0.00000000000E+00 0. -1.
         22    1    3    3    0    0  0.20012203684E+02 -0.47395604746E+02 -0.18489563890E+02  0.54668963940E+02  0.00000000000E+00 0.  1.
         22    1    3    3    0    0  0.38358779356E+01 -0.13155650083E+02 -0.23469650316E+03  0.23509622219E+03  0.00000000000E+00 0.  1.
</event>
<event>
 7    1  0.6510186E-006  0.2178927E+03  0.7818608E-02  0.1243145E+00
          2   -1    0    0  502    0  0.00000000000E+00  0.00000000000E+00  0.14582521201E+04  0.14582521201E+04  0.00000000000E+00 0. -1.
          1   -1    0    0  501    0 -0.00000000000E+00 -0.00000000000E+00 -0.53446760553E+03  0.53446760553E+03  0.00000000000E+00 0. -1.
         25    2    1    2    0    0  0.14149278955E+03  0.94782186361E+02  0.28977517002E+03  0.35860862902E+03  0.12500650903E+03 0.  0.
          2    1    1    2  501    0  0.62306826682E+02  0.21936035685E+02 -0.48563165510E+03  0.49010349391E+03  0.00000000000E+00 0. -1.
          1    1    1    2  502    0 -0.20379961624E+03 -0.11671822205E+03  0.11196409996E+04  0.11440076027E+04  0.00000000000E+00 0. -1.
         22    1    3    3    0    0  0.13098925906E+03  0.17766859860E+02  0.20149960250E+03  0.24098949584E+03  0.00000000000E+00 0. -1.
         22    1    3    3    0    0  0.10503530494E+02  0.77015326501E+02  0.88275567521E+02  0.11761913318E+03  0.00000000000E+00 0. -1.
</event>
<event>
 7    1  0.6510186E-006  0.6956035E+02  0.7818608E-02  0.1514484E+00
          2   -1    0    0  502    0  0.00000000000E+00  0.00000000000E+00  0.49278090742E+02  0.49278090742E+02  0.00000000000E+00 0. -1.
          1   -1    0    0  501    0 -0.00000000000E+00 -0.00000000000E+00 -0.30463319631E+03  0.30463319631E+03  0.00000000000E+00 0. -1.
         25    2    1    2    0    0  0.54255156186E+02  0.18311242823E+02 -0.95300980233E+02  0.16729093837E+03  0.12500023056E+03 0.  0.
          2    1    1    2  501    0 -0.61860230347E+02 -0.39003899912E+02 -0.13240143552E+03  0.15125518978E+03  0.00000000000E+00 0. -1.
          1    1    1    2  502    0  0.76050741606E+01  0.20692657089E+02 -0.27652689814E+02  0.35365158905E+02  0.00000000000E+00 0. -1.
         22    1    3    3    0    0  0.79653110431E+02 -0.99706882102E+01 -0.10082589060E+03  0.12887937322E+03  0.00000000000E+00 0.  1.
         22    1    3    3    0    0 -0.25397954244E+02  0.28281931033E+02  0.55249103717E+01  0.38411565151E+02  0.00000000000E+00 0.  1.
</event>
<event>
 7    1  0.6510186E-006  0.1031605E+03  0.7818608E-02  0.1341534E+00
          2   -1    0    0  502    0  0.00000000000E+00  0.00000000000E+00  0.11428932691E+04  0.11428932691E+04  0.00000000000E+00 0. -1.
          1   -1    0    0  501    0 -0.00000000000E+00 -0.00000000000E+00 -0.58142015121E+03  0.58142015121E+03  0.00000000000E+00 0. -1.
         25    2    1    2    0    0  0.15817767092E+02 -0.13925870524E+03  0.58170849913E+03  0.61127603914E+03  0.12502171541E+03 0.  0.
          2    1    1    2  501    0 -0.30670826338E+02  0.46419971858E+02 -0.56120610387E+03  0.56395727179E+03  0.00000000000E+00 0. -1.
          1    1    1    2  502    0  0.14853059246E+02  0.92838733382E+02  0.54097072266E+03  0.54908010942E+03  0.00000000000E+00 0. -1.
         22    1    3    3    0    0 -0.61349875969E+01 -0.94384807137E+02  0.53361296557E+03  0.54193073997E+03  0.00000000000E+00 0. -1.
         22    1    3    3    0    0  0.21952754689E+02 -0.44873898103E+02  0.48095533556E+02  0.69345299174E+02  0.00000000000E+00 0. -1.
</event>
<event>
 7    1  0.6510186E-006  0.2951487E+03  0.7818608E-02  0.1284823E+00
          2   -1    0    0  502    0  0.00000000000E+00  0.00000000000E+00  0.38580328924E+04  0.38580328924E+04  0.00000000000E+00 0. -1.
          1   -1    0    0  501    0 -0.00000000000E+00 -0.00000000000E+00 -0.72559217148E+03  0.72559217148E+03  0.00000000000E+00 0. -1.
         25    2    1    2    0    0 -0.25956971873E+03 -0.52513542290E+02 -0.20118415995E+03  0.35529421283E+03  0.12499920180E+03 0.  0.
          2    1    1    2  501    0 -0.28116189480E+02 -0.16218299159E+02 -0.44097089014E+03  0.44216386023E+03  0.00000000000E+00 0. -1.
          1    1    1    2  502    0  0.28768590821E+03  0.68731841449E+02  0.37745957710E+04  0.37861669908E+04  0.00000000000E+00 0. -1.
         22    1    3    3    0    0 -0.23875090647E+03 -0.13748638159E+02 -0.19920970530E+03  0.31124833666E+03  0.00000000000E+00 0. -1.
         22    1    3    3    0    0 -0.20818812264E+02 -0.38764904131E+02 -0.19744546522E+01  0.44045876170E+02  0.00000000000E+00 0. -1.
</event>
<event>
 7    1  0.6510186E-006  0.7252484E+02  0.7818608E-02  0.1379201E+00
          2   -1    0    0  502    0  0.00000000000E+00  0.00000000000E+00  0.91227611354E+02  0.91227611354E+02  0.00000000000E+00 0. -1.
          1   -1    0    0  501    0 -0.00000000000E+00 -0.00000000000E+00 -0.29064593103E+03  0.29064593103E+03  0.00000000000E+00 0. -1.
         25    2    1    2    0    0  0.86154957159E-01  0.48030802629E+02 -0.10985980902E+03  0.17319267414E+03  0.12497823535E+03 0.  0.
          2    1    1    2  501    0 -0.56942996113E+02  0.91512780108E+01 -0.11113266724E+03  0.12520671078E+03  0.00000000000E+00 0. -1.
          1    1    1    2  502    0  0.56856841155E+02 -0.57182080640E+02  0.21574156589E+02  0.83474157468E+02  0.00000000000E+00 0. -1.
         22    1    3    3    0    0  0.10665679073E+00  0.59834983564E+02  0.28149703076E+01  0.59901257847E+02  0.00000000000E+00 0.  1.
         22    1    3    3    0    0 -0.20501833572E-01 -0.11804180935E+02 -0.11267477933E+03  0.11329141629E+03  0.00000000000E+00 0.  1.
</event>
<event>
 7    1  0.6510186E-006  0.5273444E+02  0.7818608E-02  0.1448307E+00
          2   -1    0    0  502    0  0.00000000000E+00  0.00000000000E+00  0.27912318466E+02  0.27912318466E+02  0.00000000000E+00 0. -1.
          1   -1    0    0  501    0 -0.00000000000E+00 -0.00000000000E+00 -0.13598243473E+04  0.13598243473E+04  0.00000000000E+00 0. -1.
         25    2    1    2    0    0  0.16830948416E+02 -0.22329873559E+02 -0.31852532889E+03  0.34331536701E+03  0.12500060803E+03 0.  0.
          2    1    1    2  501    0  0.19148396138E+02  0.51594735270E+02 -0.99169518775E+03  0.99322103440E+03  0.00000000000E+00 0. -1.
          1    1    1    2  502    0 -0.35979344554E+02 -0.29264861711E+02 -0.21691512158E+02  0.51200264308E+02  0.00000000000E+00 0. -1.
         22    1    3    3    0    0  0.67592432180E+00  0.17820012603E+02 -0.29202354678E+03  0.29256753339E+03  0.00000000000E+00 0. -1.
         22    1    3    3    0    0  0.16155024094E+02 -0.40149886162E+02 -0.26501782112E+02  0.50747833623E+02  0.00000000000E+00 0. -1.
</event>
<event>
 7    1  0.6510186E-006  0.1440348E+03  0.7818608E-02  0.1376599E+00
          2   -1    0    0  502    0  0.00000000000E+00  0.00000000000E+00  0.41217216181E+02  0.41217216181E+02  0.00000000000E+00 0. -1.
          1   -1    0    0  501    0 -0.00000000000E+00 -0.00000000000E+00 -0.29324001408E+04  0.29324001408E+04  0.00000000000E+00 0. -1.
         25    2    1    2    0    0  0.12246031051E+03  0.20626794826E+02 -0.22009319000E+03  0.28193620569E+03  0.12500007793E+03 0.  0.
          2    1    1    2  501    0 -0.13796192000E+03 -0.45918974744E+02 -0.26529042270E+04  0.26568859368E+04  0.00000000000E+00 0. -1.
          1    1    1    2  502    0  0.15501609489E+02  0.25292179918E+02 -0.18185507587E+02  0.34795214440E+02  0.00000000000E+00 0. -1.
         22    1    3    3    0    0  0.42569034625E+02 -0.17084733595E+02 -0.17848283267E+03  0.18428275120E+03  0.00000000000E+00 0.  1.
         22    1    3    3    0    0  0.79891275881E+02  0.37711528422E+02 -0.41610357329E+02  0.97653454496E+02  0.00000000000E+00 0.  1.
</event>
<event>
 7    1  0.6510186E-006  0.8031376E+02  0.7818608E-02  0.1374084E+00
          2   -1    0    0  502    0  0.00000000000E+00  0.00000000000E+00  0.31470850217E+03  0.31470850217E+03  0.00000000000E+00 0. -1.
          1   -1    0    0  501    0 -0.00000000000E+00 -0.00000000000E+00 -0.82893687383E+02  0.82893687383E+02  0.00000000000E+00 0. -1.
         25    2    1    2    0    0 -0.29762540183E+02  0.26880079659E+02  0.10851608222E+03  0.17032965760E+03  0.12501241810E+03 0.  0.
          2    1    1    2  501    0  0.64761104097E+02 -0.68410209698E+02  0.18349787127E+01  0.94219554985E+02  0.00000000000E+00 0. -1.
          1    1    1    2  502    0 -0.34998563914E+02  0.41530130039E+02  0.12146375386E+03  0.13305297696E+03  0.00000000000E+00 0. -1.
         22    1    3    3    0    0 -0.36057356867E+02  0.74574350853E+02  0.74529014775E+02  0.11142728944E+03  0.00000000000E+00 0. -1.
         22    1    3    3    0    0  0.62948166839E+01 -0.47694271194E+02  0.33987067441E+02  0.58902368162E+02  0.00000000000E+00 0. -1.
</event>
<event>
 7    1  0.6510186E-006  0.2247236E+03  0.7818608E-02  0.1141883E+00
          2   -1    0    0  502    0  0.00000000000E+00  0.00000000000E+00  0.21956148062E+03  0.21956148062E+03  0.00000000000E+00 0. -1.
          1   -1    0    0  501    0 -0.00000000000E+00 -0.00000000000E+00 -0.19928944499E+04  0.19928944499E+04  0.00000000000E+00 0. -1.
         25    2    1    2    0    0 -0.84508576214E+01 -0.24398529679E+03 -0.86928822193E+03  0.91152821785E+03  0.12498574758E+03 0.  0.
          2    1    1    2  501    0  0.18491962176E+03  0.15986332142E+03 -0.10364047976E+04  0.10648410456E+04  0.00000000000E+00 0. -1.
          1    1    1    2  502    0 -0.17646876414E+03  0.84121975368E+02  0.13236005022E+03  0.23608666703E+03  0.00000000000E+00 0. -1.
         22    1    3    3    0    0 -0.53508579624E+01 -0.17673185648E+03 -0.77950651402E+03  0.79930794202E+03  0.00000000000E+00 0.  1.
         22    1    3    3    0    0 -0.30999996590E+01 -0.67253440306E+02 -0.89781707906E+02  0.11222027582E+03  0.00000000000E+00 0.  1.
</event>
<event>
 7    1  0.6510186E-006  0.1548959E+03  0.7818608E-02  0.1278499E+00
          2   -1    0    0  502    0  0.00000000000E+00  0.00000000000E+00  0.72062980383E+03  0.72062980383E+03  0.00000000000E+00 0. -1.
          1   -1    0    0  501    0 -0.00000000000E+00 -0.00000000000E+00 -0.20099467766E+03  0.20099467766E+03  0.00000000000E+00 0. -1.
         25    2    1    2    0    0 -0.24024260821E+02 -0.93099268476E+02 -0.44087789344E+02  0.16374937284E+03  0.12500194014E+03 0.  0.
          2    1    1    2  501    0  0.12780418937E+00 -0.65673615475E+02 -0.74762319143E+02  0.99511026862E+02  0.00000000000E+00 0. -1.
          1    1    1    2  502    0  0.23896456631E+02  0.15877288395E+03  0.63848523466E+03  0.65836408179E+03  0.00000000000E+00 0. -1.
         22    1    3    3    0    0  0.84292088219E+01  0.24314148671E+02 -0.32396745649E+02  0.41373645182E+02  0.00000000000E+00 0.  1.
         22    1    3    3    0    0 -0.32453469643E+02 -0.11741341715E+03 -0.11691043695E+02  0.12237572766E+03  0.00000000000E+00 0.  1.
</event>
<event>
 7    1  0.6510186E-006  0.1165127E+03  0.7818608E-02  0.1318466E+00
          2   -1    0    0  502    0  0.00000000000E+00  0.00000000000E+00  0.82081428613E+03  0.82081428613E+03  0.00000000000E+00 0. -1.
          1   -1    0    0  501    0 -0.00000000000E+00 -0.00000000000E+00 -0.81199882199E+03  0.81199882199E+03  0.00000000000E+00 0. -1.
         25    2    1    2    0    0 -0.63291720141E+02  0.74038334241E+02 -0.77982317549E+02  0.17661569448E+03  0.12499737962E+03 0.  0.
          2    1    1    2  501    0 -0.48167881752E+02 -0.36349771010E+02 -0.67886768392E+03  0.68154441011E+03  0.00000000000E+00 0. -1.
          1    1    1    2  502    0  0.11145960189E+03 -0.37688563231E+02  0.76566546560E+03  0.77465300353E+03  0.00000000000E+00 0. -1.
         22    1    3    3    0    0  0.98928620390E+01  0.62412966621E+02 -0.80658966653E+02  0.10246519420E+03  0.00000000000E+00 0.  1.
         22    1    3    3    0    0 -0.73184582180E+02  0.11625367620E+02  0.26766491042E+01  0.74150500278E+02  0.00000000000E+00 0.  1.
</event>
<event>
 7    1  0.6510186E-006  0.6693913E+02  0.7818608E-02  0.1486929E+00
          2   -1    0    0  502    0  0.00000000000E+00  0.00000000000E+00  0.23189600538E+04  0.23189600538E+04  0.00000000000E+00 0. -1.
          1   -1    0    0  501    0 -0.00000000000E+00 -0.00000000000E+00 -0.12783908429E+04  0.12783908429E+04  0.00000000000E+00 0. -1.
         25    2    1    2    0    0  0.75017935163E+02 -0.29441764875E+02  0.24896738227E+03  0.29000642756E+03  0.12499784989E+03 0.  0.
          2    1    1    2  501    0 -0.66841135715E+02  0.29971570013E+01 -0.12568880119E+04  0.12586676268E+04  0.00000000000E+00 0. -1.
          1    1    1    2  502    0 -0.81767994483E+01  0.26444607874E+02  0.20484898405E+04  0.20486768423E+04  0.00000000000E+00 0. -1.
         22    1    3    3    0    0  0.68594684494E+02  0.34286621709E+02  0.18120092029E+03  0.19676020096E+03  0.00000000000E+00 0. -1.
         22    1    3    3    0    0  0.64232506691E+01 -0.63728386584E+02  0.67766461984E+02  0.93246226602E+02  0.00000000000E+00 0. -1.
</event>
<event>
 7    1  0.6510186E-006  0.1581152E+03  0.7818608E-02  0.1202695E+00
          2   -1    0    0  502    0  0.00000000000E+00  0.00000000000E+00  0.65590634303E+03  0.65590634303E+03  0.00000000000E+00 0. -1.
          1   -1    0    0  501    0 -0.00000000000E+00 -0.00000000000E+00 -0.22620058069E+03  0.22620058069E+03  0.00000000000E+00 0. -1.
         25    2    1    2    0    0  0.73161111419E+02 -0.39162663023E+02  0.29804773991E+03  0.33368110517E+03  0.12499744912E+03 0.  0.
          2    1    1    2  501    0 -0.24484195746E+02  0.16927315534E+03 -0.15440190190E+03  0.23041880190E+03  0.00000000000E+00 0. -1.
          1    1    1    2  502    0 -0.48676915673E+02 -0.13011049232E+03  0.28605992432E+03  0.31800701664E+03  0.00000000000E+00 0. -1.
         22    1    3    3    0    0 -0.33490120450E+02 -0.15028592202E+02  0.45386051934E+02  0.58372428950E+02  0.00000000000E+00 0. -1.
         22    1    3    3    0    0  0.10665123187E+03 -0.24134070821E+02  0.25266168797E+03  0.27530867622E+03  0.00000000000E+00 0. -1.
</event>
<event>
 7    1  0.6510186E-006  0.5848372E+02  0.7818608E-02  0.1420080E+00
          2   -1    0    0  502    0  0.00000000000E+00  0.00000000000E+00  0.11003060869E+03  0.11003060869E+03  0.00000000000E+00 0. -1.
          1   -1    0    0  501    0 -0.00000000000E+00 -0.00000000000E+00 -0.13954427787E+04  0.13954427787E+04  0.00000000000E+00 0. -1.
         25    2    1    2    0    0 -0.10601456370E+03 -0.16501837617E+02 -0.41480178348E+03  0.44631526153E+03  0.12500157891E+03 0.  0.
          2    1    1    2  501    0  0.54388523647E+02  0.13205176112E+02 -0.95690782137E+03  0.95854320027E+03  0.00000000000E+00 0. -1.
          1    1    1    2  502    0  0.51626040057E+02  0.32966615052E+01  0.86297434851E+02  0.10061492559E+03  0.00000000000E+00 0. -1.
         22    1    3    3    0    0 -0.39685690429E+02  0.50088242443E+02 -0.23366424320E+03  0.24224525714E+03  0.00000000000E+00 0. -1.
         22    1    3    3    0    0 -0.66328873275E+02 -0.66590080060E+02 -0.18113754028E+03  0.20407000439E+03  0.00000000000E+00 0. -1.
</event>
<event>
 7    1  0.6510186E-006  0.9066444E+02  0.7818608E-02  0.1431973E+00
          2   -1    0    0  502    0  0.00000000000E+00  0.00000000000E+00  0.24706199477E+04  0.24706199477E+04  0.00000000000E+00 0. -1.
          1   -1    0    0  501    0 -0.00000000000E+00 -0.00000000000E+00 -0.21124657660E+03  0.21124657660E+03  0.00000000000E+00 0. -1.
         25    2    1    2    0    0  0.22920561583E+02 -0.96206449394E+02  0.36234541812E+03  0.39585390523E+03  0.12500031682E+03 0.  0.
          2    1    1    2  501    0 -0.29874466360E+02  0.60300762279E+01 -0.19231402587E+03  0.19471396998E+03  0.00000000000E+00 0. -1.
          1    1    1    2  502    0  0.69539047766E+01  0.90176373166E+02  0.20893419789E+04  0.20912986491E+04  0.00000000000E+00 0. -1.
         22    1    3    3    0    0  0.40927440028E+01 -0.24365715627E+02  0.29364984615E+03  0.29468741200E+03  0.00000000000E+00 0.  1.
         22    1    3    3    0    0  0.18827817580E+02 -0.71840733767E+02  0.68695571970E+02  0.10116649322E+03  0.00000000000E+00 0.  1.
</event>
<event>
 7    1  0.6510186E-006  0.1432192E+03  0.7818608E-02  0.1277188E+00
          2   -1    0    0  502    0  0.00000000000E+00  0.00000000000E+00  0.26202232974E+03  0.26202232974E+03  0.00000000000E+00 0. -1.
          1   -1    0    0  501    0 -0.00000000000E+00 -0.00000000000E+00 -0.26461181184E+04  0.26461181184E+04  0.00000000000E+00 0. -1.
         25    2    1    2    0    0 -0.43592303045E+02 -0.64292011735E+02 -0.90966806310E+02  0.17301402481E+03  0.12500056509E+03 0.  0.
          2    1    1    2  501    0  0.58042528432E+02  0.13474831938E+03 -0.25060730526E+04  0.25103641548E+04  0.00000000000E+00 0. -1.
          1    1    1    2  502    0 -0.14450225386E+02 -0.70456307646E+02  0.21294407025E+03  0.22476226854E+03  0.00000000000E+00 0. -1.
         22    1    3    3    0    0 -0.45731924449E+02 -0.58789208109E+02 -0.12117428055E+03  0.14223496817E+03  0.00000000000E+00 0. -1.
         22    1    3    3    0    0  0.21396214035E+01 -0.55028036265E+01  0.30207474241E+02  0.30779056638E+02  0.00000000000E+00 0. -1.
</event>
<event>
 7    1  0.6510186E-006  0.4215003E+02  0.7818608E-02  0.1502404E+00
          2   -1    0    0  502    0  0.00000000000E+00  0.00000000000E+00  0.92106606446E+02  0.92106606446E+02  0.00000000000E+00 0. -1.
          1   -1    0    0  501    0 -0.00000000000E+00 -0.00000000000E+00 -0.13024074478E+04  0.13024074478E+04  0.00000000000E+00 0. -1.
         25    2    1    2    0    0  0.18781295827E+02 -0.82620943908E+01 -0.81624902382E+02  0.15070281861E+03  0.12501086182E+03 0.  0.
          2    1    1    2  501    0  0.16025963588E+02  0.36095855140E+02 -0.11772367670E+04  0.11778990398E+04  0.00000000000E+00 0. -1.
          1    1    1    2  502    0 -0.34807259415E+02 -0.27833760749E+02  0.48560828036E+02  0.65912195874E+02  0.00000000000E+00 0. -1.
         22    1    3    3    0    0 -0.82416378616E-01 -0.38584124689E+02  0.19661860775E+02  0.43305083300E+02  0.00000000000E+00 0.  1.
         22    1    3    3    0    0  0.18863712206E+02  0.30322030298E+02 -0.10128676316E+03  0.10739773531E+03  0.00000000000E+00 0.  1.
</event>
<event>
 7    1  0.6510186E-006  0.1495098E+03  0.7818608E-02  0.1227412E+00
          2   -1    0    0  502    0  0.00000000000E+00  0.00000000000E+00  0.18091776716E+04  0.18091776716E+04  0.00000000000E+00 0. -1.
          1   -1    0    0  501    0 -0.00000000000E+00 -0.00000000000E+00 -0.24010969758E+03  0.24010969758E+03  0.00000000000E+00 0. -1.
         25    2    1    2    0    0  0.85069668747E+02  0.53663569593E+01  0.55652800427E+02  0.16120656642E+03  0.12499870612E+03 0.  0.
          2    1    1    2  501    0  0.17290094334E+02  0.11175809399E+03 -0.16633867505E+03  0.20114018433E+03  0.00000000000E+00 0. -1.
          1    1    1    2  502    0 -0.10235976308E+03 -0.11712445095E+03  0.16797538486E+04  0.16869406184E+04  0.00000000000E+00 0. -1.
         22    1    3    3    0    0  0.33949909083E+02  0.16270879453E+02  0.90748291160E+02  0.98247596374E+02  0.00000000000E+00 0.  1.
         22    1    3    3    0    0  0.51119759664E+02 -0.10904522494E+02 -0.35095490733E+02  0.62958970042E+02  0.00000000000E+00 0.  1.
</event>
<event>
 7    1  0.6510186E-006  0.2717675E+02  0.7818608E-02  0.1649279E+00
          2   -1    0    0  502    0  0.00000000000E+00  0.00000000000E+00  0.39282080033E+03  0.39282080033E+03  0.00000000000E+00 0. -1.
          1   -1    0    0  501    0 -0.00000000000E+00 -0.00000000000E+00 -0.56164541425E+03  0.56164541425E+03  0.00000000000E+00 0. -1.
         25    2    1    2    0    0 -0.23043048039E+02 -0.19231636945E+01 -0.93096800956E+02  0.15756229727E+03  0.12499673016E+03 0.  0.
          2    1    1    2  501    0  0.12747856452E+02  0.24222353361E+02 -0.43546742342E+03  0.43632683519E+03  0.00000000000E+00 0. -1.
          1    1    1    2  502    0  0.10295191587E+02 -0.22299189667E+02  0.35973961045E+03  0.36057708213E+03  0.00000000000E+00 0. -1.
         22    1    3    3    0    0 -0.83891058251E+00 -0.45237368884E+02 -0.98690902255E+02  0.10856803168E+03  0.00000000000E+00 0. -1.
         22    1    3    3    0    0 -0.22204137457E+02  0.43314205190E+02  0.55941012990E+01  0.48994265590E+02  0.00000000000E+00 0. -1.
</event>
<event>
 7    1  0.6510186E-006  0.9100246E+02  0.7818608E-02  0.1319792E+00
          2   -1    0    0  502    0  0.00000000000E+00  0.00000000000E+00  0.14159078093E+03  0.14159078093E+03  0.00000000000E+00 0. -1.
          1   -1    0    0  501    0 -0.00000000000E+00 -0.00000000000E+00 -0.23688327996E+04  0.23688327996E+04  0.00000000000E+00 0. -1.
         25    2    1    2    0    0  0.75986245715E+02  0.63821300880E+02 -0.23339977857E+03  0.28274850606E+03  0.12499677220E+03 0.  0.
          2    1    1    2  501    0 -0.91242970683E+02  0.10988341090E+02 -0.20971795225E+04  0.20991922191E+04  0.00000000000E+00 0. -1.
          1    1    1    2  502    0  0.15256724968E+02 -0.74809641970E+02  0.10333728238E+03  0.12848285535E+03  0.00000000000E+00 0. -1.
         22    1    3    3    0    0  0.20048462989E+02 -0.16260749083E+02 -0.15598944949E+03  0.15811091418E+03  0.00000000000E+00 0.  1.
         22    1    3    3    0    0  0.55937782726E+02  0.80082049963E+02 -0.77410329076E+02  0.12463759188E+03  0.00000000000E+00 0.  1.
</event>
<event>
 7    1  0.6510186E-006  0.6982113E+02  0.7818608E-02  0.1481847E+00
          2   -1    0    0  502    0  0.00000000000E+00  0.00000000000E+00  0.73593937966E+03  0.73593937966E+03  0.00000000000E+00 0. -1.
          1   -1    0    0  501    0 -0.00000000000E+00 -0.00000000000E+00 -0.15157641097E+03  0.15157641097E+03  0.00000000000E+00 0. -1.
         25    2    1    2    0    0  0.42531483305E+02 -0.85306686053E+02  0.45668871672E+03  0.48298720256E+03  0.12500358437E+03 0.  0.
          2    1    1    2  501    0 -0.23843435998E+02  0.65130634384E+02 -0.12895834978E+03  0.14642665383E+03  0.00000000000E+00 0. -1.
          1    1    1    2  502    0 -0.18688047307E+02  0.20176051669E+02  0.25663260175E+03  0.25810193423E+03  0.00000000000E+00 0. -1.
         22    1    3    3    0    0 -0.30580517400E+02  0.14109149150E+02  0.90460117455E+02  0.96526001596E+02  0.00000000000E+00 0.  1.
         22    1    3    3    0    0  0.73112000705E+02 -0.99415835202E+02  0.36622859926E+03  0.38646120097E+03  0.00000000000E+00 0.  1.
</event>
<event>
 7    1  0.6510186E-006  0.7755878E+02  0.7818608E-02  0.1382951E+00
          2   -1    0    0  502    0  0.00000000000E+00  0.00000000000E+00  0.36851263609E+03  0.36851263609E+03  0.00000000000E+00 0. -1.
          1   -1    0    0  501    0 -0.00000000000E+00 -0.00000000000E+00 -0.17997436863E+04  0.17997436863E+04  0.00000000000E+00 0. -1.
         25    2    1    2    0    0  0.12618619187E+02 -0.43309472626E+02  0.14248571623E+03  0.19483975915E+03  0.12500164978E+03 0.  0.
          2    1    1    2  501    0  0.43343553863E+02 -0.29283432730E+02 -0.17626484722E+04  0.17634244582E+04  0.00000000000E+00 0. -1.
          1    1    1    2  502    0 -0.55962173050E+02  0.72592905356E+02  0.18893170580E+03  0.20999210504E+03  0.00000000000E+00 0. -1.
         22    1    3    3    0    0  0.94838010535E+00  0.35919507663E+02  0.57656648090E+01  0.36391665890E+02  0.00000000000E+00 0.  1.
         22    1    3    3    0    0  0.11670239082E+02 -0.79228980289E+02  0.13672005142E+03  0.15844809326E+03  0.00000000000E+00 0.  1.
</event>
<event>
 7    1  0.6510186E-006  0.6869593E+02  0.7818608E-02  0.1398944E+00
          2   -1    0    0  502    0  0.00000000000E+00  0.00000000000E+00  0.14017136943E+04  0.14017136943E+04  0.00000000000E+00 0. -1.
          1   -1    0    0  501    0 -0.00000000000E+00 -0.00000000000E+00 -0.22258323497E+03  0.22258323497E+03  0.00000000000E+00 0. -1.
         25    2    1    2    0    0  0.63221679017E+02 -0.50902451582E+01  0.42591480430E+03  0.44838693109E+03  0.12499811262E+03 0.  0.
          2    1    1    2  501    0 -0.43851816958E+02  0.53287842762E+02 -0.20499130998E+03  0.21629612387E+03  0.00000000000E+00 0. -1.
          1    1    1    2  502    0 -0.19369862059E+02 -0.48197597604E+02  0.95820696498E+03  0.95961387428E+03  0.00000000000E+00 0. -1.
         22    1    3    3    0    0  0.56952069175E+02  0.53791973563E+02  0.28416728768E+03  0.29476797993E+03  0.00000000000E+00 0.  1.
         22    1    3    3    0    0  0.62696098422E+01 -0.58882218721E+02  0.14174751661E+03  0.15361895116E+03  0.00000000000E+00 0.  1.
</event>
<event>
 7    1  0.6510186E-006  0.1127098E+03  0.7818608E-02  0.1302164E+00
          2   -1    0    0  502    0  0.00000000000E+00  0.00000000000E+00  0.84050134660E+03  0.84050134660E+03  0.00000000000E+00 0. -1.
          1   -1    0    0  501    0 -0.00000000000E+00 -0.00000000000E+00 -0.12265512195E+04  0.12265512195E+04  0.00000000000E+00 0. -1.
         25    2    1    2    0    0  0.27382600306E+02 -0.18038913201E+03  0.95727355226E+02  0.24099375398E+03  0.12499686865E+03 0.  0.
          2    1    1    2  501    0 -0.54575875889E+01  0.11147121979E+03 -0.11492616198E+04  0.11546678695E+04  0.00000000000E+00 0. -1.
          1    1    1    2  502    0 -0.21925012718E+02  0.68917912213E+02  0.66748439164E+03  0.67139094266E+03  0.00000000000E+00 0. -1.
         22    1    3    3    0    0  0.21155804020E+01 -0.15203676430E+03  0.16260526917E+02  0.15291846884E+03  0.00000000000E+00 0. -1.
         22    1    3    3    0    0  0.25267019904E+02 -0.28352367712E+02  0.79466828309E+02  0.88075285133E+02  0.00000000000E+00 0. -1.
</event>
<event>
 7    1  0.6510186E-006  0.3612625E+02  0.7818608E-02  0.1553720E+00
          2   -1    0    0  502    0  0.00000000000E+00  0.00000000000E+00  0.76015856248E+03  0.76015856248E+03  0.00000000000E+00 0. -1.
          1   -1    0    0  501    0 -0.00000000000E+00 -0.00000000000E+00 -0.59606270394E+02  0.59606270394E+02  0.00000000000E+00 0. -1.
         25    2    1    2    0    0  0.54805866095E+01 -0.19338371892E+01  0.19651720002E+03  0.23297681870E+03  0.12500164635E+03 0.  0.
          2    1    1    2  501    0 -0.35925690944E+02 -0.10306720847E+02 -0.32331445999E+02  0.49418682346E+02  0.00000000000E+00 0. -1.
          1    1    1    2  502    0  0.30445104335E+02  0.12240558037E+02  0.53636653806E+03  0.53736933183E+03  0.00000000000E+00 0. -1.
         22    1    3    3    0    0  0.55800549329E+02 -0.33489594077E+02  0.11465144783E+03  0.13183401954E+03  0.00000000000E+00 0.  1.
         22    1    3    3    0    0 -0.50319962719E+02  0.31555756887E+02  0.81865752190E+02  0.10114279916E+03  0.00000000000E+00 0.  1.
</event>
<event>
 7    1  0.6510186E-006  0.1002484E+03  0.7818608E-02  0.1353450E+00
          2   -1    0    0  502    0  0.00000000000E+00  0.00000000000E+00  0.33858968962E+04  0.33858968962E+04  0.00000000000E+00 0. -1.
          1   -1    0    0  501    0 -0.00000000000E+00 -0.00000000000E+00 -0.18301863067E+02  0.18301863067E+02  0.00000000000E+00 0. -1.
         25    2    1    2    0    0 -0.80995693917E+02 -0.81647397819E+02  0.68341094074E+03  0.70420331196E+03  0.12500076258E+03 0.  0.
          2    1    1    2  501    0  0.92113224027E+02  0.31157927510E+02  0.30238975737E+03  0.31764009169E+03  0.00000000000E+00 0. -1.
          1    1    1    2  502    0 -0.11117530110E+02  0.50489470308E+02  0.23817943351E+04  0.23823553557E+04  0.00000000000E+00 0. -1.
         22    1    3    3    0    0 -0.23169698292E+01 -0.87339608143E+02  0.43046575976E+03  0.43924292348E+03  0.00000000000E+00 0.  1.
         22    1    3    3    0    0 -0.78678724088E+02  0.56922103247E+01  0.25294518098E+03  0.26496038848E+03  0.00000000000E+00 0.  1.
</event>
<event>
 7    1  0.6510186E-006  0.6763561E+02  0.7818608E-02  0.1374962E+00
          2   -1    0    0  502    0  0.00000000000E+00  0.00000000000E+00  0.20297776667E+04  0.20297776667E+04  0.00000000000E+00 0. -1.
          1   -1    0    0  501    0 -0.00000000000E+00 -0.00000000000E+00 -0.61454691028E+03  0.61454691028E+03  0.00000000000E+00 0. -1.
         25    2    1    2    0    0  0.13716982353E+02  0.87370853800E+00  0.29219128199E+02  0.12910382415E+03  0.12500048395E+03 0.  0.
          2    1    1    2  501    0 -0.28383991924E+02 -0.63198546045E+02 -0.56195134353E+03  0.56620581039E+03  0.00000000000E+00 0. -1.
          1    1    1    2  502    0  0.14667009572E+02  0.62324837507E+02  0.19479629717E+04  0.19490149424E+04  0.00000000000E+00 0. -1.
         22    1    3    3    0    0  0.54154418455E+02 -0.36283267661E+02 -0.33215319047E+01  0.65270277497E+02  0.00000000000E+00 0.  1.
         22    1    3    3    0    0 -0.40437436102E+02  0.37156976199E+02  0.32540660104E+02  0.63833546656E+02  0.00000000000E+00 0.  1.
</event>
<event>
 7    1  0.6510186E-006  0.3354409E+02  0.7818608E-02  0.1577111E+00
          2   -1    0    0  502    0  0.00000000000E+00  0.00000000000E+00  0.21611140216E+04  0.21611140216E+04  0.00000000000E+00 0. -1.
          1   -1    0    0  501    0 -0.00000000000E+00 -0.00000000000E+00 -0.44467343466E+02  0.44467343466E+02  0.00000000000E+00 0. -1.
         25    2    1    2    0    0  0.20425993329E+01 -0.18769474978E+02  0.18837398365E+03  0.22686013833E+03  0.12499719695E+03 0.  0.
          2    1    1    2  501    0  0.29642721948E+02  0.71887027912E+01 -0.15803151191E+02  0.34352700037E+02  0.00000000000E+00 0. -1.
          1    1    1    2  502    0 -0.31685321281E+02  0.11580772187E+02  0.19440758457E+04  0.19443685267E+04  0.00000000000E+00 0. -1.
         22    1    3    3    0    0  0.58357453163E+02 -0.19179292153E+02  0.13898510601E+03  0.15195491858E+03  0.00000000000E+00 0. -1.
         22    1    3    3    0    0 -0.56314853830E+02  0.40981717557E+00  0.49388877636E+02  0.74905219752E+02  0.00000000000E+00 0. -1.
</event>
<event>
 7    1  0.6510186E-006  0.7724783E+02  0.7818608E-02  0.1418469E+00
          2   -1    0    0  502    0  0.00000000000E+00  0.00000000000E+00  0.15229958829E+04  0.15229958829E+04  0.00000000000E+00 0. -1.
          1   -1    0    0  501    0 -0.00000000000E+00 -0.00000000000E+00 -0.76978694407E+03  0.76978694407E+03  0.00000000000E+00 0. -1.
         25    2    1    2    0    0 -0.92091161321E+02 -0.37802192557E+02 -0.13577570890E+03  0.20969511367E+03  0.12500883895E+03 0.  0.
          2    1    1    2  501    0  0.55247629194E+02  0.52465225840E+02 -0.59435482925E+03  0.59921829371E+03  0.00000000000E+00 0. -1.
          1    1    1    2  502    0  0.36843532127E+02 -0.14663033283E+02  0.14833394770E+04  0.14838694196E+04  0.00000000000E+00 0. -1.
         22    1    3    3    0    0 -0.35688134948E+02  0.28218130601E+02 -0.11012450992E+03  0.11915248028E+03  0.00000000000E+00 0.  1.
         22    1    3    3    0    0 -0.56403026373E+02 -0.66020323158E+02 -0.25651198979E+02  0.90542633400E+02  0.00000000000E+00 0.  1.
</event>
<event>
 7    1  0.6510186E-006  0.6382850E+02  0.7818608E-02  0.1441766E+00
          2   -1    0    0  502    0  0.00000000000E+00  0.00000000000E+00  0.98881540314E+03  0.98881540314E+03  0.00000000000E+00 0. -1.
          1   -1    0    0  501    0 -0.00000000000E+00 -0.00000000000E+00 -0.95597407939E+03  0.95597407939E+03  0.00000000000E+00 0. -1.
         25    2    1    2    0    0 -0.29765850054E+02  0.13391449137E+02  0.37676973257E+03  0.39830397435E+03  0.12500115142E+03 0.  0.
          2    1    1    2  501    0 -0.39819721935E+02 -0.56796222228E+01 -0.94273866429E+03  0.94359634246E+03  0.00000000000E+00 0. -1.
          1    1    1    2  502    0  0.69585571988E+02 -0.77118269145E+01  0.59881025546E+03  0.60288916573E+03  0.00000000000E+00 0. -1.
         22    1    3    3    0    0  0.13912495424E+02 -0.47663530429E+02  0.20352044694E+03  0.20948971809E+03  0.00000000000E+00 0.  1.
         22    1    3    3    0    0 -0.43678345478E+02  0.61054979566E+02  0.17324928563E+03  0.18881425626E+03  0.00000000000E+00 0.  1.
</event>
<event>
 7    1  0.6510186E-006  0.1485385E+03  0.7818608E-02  0.1271724E+00
          2   -1    0    0  502    0  0.00000000000E+00  0.00000000000E+00  0.29908781801E+04  0.29908781801E+04  0.00000000000E+00 0. -1.
          1   -1    0    0  501    0 -0.00000000000E+00 -0.00000000000E+00 -0.24418638118E+04  0.24418638118E+04  0.00000000000E+00 0. -1.
         25    2    1    2    0    0  0.12511906861E+03 -0.57274270941E+02 -0.29765526941E+03  0.35094104918E+03  0.12500334856E+03 0.  0.
          2    1    1    2  501    0  0.23092583098E+02  0.69337960259E+02 -0.21150692198E+04  0.21163314543E+04  0.00000000000E+00 0. -1.
          1    1    1    2  502    0 -0.14821165171E+03 -0.12063689317E+02  0.29617388575E+04  0.29654694884E+04  0.00000000000E+00 0. -1.
         22    1    3    3    0    0  0.37486897913E+02  0.33960452871E+02 -0.13968126324E+03  0.14855785127E+03  0.00000000000E+00 0.  1.
         22    1    3    3    0    0  0.87632170698E+02 -0.91234723812E+02 -0.15797400617E+03  0.20238319791E+03  0.00000000000E+00 0.  1.
</event>
<event>
 7    1  0.6510186E-006  0.4316053E+02  0.7818608E-02  0.1539610E+00
          2   -1    0    0  502    0  0.00000000000E+00  0.00000000000E+00  0.86120813213E+02  0.86120813213E+02  0.00000000000E+00 0. -1.
          1   -1    0    0  501    0 -0.00000000000E+00 -0.00000000000E+00 -0.26212461489E+03  0.26212461489E+03  0.00000000000E+00 0. -1.
         25    2    1    2    0    0  0.13489031829E+02 -0.54786889398E+01 -0.19546768443E+02  0.12735418093E+03  0.12500016493E+03 0.  0.
          2    1    1    2  501    0 -0.40541093460E+02  0.18638763718E+02 -0.17824602676E+03  0.18374610153E+03  0.00000000000E+00 0. -1.
          1    1    1    2  502    0  0.27052061631E+02 -0.13160074778E+02  0.21788993520E+02  0.37145145649E+02  0.00000000000E+00 0. -1.
         22    1    3    3    0    0 -0.55534400100E+01  0.38009314008E+02 -0.55713910681E+02  0.67672656891E+02  0.00000000000E+00 0. -1.
         22    1    3    3    0    0  0.19042471839E+02 -0.43488002948E+02  0.36167142237E+02  0.59681524040E+02  0.00000000000E+00 0. -1.
</event>
<event>
 7    1  0.6510186E-006  0.8509013E+02  0.7818608E-02  0.1479024E+00
          2   -1    0    0  502    0  0.00000000000E+00  0.00000000000E+00  0.48380935366E+03  0.48380935366E+03  0.00000000000E+00 0. -1.
          1   -1    0    0  501    0 -0.00000000000E+00 -0.00000000000E+00 -0.24626860816E+03  0.24626860816E+03  0.00000000000E+00 0. -1.
         25    2    1    2    0    0  0.96715495395E+02 -0.28590464501E+02 -0.17334356340E+03  0.23631578069E+03  0.12500342203E+03 0.  0.
          2    1    1    2  501    0 -0.12403124042E+02  0.19393481558E+02 -0.33892515684E+02  0.40971297665E+02  0.00000000000E+00 0. -1.
          1    1    1    2  502    0 -0.84312371353E+02  0.91969829437E+01  0.44477682458E+03  0.45279088346E+03  0.00000000000E+00 0. -1.
         22    1    3    3    0    0  0.95840467159E+02  0.31044102164E+02 -0.11494404525E+03  0.15284392354E+03  0.00000000000E+00 0.  1.
         22    1    3    3    0    0  0.87502823611E+00 -0.59634566666E+02 -0.58399518150E+02  0.83471857150E+02  0.00000000000E+00 0.  1.
</event>
<event>
 7    1  0.6510186E-006  0.2394421E+03  0.7818608E-02  0.1187532E+00
          2   -1    0    0  502    0  0.00000000000E+00  0.00000000000E+00  0.19854956334E+04  0.19854956334E+04  0.00000000000E+00 0. -1.
          1   -1    0    0  501    0 -0.00000000000E+00 -0.00000000000E+00 -0.89615373643E+03  0.89615373643E+03  0.00000000000E+00 0. -1.
         25    2    1    2    0    0 -0.11510057272E+03  0.28082181918E+03  0.62840404373E+03  0.70896109617E+03  0.12500063098E+03 0.  0.
          2    1    1    2  501    0 -0.27149732237E+02 -0.10484590332E+03 -0.84266289500E+03  0.84959433026E+03  0.00000000000E+00 0. -1.
          1    1    1    2  502    0  0.14225030495E+03 -0.17597591586E+03  0.13036007482E+04  0.13230939434E+04  0.00000000000E+00 0. -1.
         22    1    3    3    0    0 -0.58559395264E+02  0.33447191236E+02  0.79567639166E+02  0.10430209287E+03  0.00000000000E+00 0. -1.
         22    1    3    3    0    0 -0.56541177453E+02  0.24737462794E+03  0.54883640456E+03  0.60465900330E+03  0.00000000000E+00 0. -1.
</event>
<event>
 7    1  0.6510186E-006  0.4401117E+02  0.7818608E-02  0.1521419E+00
          2   -1    0    0  502    0  0.00000000000E+00  0.00000000000E+00  0.38343055307E+03  0.38343055307E+03  0.00000000000E+00 0. -1.
          1   -1    0    0  501    0 -0.00000000000E+00 -0.00000000000E+00 -0.17961121485E+03  0.17961121485E+03  0.00000000000E+00 0. -1.
         25    2    1    2    0    0 -0.82718235461E+01  0.39723290794E+02  0.22286464979E+02  0.13329580539E+03  0.12499888926E+03 0.  0.
          2    1    1    2  501    0  0.37695230398E+02 -0.24213998905E+02 -0.11911593694E+03  0.12726293479E+03  0.00000000000E+00 0. -1.
          1    1    1    2  502    0 -0.29423406851E+02 -0.15509291889E+02  0.30064881019E+03  0.30248302774E+03  0.00000000000E+00 0. -1.
         22    1    3    3    0    0 -0.32853762675E+02  0.12678799736E+02  0.66912953997E+02  0.75613921319E+02  0.00000000000E+00 0. -1.
         22    1    3    3    0    0  0.24581939129E+02  0.27044491058E+02 -0.44626489018E+02  0.57681884071E+02  0.00000000000E+00 0. -1.
</event>
<event>
 7    1  0.6510186E-006  0.9407654E+02  0.7818608E-02  0.1381552E+00
          2   -1    0    0  502    0  0.00000000000E+00  0.00000000000E+00  0.12035796998E+04  0.12035796998E+04  0.00000000000E+00 0. -1.
          1   -1    0    0  501    0 -0.00000000000E+00 -0.00000000000E+00 -0.11640585981E+03  0.11640585981E+03  0.00000000000E+00 0. -1.
         25    2    1    2    0    0 -0.35981360768E+02  0.43456811039E+02  0.63212829986E+03  0.64683418384E+03  0.12500048461E+03 0.  0.
          2    1    1    2  501    0  0.78118200237E+02 -0.54724936532E+02 -0.87153105008E+02  0.12920114396E+03  0.00000000000E+00 0. -1.
          1    1    1    2  502    0 -0.42136839469E+02  0.11268125493E+02  0.54219864517E+03  0.54395023184E+03  0.00000000000E+00 0. -1.
         22    1    3    3    0    0  0.43992612272E+02  0.52893625257E+00  0.15374436131E+03  0.15991547249E+03  0.00000000000E+00 0.  1.
         22    1    3    3    0    0 -0.79973973040E+02  0.42927874786E+02  0.47838393855E+03  0.48691871135E+03  0.00000000000E+00 0.  1.
</event>
<event>
 7    1  0.6510186E-006  0.6445042E+02  0.7818608E-02  0.1416861E+00
          2   -1    0    0  502    0  0.00000000000E+00  0.00000000000E+00  0.41703784317E+04  0.41703784317E+04  0.00000000000E+00 0. -1.
          1   -1    0    0  501    0 -0.00000000000E+00 -0.00000000000E+00 -0.38991022365E+03  0.38991022365E+03  0.00000000000E+00 0. -1.
         25    2    1    2    0    0 -0.42430917881E+02  0.67463258065E+01  0.18854671207E+03  0.23026213467E+03  0.12499956931E+03 0.  0.
          2    1    1    2  501    0 -0.81405889285E+01 -0.47427619305E+02 -0.36721675966E+03  0.37035631065E+03  0.00000000000E+00 0. -1.
          1    1    1    2  502    0  0.50571506810E+02  0.40681293499E+02  0.39591382557E+04  0.39596702101E+04  0.00000000000E+00 0. -1.
         22    1    3    3    0    0 -0.51345068926E+02  0.59247040926E+02  0.10207233939E+03  0.12870621753E+03  0.00000000000E+00 0. -1.
         22    1    3    3    0    0  0.89141510446E+01 -0.52500715120E+02  0.86474372677E+02  0.10155591714E+03  0.00000000000E+00 0. -1.
</event>
<event>
 7    1  0.6510186E-006  0.1517083E+03  0.7818608E-02  0.1341187E+00
          2   -1    0    0  502    0  0.00000000000E+00  0.00000000000E+00  0.21644419167E+04  0.21644419167E+04  0.00000000000E+00 0. -1.
          1   -1    0    0  501    0 -0.00000000000E+00 -0.00000000000E+00 -0.12299413273E+03  0.12299413273E+03  0.00000000000E+00 0. -1.
         25    2    1    2    0    0 -0.13512847942E+03 -0.68077216406E+02  0.29081313440E+03  0.35084304906E+03  0.12499741034E+03 0.  0.
          2    1    1    2  501    0  0.14900168013E+03  0.32757761172E+02 -0.30060629790E+02  0.15549345022E+03  0.00000000000E+00 0. -1.
          1    1    1    2  502    0 -0.13873200706E+02  0.35319455235E+02  0.17806952794E+04  0.17810995502E+04  0.00000000000E+00 0. -1.
         22    1    3    3    0    0 -0.38931378348E+02 -0.79060832119E+02  0.80695872670E+02  0.11949096728E+03  0.00000000000E+00 0. -1.
         22    1    3    3    0    0 -0.96197101072E+02  0.10983615713E+02  0.21011726173E+03  0.23135208178E+03  0.00000000000E+00 0. -1.
</event>
<event>
 7    1  0.6510186E-006  0.1568128E+03  0.7818608E-02  0.1341640E+00
          2   -1    0    0  502    0  0.00000000000E+00  0.00000000000E+00  0.11525046822E+04  0.11525046822E+04  0.00000000000E+00 0. -1.
          1   -1    0    0  501    0 -0.00000000000E+00 -0.00000000000E+00 -0.97660118269E+03  0.97660118269E+03  0.00000000000E+00 0. -1.
         25    2    1    2    0    0 -0.10803215249E+03  0.15752635059E+03 -0.25018383061E+02  0.22964902217E+03  0.12500902684E+03 0.  0.
          2    1    1    2  501    0  0.14522948917E+02 -0.33560265730E+02 -0.84312918534E+03  0.84392181548E+03  0.00000000000E+00 0. -1.
          1    1    1    2  502    0  0.93509203571E+02 -0.12396608486E+03  0.10440510679E+04  0.10555350273E+04  0.00000000000E+00 0. -1.
         22    1    3    3    0    0 -0.79221764517E+01  0.11914049489E+03 -0.26981238170E+02  0.12241407442E+03  0.00000000000E+00 0.  1.
         22    1    3    3    0    0 -0.10010997604E+03  0.38385855702E+02  0.19628551092E+01  0.10723494776E+03  0.00000000000E+00 0.  1.
</event>
<event>
 7    1  0.6510186E-006  0.1694277E+03  0.7818608E-02  0.1243715E+00
          2   -1    0    0  502    0  0.00000000000E+00  0.00000000000E+00  0.13197303027E+03  0.13197303027E+03  0.00000000000E+00 0. -1.
          1   -1    0    0  501    0 -0.00000000000E+00 -0.00000000000E+00 -0.91273913292E+03  0.91273913292E+03  0.00000000000E+00 0. -1.
         25    2    1    2    0    0  0.33897604849E+02  0.13542489478E+03 -0.50582950627E+03  0.53942344095E+03  0.12500083799E+03 0.  0.
          2    1    1    2  501    0  0.84270187642E+02 -0.57105404855E+01 -0.31430603431E+03  0.32545715233E+03  0.00000000000E+00 0. -1.
          1    1    1    2  502    0 -0.11816779249E+03 -0.12971435429E+03  0.39369437933E+02  0.17983156991E+03  0.00000000000E+00 0. -1.
         22    1    3    3    0    0  0.22667850158E+02  0.14030014335E+03 -0.28708817259E+03  0.32033978913E+03  0.00000000000E+00 0. -1.
         22    1    3    3    0    0  0.11229754691E+02 -0.48752485718E+01 -0.21874133368E+03  0.21908365183E+03  0.00000000000E+00 0. -1.
</event>
<event>
 7    1  0.6510186E-006  0.1702209E+03  0.7818608E-02  0.1297852E+00
          2   -1    0    0  502    0  0.00000000000E+00  0.00000000000E+00  0.53228169813E+03  0.53228169813E+03  0.00000000000E+00 0. -1.
          1   -1    0    0  501    0 -0.00000000000E+00 -0.00000000000E+00 -0.31931393258E+03  0.31931393258E+03  0.00000000000E+00 0. -1.
         25    2    1    2    0    0 -0.16367232417E+03 -0.69864259596E+02  0.13213604466E+03  0.25446867361E+03  0.12499890832E+03 0.  0.
          2    1    1    2  501    0  0.16877840783E+03  0.20298152303E+02 -0.22794598965E+03  0.28435460280E+03  0.00000000000E+00 0. -1.
          1    1    1    2  502    0 -0.51060836568E+01  0.49566107292E+02  0.30877771055E+03  0.31277235430E+03  0.00000000000E+00 0. -1.
         22    1    3    3    0    0 -0.41925696274E+02 -0.46886195408E+02 -0.12389726660E+02  0.64106042263E+02  0.00000000000E+00 0.  1.
         22    1    3    3    0    0 -0.12174662790E+03 -0.22978064188E+02  0.14452577132E+03  0.19036263134E+03  0.00000000000E+00 0.  1.
</event>
<event>
 7    1  0.6510186E-006  0.1159364E+03  0.7818608E-02  0.1295159E+00
          2   -1    0    0  502    0  0.00000000000E+00  0.00000000000E+00  0.21631490713E+04  0.21631490713E+04  0.00000000000E+00 0. -1.
          1   -1    0    0  501    0 -0.00000000000E+00 -0.00000000000E+00 -0.30386813574E+03  0.30386813574E+03  0.00000000000E+00 0. -1.
         25    2    1    2    0    0 -0.90353646259E+02  0.48012473290E+02  0.46604817015E+02  0.16812397822E+03  0.12499873639E+03 0.  0.
          2    1    1    2  501    0  0.48651664344E+02 -0.11035978153E+03 -0.22741818875E+03  0.25742047005E+03  0.00000000000E+00 0. -1.
          1    1    1    2  502    0  0.41701981915E+02  0.62347308242E+02  0.20400943073E+04  0.20414727587E+04  0.00000000000E+00 0. -1.
         22    1    3    3    0    0 -0.11182185042E+03  0.60312940368E+02  0.14920414500E+02  0.12792339808E+03  0.00000000000E+00 0.  1.
         22    1    3    3    0    0  0.21468204164E+02 -0.12300467079E+02  0.31684402515E+02  0.40200580134E+02  0.00000000000E+00 0.  1.
</event>
<event>
 7    1  0.6510186E-006  0.3300347E+03  0.7818608E-02  0.1272242E+00
          2   -1    0    0  502    0  0.00000000000E+00  0.00000000000E+00  0.12775389247E+04  0.12775389247E+04  0.00000000000E+00 0. -1.
          1   -1    0    0  501    0 -0.00000000000E+00 -0.00000000000E+00 -0.18586400434E+04  0.18586400434E+04  0.00000000000E+00 0. -1.
         25    2    1    2    0    0 -0.30481998420E+03 -0.68254431730E+02  0.29943644841E+03  0.45039693042E+03  0.12498527145E+03 0.  0.
          2    1    1    2  501    0 -0.28690996006E+02  0.15747128162E+02 -0.17514306148E+04  0.17517363797E+04  0.00000000000E+00 0. -1.
          1    1    1    2  502    0  0.33351098020E+03  0.52507303568E+02  0.87089304766E+03  0.93404565804E+03  0.00000000000E+00 0. -1.
         22    1    3    3    0    0 -0.23829706657E+03 -0.70848857715E+02  0.29186688252E+03  0.38339448312E+03  0.00000000000E+00 0. -1.
         22    1    3    3    0    0 -0.66522917629E+02  0.25944259849E+01  0.75695658844E+01  0.67002447297E+02  0.00000000000E+00 0. -1.
</event>
<event>
 7    1  0.6510186E-006  0.8331213E+02  0.7818608E-02  0.1362121E+00
          2   -1    0    0  502    0  0.00000000000E+00  0.00000000000E+00  0.26258557636E+03  0.26258557636E+03  0.00000000000E+00 0. -1.
          1   -1    0    0  501    0 -0.00000000000E+00 -0.00000000000E+00 -0.17459169729E+03  0.17459169729E+03  0.00000000000E+00 0. -1.
         25    2    1    2    0    0  0.18988003523E+02 -0.45869491909E+02  0.11179528149E+01  0.13450474548E+03  0.12500288865E+03 0.  0.
          2    1    1    2  501    0 -0.39786107788E+02 -0.41958930226E+02 -0.88336884747E+02  0.10557883976E+03  0.00000000000E+00 0. -1.
          1    1    1    2  502    0  0.20798104265E+02  0.87828422134E+02  0.17521281099E+03  0.19709368841E+03  0.00000000000E+00 0. -1.
         22    1    3    3    0    0 -0.22013491043E+02 -0.57890650690E+02  0.42427342680E+02  0.75073301727E+02  0.00000000000E+00 0.  1.
         22    1    3    3    0    0  0.41001494566E+02  0.12021158782E+02 -0.41309389865E+02  0.59431443750E+02  0.00000000000E+00 0.  1.
</event>
<event>
 7    1  0.6510186E-006  0.7200695E+02  0.7818608E-02  0.1447574E+00
          2   -1    0    0  502    0  0.00000000000E+00  0.00000000000E+00  0.61845219824E+03  0.61845219824E+03  0.00000000000E+00 0. -1.
          1   -1    0    0  501    0 -0.00000000000E+00 -0.00000000000E+00 -0.10428421567E+03  0.10428421567E+03  0.00000000000E+00 0. -1.
         25    2    1    2    0    0 -0.23610696466E+02 -0.55718873819E+02  0.13345836613E+03  0.19260825603E+03  0.12499898765E+03 0.  0.
          2    1    1    2  501    0  0.56754518910E+02  0.47491640259E+02 -0.55550696948E+02  0.92533298021E+02  0.00000000000E+00 0. -1.
          1    1    1    2  502    0 -0.33143822444E+02  0.82272335595E+01  0.43626031338E+03  0.43759485986E+03  0.00000000000E+00 0. -1.
         22    1    3    3    0    0 -0.19188941303E+02  0.38710674392E+02  0.53702378012E+02  0.68925156397E+02  0.00000000000E+00 0.  1.
         22    1    3    3    0    0 -0.44217551628E+01 -0.94429548210E+02  0.79755988120E+02  0.12368309963E+03  0.00000000000E+00 0.  1.
</event>
<event>
 7    1  0.6510186E-006  0.8624928E+02  0.7818608E-02  0.1421124E+00
          2   -1    0    0  502    0  0.00000000000E+00  0.00000000000E+00  0.67056299047E+03  0.67056299047E+03  0.00000000000E+00 0. -1.
          1   -1    0    0  501    0 -0.00000000000E+00 -0.00000000000E+00 -0.85482738060E+03  0.85482738060E+03  0.00000000000E+00 0. -1.
         25    2    1    2    0    0 -0.85195113011E+02 -0.33968932794E+02 -0.48398796909E+03  0.50821416392E+03  0.12500074602E+03 0.  0.
          2    1    1    2  501    0  0.23163872965E+02 -0.25967536950E+02 -0.35504716701E+03  0.35674832696E+03  0.00000000000E+00 0. -1.
          1    1    1    2  502    0  0.62031240046E+02  0.59936469744E+02  0.65477074598E+03  0.66042788019E+03  0.00000000000E+00 0. -1.
         22    1    3    3    0    0 -0.91613234083E+02 -0.65431276151E+02 -0.28118476022E+03  0.30288464130E+03  0.00000000000E+00 0. -1.
         22    1    3    3    0    0  0.64181210723E+01  0.31462343358E+02 -0.20280320888E+03  0.20532952262E+03  0.00000000000E+00 0. -1.
</event>
<event>
 7    1  0.6510186E-006  0.1004948E+03  0.7818608E-02  0.1308783E+00
          2   -1    0    0  502    0  0.00000000000E+00  0.00000000000E+00  0.76536354506E+03  0.76536354506E+03  0.00000000000E+00 0. -1.
          1   -1    0    0  501    0 -0.00000000000E+00 -0.00000000000E+00 -0.12656148492E+03  0.12656148492E+03  0.00000000000E+00 0. -1.
         25    2    1    2    0    0  0.26591591742E+02  0.13704426082E+03  0.18603850066E+03  0.26405347448E+03  0.12500268591E+03 0.  0.
          2    1    1    2  501    0 -0.61380782622E+02 -0.45407597032E+02 -0.65392073738E+02  0.10052648234E+03  0.00000000000E+00 0. -1.
          1    1    1    2  502    0  0.34789190880E+02 -0.91636663783E+02  0.51815563321E+03  0.52734507316E+03  0.00000000000E+00 0. -1.
         22    1    3    3    0    0  0.52020026119E+02  0.16785807970E+02  0.21651409638E+02  0.58793111892E+02  0.00000000000E+00 0.  1.
         22    1    3    3    0    0 -0.25428434377E+02  0.12025845285E+03  0.16438709102E+03  0.20526036259E+03  0.00000000000E+00 0.  1.
</event>
<event>
 7    1  0.6510186E-006  0.3390854E+03  0.7818608E-02  0.1301877E+00
          2   -1    0    0  502    0  0.00000000000E+00  0.00000000000E+00  0.85512580775E+03  0.85512580775E+03  0.00000000000E+00 0. -1.
          1   -1    0    0  501    0 -0.00000000000E+00 -0.00000000000E+00 -0.14066345337E+04  0.14066345337E+04  0.00000000000E+00 0. -1.
         25    2    1    2    0    0 -0.35691132819E+03  0.54197192279E+02 -0.93587889263E+03  0.10108509225E+04  0.12500901586E+03 0.  0.
          2    1    1    2  501    0  0.23711298161E+02  0.43256024386E+01 -0.39789618816E+03  0.39862552985E+03  0.00000000000E+00 0. -1.
          1    1    1    2  502    0  0.33320003003E+03 -0.58522794718E+02  0.78226635489E+03  0.85228388903E+03  0.00000000000E+00 0. -1.
         22    1    3    3    0    0 -0.36463388916E+03  0.56285116265E+02 -0.87725746995E+03  0.95168616467E+03  0.00000000000E+00 0. -1.
         22    1    3    3    0    0  0.77225609721E+01 -0.20879239853E+01 -0.58621422680E+02  0.59164757851E+02  0.00000000000E+00 0. -1.
</event>
<event>
 7    1  0.6510186E-006  0.1117679E+03  0.7818608E-02  0.1314580E+00
          2   -1    0    0  502    0  0.00000000000E+00  0.00000000000E+00  0.16373032234E+04  0.16373032234E+04  0.00000000000E+00 0. -1.
          1   -1    0    0  501    0 -0.00000000000E+00 -0.00000000000E+00 -0.54630234484E+03  0.54630234484E+03  0.00000000000E+00 0. -1.
         25    2    1    2    0    0 -0.41851685742E+02 -0.76492652496E+02  0.59469647007E+03  0.61391458121E+03  0.12499812809E+03 0.  0.
          2    1    1    2  501    0  0.43518875080E+02 -0.48471298041E+02 -0.53091535930E+03  0.53489669840E+03  0.00000000000E+00 0. -1.
          1    1    1    2  502    0 -0.16671893386E+01  0.12496395054E+03  0.10272197677E+04  0.10347942886E+04  0.00000000000E+00 0. -1.
         22    1    3    3    0    0  0.29569954171E+02 -0.10212807812E+02  0.40282974611E+02  0.51003937854E+02  0.00000000000E+00 0.  1.
         22    1    3    3    0    0 -0.71421639912E+02 -0.66279844683E+02  0.55441349546E+03  0.56291064335E+03  0.00000000000E+00 0.  1.
</event>
<event>
 7    1  0.6510186E-006  0.1785231E+03  0.7818608E-02  0.1313730E+00
          2   -1    0    0  502    0  0.00000000000E+00  0.00000000000E+00  0.82417406922E+03  0.82417406922E+03  0.00000000000E+00 0. -1.
          1   -1    0    0  501    0 -0.00000000000E+00 -0.00000000000E+00 -0.22572068530E+03  0.22572068530E+03  0.00000000000E+00 0. -1.
         25    2    1    2    0    0 -0.16778459185E+03 -0.10752006003E+03  0.96534586890E+02  0.25427950427E+03  0.12500762880E+03 0.  0.
          2    1    1    2  501    0  0.12774863155E+03  0.11679629797E+03 -0.94888047071E+02  0.19739511027E+03  0.00000000000E+00 0. -1.
          1    1    1    2  502    0  0.40035960300E+02 -0.92762379380E+01  0.59680684411E+03  0.59822013998E+03  0.00000000000E+00 0. -1.
         22    1    3    3    0    0  0.16440422500E+02 -0.24782015244E+02 -0.15275590393E+01  0.29778670356E+02  0.00000000000E+00 0. -1.
         22    1    3    3    0    0 -0.18422501435E+03 -0.82738044783E+02  0.98062145929E+02  0.22450083392E+03  0.00000000000E+00 0. -1.
</event>
<event>
 7    1  0.6510186E-006  0.8409297E+02  0.7818608E-02  0.1429008E+00
          2   -1    0    0  502    0  0.00000000000E+00  0.00000000000E+00  0.16127616796E+04  0.16127616796E+04  0.00000000000E+00 0. -1.
          1   -1    0    0  501    0 -0.00000000000E+00 -0.00000000000E+00 -0.19588865555E+03  0.19588865555E+03  0.00000000000E+00 0. -1.
         25    2    1    2    0    0  0.24310664263E+02  0.11327436613E+03  0.73232045228E+02  0.18549894288E+03  0.12499933977E+03 0.  0.
          2    1    1    2  501    0  0.47144488958E+00 -0.33601866485E+02 -0.13654301520E+03  0.14061757604E+03  0.00000000000E+00 0. -1.
          1    1    1    2  502    0 -0.24782109153E+02 -0.79672499640E+02  0.14801839941E+04  0.14825338163E+04  0.00000000000E+00 0. -1.
         22    1    3    3    0    0  0.74452825388E+02  0.72364293613E+02  0.31512001704E+02  0.10850262877E+03  0.00000000000E+00 0.  1.
         22    1    3    3    0    0 -0.50142161125E+02  0.40910072512E+02  0.41720043525E+02  0.76996314112E+02  0.00000000000E+00 0.  1.
</event>
<event>
 7    1  0.6510186E-006  0.4588987E+02  0.7818608E-02  0.1483815E+00
          2   -1    0    0  502    0  0.00000000000E+00  0.00000000000E+00  0.19734505026E+04  0.19734505026E+04  0.00000000000E+00 0. -1.
          1   -1    0    0  501    0 -0.00000000000E+00 -0.00000000000E+00 -0.23293520366E+02  0.23293520366E+02  0.00000000000E+00 0. -1.
         25    2    1    2    0    0 -0.65686910057E+02  0.35200905619E+02  0.97515453102E+03  0.98595396316E+03  0.12499993679E+03 0.  0.
          2    1    1    2  501    0  0.21738767360E+02 -0.35077544702E+02  0.70800714902E+01  0.41870461676E+02  0.00000000000E+00 0. -1.
          1    1    1    2  502    0  0.43948142696E+02 -0.12336091795E+00  0.96792237976E+03  0.96891959817E+03  0.00000000000E+00 0. -1.
         22    1    3    3    0    0 -0.60850026047E+02  0.34945527959E+02  0.22290877205E+03  0.23369261060E+03  0.00000000000E+00 0. -1.
         22    1    3    3    0    0 -0.48368840103E+01  0.25537766019E+00  0.75224575897E+03  0.75226135256E+03  0.00000000000E+00 0. -1.
</event>
<event>
 7    1  0.6510186E-006  0.9146831E+02  0.7818608E-02  0.1324905E+00
          2   -1    0    0  502    0  0.00000000000E+00  0.00000000000E+00  0.94112102334E+03  0.94112102334E+03  0.00000000000E+00 0. -1.
          1   -1    0    0  501    0 -0.00000000000E+00 -0.00000000000E+00 -0.22835144425E+03  0.22835144425E+03  0.00000000000E+00 0. -1.
         25    2    1    2    0    0 -0.61347545079E+02  0.10844837690E+02  0.24877054328E+03  0.28528881064E+03  0.12498716126E+03 0.  0.
          2    1    1    2  501    0  0.70753083675E+02  0.61124493717E+02 -0.19760561028E+03  0.21860965165E+03  0.00000000000E+00 0. -1.
          1    1    1    2  502    0 -0.94055385961E+01 -0.71969331407E+02  0.66160464608E+03  0.66557400530E+03  0.00000000000E+00 0. -1.
         22    1    3    3    0    0 -0.47053374031E+02  0.52589049141E+02  0.22364302660E+03  0.23451190043E+03  0.00000000000E+00 0. -1.
         22    1    3    3    0    0 -0.14294171048E+02 -0.41744211451E+02  0.25127516681E+02  0.50776910207E+02  0.00000000000E+00 0. -1.
</event>
<event>
 7    1  0.6510186E-006  0.1203933E+03  0.7818608E-02  0.1267202E+00
          2   -1    0    0  502    0  0.00000000000E+00  0.00000000000E+00  0.12796853905E+04  0.12796853905E+04  0.00000000000E+00 0. -1.
          1   -1    0    0  501    0 -0.00000000000E+00 -0.00000000000E+00 -0.29100568195E+04  0.29100568195E+04  0.00000000000E+00 0. -1.
         25    2    1    2    0    0  0.16624831114E+03  0.12376844122E+03  0.14517427885E+03  0.28223723599E+03  0.12500063255E+03 0.  0.
          2    1    1    2  501    0 -0.62831173790E+02 -0.70186329137E+02 -0.28375597838E+04  0.28391229991E+04  0.00000000000E+00 0. -1.
          1    1    1    2  502    0 -0.10341713735E+03 -0.53582112084E+02  0.10620140759E+04  0.10683819749E+04  0.00000000000E+00 0. -1.
         22    1    3    3    0    0 -0.13188752680E+02 -0.11307103044E+02  0.12215459642E+02  0.21237024998E+02  0.00000000000E+00 0.  1.
         22    1    3    3    0    0  0.17943706382E+03  0.13507554427E+03  0.13295881921E+03  0.26100021099E+03  0.00000000000E+00 0.  1.
</event>
<event>
 7    1  0.6510186E-006  0.6247637E+02  0.7818608E-02  0.1520639E+00
          2   -1    0    0  502    0  0.00000000000E+00  0.00000000000E+00  0.58621474759E+03  0.58621474759E+03  0.00000000000E+00 0. -1.
          1   -1    0    0  501    0 -0.00000000000E+00 -0.00000000000E+00 -0.74365906849E+02  0.74365906849E+02  0.00000000000E+00 0. -1.
         25    2    1    2    0    0  0.42666838607E+02  0.23405115251E+02  0.25355479890E+03  0.28685094328E+03  0.12500067630E+03 0.  0.
          2    1    1    2  501    0 -0.62604699190E+02 -0.10866557372E+02 -0.39623288664E+02  0.74882811341E+02  0.00000000000E+00 0. -1.
          1    1    1    2  502    0  0.19937860583E+02 -0.12538557879E+02  0.29791733050E+03  0.29884689982E+03  0.00000000000E+00 0. -1.
         22    1    3    3    0    0  0.29860913753E+02  0.66117986825E+02  0.81503047521E+02  0.10911466037E+03  0.00000000000E+00 0.  1.
         22    1    3    3    0    0  0.12805924854E+02 -0.42712871574E+02  0.17205175138E+03  0.17773628291E+03  0.00000000000E+00 0.  1.
</event>
<event>
 7    1  0.6510186E-006  0.2037040E+03  0.7818608E-02  0.1336294E+00
          2   -1    0    0  502    0  0.00000000000E+00  0.00000000000E+00  0.11395059795E+04  0.11395059795E+04  0.00000000000E+00 0. -1.
          1   -1    0    0  501    0 -0.00000000000E+00 -0.00000000000E+00 -0.15859731465E+03  0.15859731465E+03  0.00000000000E+00 0. -1.
         25    2    1    2    0    0  0.89273480124E+02 -0.21290139619E+03  0.19216095687E+02  0.26323116479E+03  0.12499851611E+03 0.  0.
          2    1    1    2  501    0 -0.12861572497E+02  0.26533690860E+02 -0.18093961282E+02  0.34595494398E+02  0.00000000000E+00 0. -1.
          1    1    1    2  502    0 -0.76411907626E+02  0.18636770533E+03  0.97978653043E+03  0.10002766350E+04  0.00000000000E+00 0. -1.
         22    1    3    3    0    0  0.15315901359E+02 -0.14307496659E+03 -0.34834761542E+02  0.14804892269E+03  0.00000000000E+00 0. -1.
         22    1    3    3    0    0  0.73957578765E+02 -0.69826429609E+02  0.54050857229E+02  0.11518224210E+03  0.00000000000E+00 0. -1.
</event>
<event>
 7    1  0.6510186E-006  0.9569055E+02  0.7818608E-02  0.1309935E+00
          2   -1    0    0  502    0  0.00000000000E+00  0.00000000000E+00  0.26245672801E+04  0.26245672801E+04  0.00000000000E+00 0. -1.
          1   -1    0    0  501    0 -0.00000000000E+00 -0.00000000000E+00 -0.51336781618E+02  0.51336781618E+02  0.00000000000E+00 0. -1.
         25    2    1    2    0    0  0.18439241805E+02  0.26382225576E+01  0.84423196397E+03  0.85363789854E+03  0.12499234772E+03 0.  0.
          2    1    1    2  501    0  0.37935602980E+02 -0.87849712267E+02  0.56134430001E+01  0.95855060696E+02  0.00000000000E+00 0. -1.
          1    1    1    2  502    0 -0.56374844785E+02  0.85211489709E+02  0.17233850915E+04  0.17264111025E+04  0.00000000000E+00 0. -1.
         22    1    3    3    0    0  0.46225490136E+02 -0.38002114450E+02  0.66750024196E+03  0.67017723750E+03  0.00000000000E+00 0.  1.
         22    1    3    3    0    0 -0.27786248331E+02  0.40640337008E+02  0.17673172201E+03  0.18346066105E+03  0.00000000000E+00 0.  1.
</event>
<event>
 7    1  0.6510186E-006  0.4999070E+02  0.7818608E-02  0.1494606E+00
          2   -1    0    0  502    0  0.00000000000E+00  0.00000000000E+00  0.10023762459E+04  0.10023762459E+04  0.00000000000E+00 0. -1.
          1   -1    0    0  501    0 -0.00000000000E+00 -0.00000000000E+00 -0.16413177762E+03  0.16413177762E+03  0.00000000000E+00 0. -1.
         25    2    1    2    0    0 -0.84629295791E+02  0.41364526680E+01  0.12921937863E+02  0.15156279393E+03  0.12500030432E+03 0.  0.
          2    1    1    2  501    0  0.34982464299E+02 -0.32813660140E+01 -0.90860567102E+02  0.97417569388E+02  0.00000000000E+00 0. -1.
          1    1    1    2  502    0  0.49646831492E+02 -0.85508665396E+00  0.91618309756E+03  0.91752766024E+03  0.00000000000E+00 0. -1.
         22    1    3    3    0    0 -0.10441344732E+03 -0.19477399114E+02  0.36987905146E+02  0.11247062810E+03  0.00000000000E+00 0.  1.
         22    1    3    3    0    0  0.19784151534E+02  0.23613851782E+02 -0.24065967283E+02  0.39092165828E+02  0.00000000000E+00 0.  1.
</event>
<event>
 7    1  0.6510186E-006  0.7225226E+02  0.7818608E-02  0.1419394E+00
          2   -1    0    0  502    0  0.00000000000E+00  0.00000000000E+00  0.47239569459E+03  0.47239569459E+03  0.00000000000E+00 0. -1.
          1   -1    0    0  501    0 -0.00000000000E+00 -0.00000000000E+00 -0.80026288583E+02  0.80026288583E+02  0.00000000000E+00 0. -1.
         25    2    1    2    0    0  0.16856454490E+02  0.37585743234E+02  0.19476478250E+03  0.23506439947E+03  0.12500049297E+03 0.  0.
          2    1    1    2  501    0 -0.56785538770E+02 -0.50914524171E+02 -0.32884610877E+02  0.83055907783E+02  0.00000000000E+00 0. -1.
          1    1    1    2  502    0  0.39929084281E+02  0.13328780937E+02  0.23048923438E+03  0.23430167592E+03  0.00000000000E+00 0. -1.
         22    1    3    3    0    0  0.46170671029E+02 -0.12564742859E+02  0.16081223944E+03  0.16778015372E+03  0.00000000000E+00 0.  1.
         22    1    3    3    0    0 -0.29314216539E+02  0.50150486093E+02  0.33952543059E+02  0.67284245755E+02  0.00000000000E+00 0.  1.
</event>
<event>
 7    1  0.6510186E-006  0.3015138E+03  0.7818608E-02  0.1320189E+00
          2   -1    0    0  502    0  0.00000000000E+00  0.00000000000E+00  0.95871949935E+03  0.95871949935E+03  0.00000000000E+00 0. -1.
          1   -1    0    0  501    0 -0.00000000000E+00 -0.00000000000E+00 -0.45479615576E+03  0.45479615576E+03  0.00000000000E+00 0. -1.
         25    2    1    2    0    0 -0.31415571396E+02  0.30905687768E+03  0.10864484178E+03  0.35203993101E+03  0.12500127845E+03 0.  0.
          2    1    1    2  501    0  0.20713185299E+02 -0.99109376418E+01 -0.30188991237E+03  0.30276192283E+03  0.00000000000E+00 0. -1.
          1    1    1    2  502    0  0.10702386098E+02 -0.29914594004E+03  0.69716841417E+03  0.75871380126E+03  0.00000000000E+00 0. -1.
         22    1    3    3    0    0  0.34348985123E+01  0.17495330581E+03  0.12128034708E+03  0.21290697576E+03  0.00000000000E+00 0.  1.
         22    1    3    3    0    0 -0.34850469908E+02  0.13410357187E+03 -0.12635505303E+02  0.13913295525E+03  0.00000000000E+00 0.  1.
</event>
<event>
 7    1  0.6510186E-006  0.1273743E+03  0.7818608E-02  0.1364535E+00
          2   -1    0    0  502    0  0.00000000000E+00  0.00000000000E+00  0.13183127599E+03  0.13183127599E+03  0.00000000000E+00 0. -1.
          1   -1    0    0  501    0 -0.00000000000E+00 -0.00000000000E+00 -0.72869369214E+03  0.72869369214E+03  0.00000000000E+00 0. -1.
         25    2    1    2    0    0 -0.63916626462E+02  0.85854396742E+02 -0.11659007205E+03  0.20168027790E+03  0.12500150804E+03 0.  0.
          2    1    1    2  501    0  0.10094707356E+03 -0.84261541794E+02 -0.55770585359E+03  0.57299750280E+03  0.00000000000E+00 0. -1.
          1    1    1    2  502    0 -0.37030447095E+02 -0.15928549479E+01  0.77433509489E+02  0.85847187436E+02  0.00000000000E+00 0. -1.
         22    1    3    3    0    0 -0.54804571226E+02  0.67847639411E+01 -0.10841428416E+03  0.12166852945E+03  0.00000000000E+00 0. -1.
         22    1    3    3    0    0 -0.91120552357E+01  0.79069632801E+02 -0.81757878966E+01  0.80011748447E+02  0.00000000000E+00 0. -1.
</event>
<event>
 7    1  0.6510186E-006  0.7484104E+02  0.7818608E-02  0.1433081E+00
          2   -1    0    0  502    0  0.00000000000E+00  0.00000000000E+00  0.90902924007E+03  0.90902924007E+03  0.00000000000E+00 0. -1.
          1   -1    0    0  501    0 -0.00000000000E+00 -0.00000000000E+00 -0.48786472827E+02  0.48786472827E+02  0.00000000000E+00 0. -1.
         25    2    1    2    0    0  0.76475073535E+02 -0.38175471330E+02  0.23709325077E+03  0.28132661517E+03  0.12500260542E+03 0.  0.
          2    1    1    2  501    0 -0.19716499971E+01  0.36559906005E+02 -0.10801521655E+02  0.38173118826E+02  0.00000000000E+00 0. -1.
          1    1    1    2  502    0 -0.74503423538E+02  0.16155653246E+01  0.63395103813E+03  0.63831597889E+03  0.00000000000E+00 0. -1.
         22    1    3    3    0    0  0.37638697198E+02  0.45338872432E+02  0.82643099118E+02  0.10149958971E+03  0.00000000000E+00 0. -1.
         22    1    3    3    0    0  0.38836376337E+02 -0.83514343762E+02  0.15445015165E+03  0.17982702546E+03  0.00000000000E+00 0. -1.
</event>
<event>
 7    1  0.6510186E-006  0.1172683E+03  0.7818608E-02  0.1292639E+00
          2   -1    0    0  502    0  0.00000000000E+00  0.00000000000E+00  0.29185247246E+03  0.29185247246E+03  0.00000000000E+00 0. -1.
          1   -1    0    0  501    0 -0.00000000000E+00 -0.00000000000E+00 -0.39625306330E+03  0.39625306330E+03  0.00000000000E+00 0. -1.
         25    2    1    2    0    0 -0.50883195723E+02  0.33662162313E+02 -0.78478524537E+02  0.15970894514E+03  0.12500331022E+03 0.  0.
          2    1    1    2  501    0 -0.12400426558E+02  0.74896512505E+02 -0.25557605783E+03  0.26661278945E+03  0.00000000000E+00 0. -1.
          1    1    1    2  502    0  0.63283622282E+02 -0.10855867482E+03  0.22965399153E+03  0.26178380117E+03  0.00000000000E+00 0. -1.
         22    1    3    3    0    0 -0.26742672055E+02 -0.22123138232E+02  0.22845132617E+02  0.41551219454E+02  0.00000000000E+00 0. -1.
         22    1    3    3    0    0 -0.24140523669E+02  0.55785300545E+02 -0.10132365715E+03  0.11815772568E+03  0.00000000000E+00 0. -1.
</event>
<event>
 7    1  0.1292407E-005  0.7811587E+02  0.7818608E-02  0.1349496E+00
          2   -1    0    0  502    0  0.00000000000E+00  0.00000000000E+00  0.12244304764E+04  0.12244304764E+04  0.00000000000E+00 0. -1.
          1   -1    0    0  501    0 -0.00000000000E+00 -0.00000000000E+00 -0.12639924423E+04  0.12639924423E+04  0.00000000000E+00 0. -1.
         25    2    1    2    0    0  0.64679044499E+02  0.16532336538E+00 -0.18881917448E+03  0.23549798201E+03  0.12499285079E+03 0.  0.
          2    1    1    2  501    0 -0.21091388535E+02 -0.65296005311E+02 -0.10494338127E+04  0.10516747321E+04  0.00000000000E+00 0. -1.
          1    1    1    2  502    0 -0.43587655964E+02  0.65130681945E+02  0.11986910213E+04  0.12012502046E+04  0.00000000000E+00 0. -1.
         22    1    3    3    0    0  0.17149605293E+01  0.48787312771E+02 -0.28503481173E+02  0.56529562319E+02  0.00000000000E+00 0. -1.
         22    1    3    3    0    0  0.62964083969E+02 -0.48621989406E+02 -0.16031569331E+03  0.17896841969E+03  0.00000000000E+00 0. -1.
</event>
<event>
 7    1  0.6510186E-006  0.5384291E+02  0.7818608E-02  0.1517760E+00
          2   -1    0    0  502    0  0.00000000000E+00  0.00000000000E+00  0.88146052085E+03  0.88146052085E+03  0.00000000000E+00 0. -1.
          1   -1    0    0  501    0 -0.00000000000E+00 -0.00000000000E+00 -0.70513344803E+02  0.70513344803E+02  0.00000000000E+00 0. -1.
         25    2    1    2    0    0 -0.77144455952E+02  0.18932990000E+02  0.24392586481E+03  0.28535439694E+03  0.12497031300E+03 0.  0.
          2    1    1    2  501    0  0.52082000203E+02 -0.67629868032E+01 -0.35540102458E+02  0.63414285602E+02  0.00000000000E+00 0. -1.
          1    1    1    2  502    0  0.25062455749E+02 -0.12170003197E+02  0.60256141370E+03  0.60320518312E+03  0.00000000000E+00 0. -1.
         22    1    3    3    0    0 -0.15805405723E+01  0.49804552734E+02  0.34566855111E+02  0.60645354758E+02  0.00000000000E+00 0. -1.
         22    1    3    3    0    0 -0.75563915379E+02 -0.30871562734E+02  0.20935900970E+03  0.22470904218E+03  0.00000000000E+00 0. -1.
</event>
<event>
 7    1  0.6510186E-006  0.1850859E+03  0.7818608E-02  0.1324578E+00
          2   -1    0    0  502    0  0.00000000000E+00  0.00000000000E+00  0.71201754467E+02  0.71201754467E+02  0.00000000000E+00 0. -1.
          1   -1    0    0  501    0 -0.00000000000E+00 -0.00000000000E+00 -0.11603273598E+04  0.11603273598E+04  0.00000000000E+00 0. -1.
         25    2    1    2    0    0  0.13216889582E+03  0.14597279629E+03 -0.62752729401E+03  0.66947119868E+03  0.12499802739E+03 0.  0.
          2    1    1    2  501    0 -0.13860268764E+03 -0.11057948576E+03 -0.48683271644E+03  0.51811641693E+03  0.00000000000E+00 0. -1.
          1    1    1    2  502    0  0.64337918157E+01 -0.35393310524E+02  0.25234405090E+02  0.43941498692E+02  0.00000000000E+00 0. -1.
         22    1    3    3    0    0  0.14200615235E+03  0.93301743587E+02 -0.54670404789E+03  0.57250002502E+03  0.00000000000E+00 0.  1.
         22    1    3    3    0    0 -0.98372565251E+01  0.52671052700E+02 -0.80823246120E+02  0.96971173664E+02  0.00000000000E+00 0.  1.
</event>
<event>
 7    1  0.6510186E-006  0.7432485E+02  0.7818608E-02  0.1477280E+00
          2   -1    0    0  502    0  0.00000000000E+00  0.00000000000E+00  0.66630276827E+03  0.66630276827E+03  0.00000000000E+00 0. -1.
          1   -1    0    0  501    0 -0.00000000000E+00 -0.00000000000E+00 -0.28867096661E+03  0.28867096661E+03  0.00000000000E+00 0. -1.
         25    2    1    2    0    0 -0.93955513243E+02  0.20256111116E+02 -0.65327918705E+02  0.17068190113E+03  0.12500650346E+03 0.  0.
          2    1    1    2  501    0  0.25528715325E+02  0.77608141684E+01 -0.16737810054E+03  0.16949151625E+03  0.00000000000E+00 0. -1.
          1    1    1    2  502    0  0.68426797919E+02 -0.28016925284E+02  0.61033782089E+03  0.61480031749E+03  0.00000000000E+00 0. -1.
         22    1    3    3    0    0 -0.95379900925E+01  0.67221644803E+01 -0.82632809721E+02  0.83452633228E+02  0.00000000000E+00 0.  1.
         22    1    3    3    0    0 -0.84417523151E+02  0.13533946635E+02  0.17304891016E+02  0.87229267906E+02  0.00000000000E+00 0.  1.
</event>
<event>
 7    1  0.6510186E-006  0.1345746E+03  0.7818608E-02  0.1277342E+00
          2   -1    0    0  502    0  0.00000000000E+00  0.00000000000E+00  0.65697485117E+03  0.65697485117E+03  0.00000000000E+00 0. -1.
          1   -1    0    0  501    0 -0.00000000000E+00 -0.00000000000E+00 -0.19971554138E+04  0.19971554138E+04  0.00000000000E+00 0. -1.
         25    2    1    2    0    0 -0.12136641589E+03  0.18548268834E+02 -0.22530101481E+03  0.28541119897E+03  0.12500064017E+03 0.  0.
          2    1    1    2  501    0 -0.11535765620E+01 -0.76422110430E+02 -0.17336257401E+04  0.17353097351E+04  0.00000000000E+00 0. -1.
          1    1    1    2  502    0  0.12251999245E+03  0.57873841596E+02  0.61874619229E+03  0.63340933097E+03  0.00000000000E+00 0. -1.
         22    1    3    3    0    0  0.77531299107E+01 -0.28197078780E+02 -0.11742314757E+02  0.31512985117E+02  0.00000000000E+00 0.  1.
         22    1    3    3    0    0 -0.12911954580E+03  0.46745347613E+02 -0.21355870005E+03  0.25389821386E+03  0.00000000000E+00 0.  1.
</event>
<event>
 7    1  0.6510186E-006  0.1864071E+03  0.7818608E-02  0.1260938E+00
          2   -1    0    0  502    0  0.00000000000E+00  0.00000000000E+00  0.30117806536E+04  0.30117806536E+04  0.00000000000E+00 0. -1.
          1   -1    0    0  501    0 -0.00000000000E+00 -0.00000000000E+00 -0.19171805974E+03  0.19171805974E+03  0.00000000000E+00 0. -1.
         25    2    1    2    0    0  0.37146086151E+02  0.22264610505E+03  0.32302327647E+03  0.41342314596E+03  0.12499416253E+03 0.  0.
          2    1    1    2  501    0  0.35977008629E+02 -0.53747816203E+02 -0.13600821363E+03  0.15060347629E+03  0.00000000000E+00 0. -1.
          1    1    1    2  502    0 -0.73123094781E+02 -0.16889828885E+03  0.26330475310E+04  0.26394720911E+04  0.00000000000E+00 0. -1.
         22    1    3    3    0    0  0.13637212816E+01  0.14851234026E+03  0.10932151169E+03  0.18441520508E+03  0.00000000000E+00 0.  1.
         22    1    3    3    0    0  0.35782364870E+02  0.74133764784E+02  0.21370176479E+03  0.22900794089E+03  0.00000000000E+00 0.  1.
</event>
<event>
 7    1  0.6510186E-006  0.1073356E+03  0.7818608E-02  0.1447183E+00
          2   -1    0    0  502    0  0.00000000000E+00  0.00000000000E+00  0.64235051866E+03  0.64235051866E+03  0.00000000000E+00 0. -1.
          1   -1    0    0  501    0 -0.00000000000E+00 -0.00000000000E+00 -0.37680018074E+03  0.37680018074E+03  0.00000000000E+00 0. -1.
         25    2    1    2    0    0  0.13741698947E+02 -0.96625960759E+02  0.68404327392E+02  0.17271734517E+03  0.12500687475E+03 0.  0.
          2    1    1    2  501    0  0.62095033961E+01  0.10802071378E+03 -0.31536385146E+03  0.33340874516E+03  0.00000000000E+00 0. -1.
          1    1    1    2  502    0 -0.19951202343E+02 -0.11394753026E+02  0.51250986199E+03  0.51302460907E+03  0.00000000000E+00 0. -1.
         22    1    3    3    0    0 -0.10210570428E+02  0.83080517906E+01 -0.26262131346E+02  0.29376504487E+02  0.00000000000E+00 0. -1.
         22    1    3    3    0    0  0.23952269375E+02 -0.10493401255E+03  0.94666458738E+02  0.14334084068E+03  0.00000000000E+00 0. -1.
</event>
<event>
 7    1  0.6510186E-006  0.6032972E+02  0.7818608E-02  0.1471122E+00
          2   -1    0    0  502    0  0.00000000000E+00  0.00000000000E+00  0.46904490451E+03  0.46904490451E+03  0.00000000000E+00 0. -1.
          1   -1    0    0  501    0 -0.00000000000E+00 -0.00000000000E+00 -0.13960113224E+03  0.13960113224E+03  0.00000000000E+00 0. -1.
         25    2    1    2    0    0  0.24091677155E+02 -0.14517829182E+02  0.14161560208E+03  0.19097534681E+03  0.12500171225E+03 0.  0.
          2    1    1    2  501    0 -0.48112652788E+02  0.39065822221E+02 -0.10549014164E+03  0.12234841972E+03  0.00000000000E+00 0. -1.
          1    1    1    2  502    0  0.24020975633E+02 -0.24547993039E+02  0.29331831183E+03  0.29532227022E+03  0.00000000000E+00 0. -1.
         22    1    3    3    0    0 -0.34961410681E+02 -0.18256201813E+02  0.21765674265E+01  0.39500969447E+02  0.00000000000E+00 0.  1.
         22    1    3    3    0    0  0.59053087836E+02  0.37383726314E+01  0.13943903465E+03  0.15147437736E+03  0.00000000000E+00 0.  1.
</event>
<event>
 7    1  0.6510186E-006  0.8413509E+02  0.7818608E-02  0.1368118E+00
          2   -1    0    0  502    0  0.00000000000E+00  0.00000000000E+00  0.10359131191E+04  0.10359131191E+04  0.00000000000E+00 0. -1.
          1   -1    0    0  501    0 -0.00000000000E+00 -0.00000000000E+00 -0.87011235086E+03  0.87011235086E+03  0.00000000000E+00 0. -1.
         25    2    1    2    0    0 -0.35925864640E+02 -0.12515821497E+03  0.20638203434E+03  0.27418195273E+03  0.12500781007E+03 0.  0.
          2    1    1    2  501    0 -0.43260716277E+01  0.54292329185E+02 -0.83323390495E+03  0.83501204318E+03  0.00000000000E+00 0. -1.
          1    1    1    2  502    0  0.40251936268E+02  0.70865885785E+02  0.79265263886E+03  0.79683147405E+03  0.00000000000E+00 0. -1.
         22    1    3    3    0    0 -0.63079183105E+01 -0.13439325199E+03  0.20220905997E+03  0.24287824099E+03  0.00000000000E+00 0.  1.
         22    1    3    3    0    0 -0.29617946330E+02  0.92350370158E+01  0.41729743724E+01  0.31303711738E+02  0.00000000000E+00 0.  1.
</event>
<event>
 7    1  0.6510186E-006  0.6673345E+02  0.7818608E-02  0.1419558E+00
          2   -1    0    0  502    0  0.00000000000E+00  0.00000000000E+00  0.95615019762E+03  0.95615019762E+03  0.00000000000E+00 0. -1.
          1   -1    0    0  501    0 -0.00000000000E+00 -0.00000000000E+00 -0.46732860561E+03  0.46732860561E+03  0.00000000000E+00 0. -1.
         25    2    1    2    0    0  0.14452731369E+02 -0.16191895669E+02 -0.10875952071E+03  0.16710829865E+03  0.12500196480E+03 0.  0.
          2    1    1    2  501    0  0.26352259761E+02 -0.37114616237E+02 -0.32659884351E+03  0.32975557754E+03  0.00000000000E+00 0. -1.
          1    1    1    2  502    0 -0.40804991130E+02  0.53306511906E+02  0.92417995623E+03  0.92661492704E+03  0.00000000000E+00 0. -1.
         22    1    3    3    0    0  0.35075136134E+02 -0.40310172292E+02  0.39439355953E+00  0.53435294621E+02  0.00000000000E+00 0.  1.
         22    1    3    3    0    0 -0.20622404765E+02  0.24118276622E+02 -0.10915391426E+03  0.11367300403E+03  0.00000000000E+00 0.  1.
</event>
<event>
 7    1  0.6510186E-006  0.8152796E+02  0.7818608E-02  0.1365392E+00
          2   -1    0    0  502    0  0.00000000000E+00  0.00000000000E+00  0.46057497080E+02  0.46057497080E+02  0.00000000000E+00 0. -1.
          1   -1    0    0  501    0 -0.00000000000E+00 -0.00000000000E+00 -0.11884574113E+04  0.11884574113E+04  0.00000000000E+00 0. -1.
         25    2    1    2    0    0 -0.20666701036E+02 -0.27031928084E+02 -0.45608490895E+03  0.47412712934E+03  0.12500101173E+03 0.  0.
          2    1    1    2  501    0 -0.55209756643E+02 -0.16049667587E+02 -0.66895788986E+03  0.67142413381E+03  0.00000000000E+00 0. -1.
          1    1    1    2  502    0  0.75876457679E+02  0.43081595671E+02 -0.17357115395E+02  0.88963645217E+02  0.00000000000E+00 0. -1.
         22    1    3    3    0    0  0.34333254162E+01  0.17337472891E+02 -0.26288481254E+01  0.17868590658E+02  0.00000000000E+00 0. -1.
         22    1    3    3    0    0 -0.24100026452E+02 -0.44369400975E+02 -0.45345606083E+03  0.45625853868E+03  0.00000000000E+00 0. -1.
</event>
<event>
 7    1  0.6510186E-006  0.9885890E+02  0.7818608E-02  0.1397971E+00
          2   -1    0    0  502    0  0.00000000000E+00  0.00000000000E+00  0.17098137353E+04  0.17098137353E+04  0.00000000000E+00 0. -1.
          1   -1    0    0  501    0 -0.00000000000E+00 -0.00000000000E+00 -0.26932609495E+03  0.26932609495E+03  0.00000000000E+00 0. -1.
         25    2    1    2    0    0  0.53530607411E+01 -0.10896864935E+03  0.24367154248E+03  0.29479433443E+03  0.12500022880E+03 0.  0.
          2    1    1    2  501    0 -0.33371848490E+02  0.14473283926E+02 -0.24071078516E+03  0.24344370665E+03  0.00000000000E+00 0. -1.
          1    1    1    2  502    0  0.28018787749E+02  0.94495365426E+02  0.14375268831E+04  0.14409017892E+04  0.00000000000E+00 0. -1.
         22    1    3    3    0    0  0.43574792446E+02 -0.53197402775E+02  0.20647759187E+03  0.21762748481E+03  0.00000000000E+00 0.  1.
         22    1    3    3    0    0 -0.38221731705E+02 -0.55771246577E+02  0.37193950601E+02  0.77166849622E+02  0.00000000000E+00 0.  1.
</event>
<event>
 7    1  0.6510186E-006  0.9786103E+02  0.7818608E-02  0.1346052E+00
          2   -1    0    0  502    0  0.00000000000E+00  0.00000000000E+00  0.76690032444E+03  0.76690032444E+03  0.00000000000E+00 0. -1.
          1   -1    0    0  501    0 -0.00000000000E+00 -0.00000000000E+00 -0.99329809491E+02  0.99329809491E+02  0.00000000000E+00 0. -1.
         25    2    1    2    0    0 -0.11650772455E+03  0.13847272852E+02  0.30858114310E+03  0.35298823194E+03  0.12495028279E+03 0.  0.
          2    1    1    2  501    0  0.79309431293E+02 -0.56256683840E+02 -0.43711491092E+02  0.10660907476E+03  0.00000000000E+00 0. -1.
          1    1    1    2  502    0  0.37198293259E+02  0.42409410988E+02  0.40270086294E+03  0.40663282723E+03  0.00000000000E+00 0. -1.
         22    1    3    3    0    0 -0.26343732570E+02 -0.52254474634E+02  0.12545993599E+03  0.13843669277E+03  0.00000000000E+00 0. -1.
         22    1    3    3    0    0 -0.90163991981E+02  0.66101747485E+02  0.18312120710E+03  0.21455153917E+03  0.00000000000E+00 0. -1.
</event>
<event>
 7    1  0.6510186E-006  0.1677521E+03  0.7818608E-02  0.1366231E+00
          2   -1    0    0  502    0  0.00000000000E+00  0.00000000000E+00  0.17776669232E+04  0.17776669232E+04  0.00000000000E+00 0. -1.
          1   -1    0    0  501    0 -0.00000000000E+00 -0.00000000000E+00 -0.14067773415E+03  0.14067773415E+03  0.00000000000E+00 0. -1.
         25    2    1    2    0    0  0.13386129133E+03  0.53107925364E+02  0.27611903554E+03  0.33556682625E+03  0.12499630409E+03 0.  0.
          2    1    1    2  501    0  0.25740562241E+02  0.10362626817E+02 -0.10411961017E+03  0.10775367187E+03  0.00000000000E+00 0. -1.
          1    1    1    2  502    0 -0.15960185358E+03 -0.63470552181E+02  0.14649897637E+04  0.14750241593E+04  0.00000000000E+00 0. -1.
         22    1    3    3    0    0  0.88994777076E+02  0.91700577515E+02  0.21755183347E+03  0.25230510599E+03  0.00000000000E+00 0.  1.
         22    1    3    3    0    0  0.44866514258E+02 -0.38592652151E+02  0.58567202076E+02  0.83261720261E+02  0.00000000000E+00 0.  1.
</event>
<event>
 7    1  0.6510186E-006  0.8600653E+02  0.7818608E-02  0.1337914E+00
          2   -1    0    0  502    0  0.00000000000E+00  0.00000000000E+00  0.38798377181E+03  0.38798377181E+03  0.00000000000E+00 0. -1.
          1   -1    0    0  501    0 -0.00000000000E+00 -0.00000000000E+00 -0.79048331712E+03  0.79048331712E+03  0.00000000000E+00 0. -1.
         25    2    1    2    0    0 -0.11491541340E+01  0.56172760115E+00 -0.26725946189E+03  0.29504881926E+03  0.12499819871E+03 0.  0.
          2    1    1    2  501    0  0.62258877936E+02 -0.61082173454E+02 -0.50056451212E+03  0.50810631820E+03  0.00000000000E+00 0. -1.
          1    1    1    2  502    0 -0.61109723802E+02  0.60520445853E+02  0.36532442871E+03  0.37531195147E+03  0.00000000000E+00 0. -1.
         22    1    3    3    0    0 -0.20283924541E+02  0.12625000609E+02  0.27893730175E+01  0.24054289368E+02  0.00000000000E+00 0.  1.
         22    1    3    3    0    0  0.19134770407E+02 -0.12063273008E+02 -0.27004883491E+03  0.27099452989E+03  0.00000000000E+00 0.  1.
</event>
<event>
 7    1  0.6510186E-006  0.9148703E+02  0.7818608E-02  0.1313857E+00
          2   -1    0    0  502    0  0.00000000000E+00  0.00000000000E+00  0.72664944003E+02  0.72664944003E+02  0.00000000000E+00 0. -1.
          1   -1    0    0  501    0 -0.00000000000E+00 -0.00000000000E+00 -0.62678258094E+03  0.62678258094E+03  0.00000000000E+00 0. -1.
         25    2    1    2    0    0 -0.15051360126E+03  0.47656512429E+02 -0.25279041557E+03  0.32319325489E+03  0.12500159384E+03 0.  0.
          2    1    1    2  501    0  0.71043731079E+02 -0.37001637246E+02 -0.28284769741E+03  0.29397134693E+03  0.00000000000E+00 0. -1.
          1    1    1    2  502    0  0.79469870183E+02 -0.10654875183E+02 -0.18479523961E+02  0.82282923124E+02  0.00000000000E+00 0. -1.
         22    1    3    3    0    0 -0.12009249193E+03  0.30886311854E+02 -0.81430522766E+02  0.14834790499E+03  0.00000000000E+00 0.  1.
         22    1    3    3    0    0 -0.30421109331E+02  0.16770200575E+02 -0.17135989280E+03  0.17484534990E+03  0.00000000000E+00 0.  1.
</event>
<event>
 7    1  0.6510186E-006  0.1232839E+03  0.7818608E-02  0.1253704E+00
          2   -1    0    0  502    0  0.00000000000E+00  0.00000000000E+00  0.15068922147E+04  0.15068922147E+04  0.00000000000E+00 0. -1.
          1   -1    0    0  501    0 -0.00000000000E+00 -0.00000000000E+00 -0.37730523130E+02  0.37730523130E+02  0.00000000000E+00 0. -1.
         25    2    1    2    0    0  0.23409800069E+02 -0.80364608321E+02  0.37630197863E+03  0.40526085556E+03  0.12500677148E+03 0.  0.
          2    1    1    2  501    0  0.98068121489E+02  0.10138911064E+03  0.24597154042E+03  0.28354736272E+03  0.00000000000E+00 0. -1.
          1    1    1    2  502    0 -0.12147792156E+03 -0.21024502317E+02  0.84688817248E+03  0.85581451951E+03  0.00000000000E+00 0. -1.
         22    1    3    3    0    0  0.22772991160E+02  0.90207390939E+01  0.24617200162E+03  0.24738762548E+03  0.00000000000E+00 0. -1.
         22    1    3    3    0    0  0.63680890868E+00 -0.89385347415E+02  0.13012997701E+03  0.15787323008E+03  0.00000000000E+00 0. -1.
</event>
<event>
 7    1  0.6510186E-006  0.4814868E+02  0.7818608E-02  0.1481709E+00
          2   -1    0    0  502    0  0.00000000000E+00  0.00000000000E+00  0.29158877015E+04  0.29158877015E+04  0.00000000000E+00 0. -1.
          1   -1    0    0  501    0 -0.00000000000E+00 -0.00000000000E+00 -0.24816673728E+03  0.24816673728E+03  0.00000000000E+00 0. -1.
         25    2    1    2    0    0 -0.38438962992E+01 -0.79755872055E+02  0.20902119280E+03  0.25630196165E+03  0.12500024736E+03 0.  0.
          2    1    1    2  501    0  0.20257142141E+02  0.43367274515E+02 -0.22182504488E+03  0.22693043613E+03  0.00000000000E+00 0. -1.
          1    1    1    2  502    0 -0.16413245842E+02  0.36388597540E+02  0.26805248163E+04  0.26808220410E+04  0.00000000000E+00 0. -1.
         22    1    3    3    0    0 -0.48858897941E+02 -0.14453318182E+02  0.26805753593E+02  0.57572899355E+02  0.00000000000E+00 0.  1.
         22    1    3    3    0    0  0.45015001641E+02 -0.65302553873E+02  0.18221543921E+03  0.19872906230E+03  0.00000000000E+00 0.  1.
</event>
<event>
 7    1  0.6510186E-006  0.9470264E+02  0.7818608E-02  0.1410994E+00
          2   -1    0    0  502    0  0.00000000000E+00  0.00000000000E+00  0.27087701571E+04  0.27087701571E+04  0.00000000000E+00 0. -1.
          1   -1    0    0  501    0 -0.00000000000E+00 -0.00000000000E+00 -0.97400758425E+02  0.97400758425E+02  0.00000000000E+00 0. -1.
         25    2    1    2    0    0 -0.11119840606E+03 -0.48767217109E+02  0.93090676352E+03  0.94707733555E+03  0.12499900075E+03 0.  0.
          2    1    1    2  501    0  0.77270029673E+02  0.53624634729E+02 -0.64339150737E+02  0.11395518967E+03  0.00000000000E+00 0. -1.
          1    1    1    2  502    0  0.33928376389E+02 -0.48574176199E+01  0.17448017859E+04  0.17451383903E+04  0.00000000000E+00 0. -1.
         22    1    3    3    0    0 -0.46425834818E+02 -0.31388541098E+02  0.77915048244E+03  0.78116328186E+03  0.00000000000E+00 0. -1.
         22    1    3    3    0    0 -0.64772571243E+02 -0.17378676011E+02  0.15175628108E+03  0.16591405369E+03  0.00000000000E+00 0. -1.
</event>
<event>
 7    1  0.6510186E-006  0.5915282E+02  0.7818608E-02  0.1503353E+00
          2   -1    0    0  502    0  0.00000000000E+00  0.00000000000E+00  0.89579589207E+03  0.89579589207E+03  0.00000000000E+00 0. -1.
          1   -1    0    0  501    0 -0.00000000000E+00 -0.00000000000E+00 -0.60114301482E+03  0.60114301482E+03  0.00000000000E+00 0. -1.
         25    2    1    2    0    0 -0.60141618827E+02 -0.23342377565E+02 -0.62611090947E+02  0.15397254132E+03  0.12500205545E+03 0.  0.
          2    1    1    2  501    0  0.19700980334E+02 -0.19839465561E+02 -0.49142404438E+03  0.49221877698E+03  0.00000000000E+00 0. -1.
          1    1    1    2  502    0  0.40440638493E+02  0.43181843126E+02  0.84868801257E+03  0.85074758860E+03  0.00000000000E+00 0. -1.
         22    1    3    3    0    0 -0.87126386632E+02 -0.51624608081E+02 -0.49657627105E+02  0.11279178754E+03  0.00000000000E+00 0. -1.
         22    1    3    3    0    0  0.26984767805E+02  0.28282230516E+02 -0.12953463843E+02  0.41180753781E+02  0.00000000000E+00 0. -1.
</event>
<event>
 7    1  0.1027854E-005  0.7050606E+02  0.7818608E-02  0.1363024E+00
          2   -1    0    0  502    0  0.00000000000E+00  0.00000000000E+00  0.19242605245E+04  0.19242605245E+04  0.00000000000E+00 0. -1.
          1   -1    0    0  501    0 -0.00000000000E+00 -0.00000000000E+00 -0.27661308303E+04  0.27661308303E+04  0.00000000000E+00 0. -1.
         25    2    1    2    0    0  0.19208381360E+01  0.85076796730E+02 -0.20878162442E+03  0.25779060522E+03  0.12499791392E+03 0.  0.
          2    1    1    2  501    0  0.53658743235E+02 -0.46228187611E+02 -0.25317441959E+04  0.25327346840E+04  0.00000000000E+00 0. -1.
          1    1    1    2  502    0 -0.55579581371E+02 -0.38848609119E+02  0.18986555146E+04  0.18998660656E+04  0.00000000000E+00 0. -1.
         22    1    3    3    0    0  0.52894696194E+02  0.65718164402E+02 -0.73331920393E+02  0.11177788943E+03  0.00000000000E+00 0.  1.
         22    1    3    3    0    0 -0.50973858058E+02  0.19358632328E+02 -0.13544970403E+03  0.14601271579E+03  0.00000000000E+00 0.  1.
</event>
<event>
 7    1  0.6510186E-006  0.1665663E+03  0.7818608E-02  0.1203207E+00
          2   -1    0    0  502    0  0.00000000000E+00  0.00000000000E+00  0.15914707944E+04  0.15914707944E+04  0.00000000000E+00 0. -1.
          1   -1    0    0  501    0 -0.00000000000E+00 -0.00000000000E+00 -0.13975096289E+04  0.13975096289E+04  0.00000000000E+00 0. -1.
         25    2    1    2    0    0 -0.19430962065E+03 -0.49515750381E+02  0.16624913212E+03  0.28891504713E+03  0.12500036926E+03 0.  0.
          2    1    1    2  501    0  0.14966261783E+03 -0.73791795645E+02 -0.13277901204E+04  0.13382341844E+04  0.00000000000E+00 0. -1.
          1    1    1    2  502    0  0.44647002828E+02  0.12330754603E+03  0.13555021538E+04  0.13618311918E+04  0.00000000000E+00 0. -1.
         22    1    3    3    0    0 -0.18547559182E+03 -0.47235163987E+02  0.88908440890E+02  0.21103806941E+03  0.00000000000E+00 0. -1.
         22    1    3    3    0    0 -0.88340288372E+01 -0.22805863935E+01  0.77340691232E+02  0.77876977728E+02  0.00000000000E+00 0. -1.
</event>
<event>
 7    1  0.6510186E-006  0.1069828E+03  0.7818608E-02  0.1287880E+00
          2   -1    0    0  502    0  0.00000000000E+00  0.00000000000E+00  0.35250704219E+04  0.35250704219E+04  0.00000000000E+00 0. -1.
          1   -1    0    0  501    0 -0.00000000000E+00 -0.00000000000E+00 -0.52288389170E+03  0.52288389170E+03  0.00000000000E+00 0. -1.
         25    2    1    2    0    0 -0.17392184465E+02  0.16285878389E+02  0.11524165662E+04  0.11594212686E+04  0.12500407268E+03 0.  0.
          2    1    1    2  501    0  0.10352759363E+03 -0.28564402999E+02 -0.51302053136E+03  0.52414115785E+03  0.00000000000E+00 0. -1.
          1    1    1    2  502    0 -0.86135409163E+02  0.12278524610E+02  0.23627904954E+04  0.23643918871E+04  0.00000000000E+00 0. -1.
         22    1    3    3    0    0  0.21834898041E+02  0.10975968567E+02  0.10391404282E+04  0.10394277581E+04  0.00000000000E+00 0.  1.
         22    1    3    3    0    0 -0.39227082506E+02  0.53099098216E+01  0.11327613798E+03  0.11999351058E+03  0.00000000000E+00 0.  1.
</event>
<event>
 7    1  0.6510186E-006  0.4792955E+02  0.7818608E-02  0.1484994E+00
          2   -1    0    0  502    0  0.00000000000E+00  0.00000000000E+00  0.18622566827E+04  0.18622566827E+04  0.00000000000E+00 0. -1.
          1   -1    0    0  501    0 -0.00000000000E+00 -0.00000000000E+00 -0.13796778757E+03  0.13796778757E+03  0.00000000000E+00 0. -1.
         25    2    1    2    0    0 -0.85548690401E+02  0.14838512944E+02  0.59619912176E+03  0.61531848178E+03  0.12499872535E+03 0.  0.
          2    1    1    2  501    0  0.46864161485E+02 -0.85910936141E+01 -0.12367131932E+03  0.13253170090E+03  0.00000000000E+00 0. -1.
          1    1    1    2  502    0  0.38684528916E+02 -0.62474193296E+01  0.12517610927E+04  0.12523742876E+04  0.00000000000E+00 0. -1.
         22    1    3    3    0    0 -0.11353827075E+03  0.15655376340E+01  0.37067554964E+03  0.38767738254E+03  0.00000000000E+00 0.  1.
         22    1    3    3    0    0  0.27989580351E+02  0.13272975310E+02  0.22552357212E+03  0.22764109924E+03  0.00000000000E+00 0.  1.
</event>
<event>
 7    1  0.6510186E-006  0.3728704E+02  0.7818608E-02  0.1597390E+00
          2   -1    0    0  502    0  0.00000000000E+00  0.00000000000E+00  0.62834440277E+03  0.62834440277E+03  0.00000000000E+00 0. -1.
          1   -1    0    0  501    0 -0.00000000000E+00 -0.00000000000E+00 -0.40720254154E+03  0.40720254154E+03  0.00000000000E+00 0. -1.
         25    2    1    2    0    0  0.44783181038E+01 -0.26967449489E+02  0.15746217236E+03  0.20289489272E+03  0.12499881239E+03 0.  0.
          2    1    1    2  501    0 -0.23551932783E+02 -0.57304763408E+01 -0.38330333205E+03  0.38406897331E+03  0.00000000000E+00 0. -1.
          1    1    1    2  502    0  0.19073614679E+02  0.32697925830E+02  0.44698302092E+03  0.44858307828E+03  0.00000000000E+00 0. -1.
         22    1    3    3    0    0  0.57980493672E+02 -0.66524142040E+01  0.12286357516E+03  0.13602003662E+03  0.00000000000E+00 0. -1.
         22    1    3    3    0    0 -0.53502175568E+02 -0.20315035285E+02  0.34598597199E+02  0.66874856092E+02  0.00000000000E+00 0. -1.
</event>
<event>
 7    1  0.6510186E-006  0.2242674E+03  0.7818608E-02  0.1220515E+00
          2   -1    0    0  502    0  0.00000000000E+00  0.00000000000E+00  0.19437023812E+04  0.19437023812E+04  0.00000000000E+00 0. -1.
          1   -1    0    0  501    0 -0.00000000000E+00 -0.00000000000E+00 -0.40970147909E+04  0.40970147909E+04  0.00000000000E+00 0. -1.
         25    2    1    2    0    0 -0.54420574606E+02 -0.26795779654E+03  0.58012806618E+02  0.30619476465E+03  0.12500707380E+03 0.  0.
          2    1    1    2  501    0 -0.43127047156E+02  0.68579888229E+02 -0.39655166338E+04  0.39663440743E+04  0.00000000000E+00 0. -1.
          1    1    1    2  502    0  0.97547621762E+02  0.19937790831E+03  0.17541914174E+04  0.17681783331E+04  0.00000000000E+00 0. -1.
         22    1    3    3    0    0  0.14628397619E+02  0.75582465833E+01  0.10244810491E+01  0.16497474648E+02  0.00000000000E+00 0.  1.
         22    1    3    3    0    0 -0.69048972226E+02 -0.27551604312E+03  0.56988325569E+02  0.28969729000E+03  0.00000000000E+00 0.  1.
</event>
<event>
 7    1  0.6510186E-006  0.1051976E+03  0.7818608E-02  0.1414135E+00
          2   -1    0    0  502    0  0.00000000000E+00  0.00000000000E+00  0.22249856539E+04  0.22249856539E+04  0.00000000000E+00 0. -1.
          1   -1    0    0  501    0 -0.00000000000E+00 -0.00000000000E+00 -0.47243135900E+02  0.47243135900E+02  0.00000000000E+00 0. -1.
         25    2    1    2    0    0 -0.82368386129E+02  0.44885984373E+02  0.81038095598E+03  0.82531517637E+03  0.12501417485E+03 0.  0.
          2    1    1    2  501    0  0.76212677010E+02 -0.74360723457E+02  0.31959861746E+02  0.11117248802E+03  0.00000000000E+00 0. -1.
          1    1    1    2  502    0  0.61557091193E+01  0.29474739084E+02  0.13354017003E+04  0.13357411254E+04  0.00000000000E+00 0. -1.
         22    1    3    3    0    0  0.25931110628E+02 -0.39843342929E+01  0.30626418912E+03  0.30738583402E+03  0.00000000000E+00 0.  1.
         22    1    3    3    0    0 -0.10829949676E+03  0.48870318666E+02  0.50411676686E+03  0.51792934235E+03  0.00000000000E+00 0.  1.
</event>
<event>
 7    1  0.6510186E-006  0.2067821E+03  0.7818608E-02  0.1261705E+00
          2   -1    0    0  502    0  0.00000000000E+00  0.00000000000E+00  0.65564429609E+03  0.65564429609E+03  0.00000000000E+00 0. -1.
          1   -1    0    0  501    0 -0.00000000000E+00 -0.00000000000E+00 -0.52871889966E+03  0.52871889966E+03  0.00000000000E+00 0. -1.
         25    2    1    2    0    0  0.58281301157E+02  0.16179786613E+03 -0.10920558866E+03  0.23900939024E+03  0.12499747390E+03 0.  0.
          2    1    1    2  501    0 -0.55817851629E+02 -0.21961322433E+03 -0.31674802723E+03  0.38945463614E+03  0.00000000000E+00 0. -1.
          1    1    1    2  502    0 -0.24634495287E+01  0.57815358208E+02  0.55287901233E+03  0.55589916936E+03  0.00000000000E+00 0. -1.
         22    1    3    3    0    0 -0.24149632361E+02  0.22213526886E+02 -0.62036190288E+02  0.70179301973E+02  0.00000000000E+00 0. -1.
         22    1    3    3    0    0  0.82430933518E+02  0.13958433924E+03 -0.47169398375E+02  0.16883008827E+03  0.00000000000E+00 0. -1.
</event>
<event>
 7    1  0.6510186E-006  0.5650289E+02  0.7818608E-02  0.1465606E+00
          2   -1    0    0  502    0  0.00000000000E+00  0.00000000000E+00  0.31111427928E+03  0.31111427928E+03  0.00000000000E+00 0. -1.
          1   -1    0    0  501    0 -0.00000000000E+00 -0.00000000000E+00 -0.45022305510E+03  0.45022305510E+03  0.00000000000E+00 0. -1.
         25    2    1    2    0    0 -0.66299947551E+01 -0.93281918674E+02  0.20142405404E+02  0.15740079808E+03  0.12499528615E+03 0.  0.
          2    1    1    2  501    0  0.75679899018E+01  0.55140497426E+02 -0.37790369503E+03  0.38198030269E+03  0.00000000000E+00 0. -1.
          1    1    1    2  502    0 -0.93799514672E+00  0.38141421248E+02  0.21865251380E+03  0.22195623361E+03  0.00000000000E+00 0. -1.
         22    1    3    3    0    0  0.42642047175E+02 -0.56824446135E+02  0.52266384235E+02  0.88199414890E+02  0.00000000000E+00 0. -1.
         22    1    3    3    0    0 -0.49272041930E+02 -0.36457472539E+02 -0.32123978831E+02  0.69201383193E+02  0.00000000000E+00 0. -1.
</event>
<event>
 7    1  0.6510186E-006  0.1687205E+03  0.7818608E-02  0.1377070E+00
          2   -1    0    0  502    0  0.00000000000E+00  0.00000000000E+00  0.74923494725E+03  0.74923494725E+03  0.00000000000E+00 0. -1.
          1   -1    0    0  501    0 -0.00000000000E+00 -0.00000000000E+00 -0.84804991796E+03  0.84804991796E+03  0.00000000000E+00 0. -1.
         25    2    1    2    0    0 -0.17727550551E+03 -0.49612261835E+02  0.25684653959E+02  0.22399115395E+03  0.12499741687E+03 0.  0.
          2    1    1    2  501    0  0.22055391230E+02 -0.12245727840E+02 -0.73749847767E+03  0.73792980879E+03  0.00000000000E+00 0. -1.
          1    1    1    2  502    0  0.15522011428E+03  0.61857989675E+02  0.61299885301E+03  0.63536390246E+03  0.00000000000E+00 0. -1.
         22    1    3    3    0    0 -0.15133498920E+03 -0.88139626088E+02  0.28610793423E+02  0.17745267015E+03  0.00000000000E+00 0.  1.
         22    1    3    3    0    0 -0.25940516312E+02  0.38527364254E+02 -0.29261394644E+01  0.46538483807E+02  0.00000000000E+00 0.  1.
</event>
<event>
 7    1  0.6510186E-006  0.1120420E+03  0.7818608E-02  0.1344958E+00
          2   -1    0    0  502    0  0.00000000000E+00  0.00000000000E+00  0.18258767668E+04  0.18258767668E+04  0.00000000000E+00 0. -1.
          1   -1    0    0  501    0 -0.00000000000E+00 -0.00000000000E+00 -0.31959461711E+03  0.31959461711E+03  0.00000000000E+00 0. -1.
         25    2    1    2    0    0 -0.14798958365E+02 -0.10341380597E+03  0.56185452461E+02  0.17232446028E+03  0.12500196042E+03 0.  0.
          2    1    1    2  501    0  0.63715597304E+02  0.94416864093E+02 -0.24874140392E+03  0.27358089771E+03  0.00000000000E+00 0. -1.
          1    1    1    2  502    0 -0.48916638939E+02  0.89969418732E+01  0.16988381011E+04  0.16995660259E+04  0.00000000000E+00 0. -1.
         22    1    3    3    0    0 -0.23735770459E+02 -0.75204615530E+02  0.95031727669E+02  0.12349149874E+03  0.00000000000E+00 0.  1.
         22    1    3    3    0    0  0.89368120932E+01 -0.28209190437E+02 -0.38846275208E+02  0.48832961542E+02  0.00000000000E+00 0.  1.
</event>
<event>
 7    1  0.6510186E-006  0.1259718E+03  0.7818608E-02  0.1334668E+00
          2   -1    0    0  502    0  0.00000000000E+00  0.00000000000E+00  0.59329496006E+03  0.59329496006E+03  0.00000000000E+00 0. -1.
          1   -1    0    0  501    0 -0.00000000000E+00 -0.00000000000E+00 -0.67352875701E+03  0.67352875701E+03  0.00000000000E+00 0. -1.
         25    2    1    2    0    0  0.22387038511E+02  0.83600120821E+02 -0.12751113293E+03  0.19842780324E+03  0.12499737750E+03 0.  0.
          2    1    1    2  501    0  0.39054992853E+02  0.28525012103E+02 -0.50205584493E+03  0.50437985706E+03  0.00000000000E+00 0. -1.
          1    1    1    2  502    0 -0.61442031364E+02 -0.11212513292E+03  0.54933318090E+03  0.56401605677E+03  0.00000000000E+00 0. -1.
         22    1    3    3    0    0 -0.44214700583E+02  0.70952790633E+02 -0.79408670124E+02  0.11530383835E+03  0.00000000000E+00 0. -1.
         22    1    3    3    0    0  0.66601739094E+02  0.12647330188E+02 -0.48102462804E+02  0.83123964890E+02  0.00000000000E+00 0. -1.
</event>
<event>
 7    1  0.6510186E-006  0.9855770E+02  0.7818608E-02  0.1329116E+00
          2   -1    0    0  502    0  0.00000000000E+00  0.00000000000E+00  0.22830519579E+04  0.22830519579E+04  0.00000000000E+00 0. -1.
          1   -1    0    0  501    0 -0.00000000000E+00 -0.00000000000E+00 -0.14363135651E+03  0.14363135651E+03  0.00000000000E+00 0. -1.
         25    2    1    2    0    0  0.64693160982E+01 -0.10274707708E+03  0.26747972225E+03  0.31268114084E+03  0.12500112049E+03 0.  0.
          2    1    1    2  501    0 -0.65276341984E+02  0.75293158476E+02 -0.99894436560E+02  0.14109911053E+03  0.00000000000E+00 0. -1.
          1    1    1    2  502    0  0.58807025886E+02  0.27453918605E+02  0.19718353157E+04  0.19729030631E+04  0.00000000000E+00 0. -1.
         22    1    3    3    0    0  0.18686434914E+02 -0.35718706130E+02  0.39707457830E+01  0.40506488857E+02  0.00000000000E+00 0.  1.
         22    1    3    3    0    0 -0.12217118816E+02 -0.67028370951E+02  0.26350897647E+03  0.27217465199E+03  0.00000000000E+00 0.  1.
</event>
<event>
 7    1  0.6510186E-006  0.8159559E+02  0.7818608E-02  0.1465618E+00
          2   -1    0    0  502    0  0.00000000000E+00  0.00000000000E+00  0.89352357797E+03  0.89352357797E+03  0.00000000000E+00 0. -1.
          1   -1    0    0  501    0 -0.00000000000E+00 -0.00000000000E+00 -0.50127931924E+03  0.50127931924E+03  0.00000000000E+00 0. -1.
         25    2    1    2    0    0  0.33518961997E+02  0.84117091723E+02  0.40043925764E+03  0.42915633033E+03  0.12499740347E+03 0.  0.
          2    1    1    2  501    0  0.15980940541E+02 -0.21035854091E+02 -0.48319983640E+03  0.48392146007E+03  0.00000000000E+00 0. -1.
          1    1    1    2  502    0 -0.49499902538E+02 -0.63081237632E+02  0.47500483749E+03  0.48172510681E+03  0.00000000000E+00 0. -1.
         22    1    3    3    0    0  0.70526212703E+02  0.22843076013E+02  0.13259584079E+03  0.15191250704E+03  0.00000000000E+00 0.  1.
         22    1    3    3    0    0 -0.37007250706E+02  0.61274015710E+02  0.26784341685E+03  0.27724382329E+03  0.00000000000E+00 0.  1.
</event>
<event>
 7    1  0.6510186E-006  0.1377298E+03  0.7818608E-02  0.1306484E+00
          2   -1    0    0  502    0  0.00000000000E+00  0.00000000000E+00  0.28271391073E+03  0.28271391073E+03  0.00000000000E+00 0. -1.
          1   -1    0    0  501    0 -0.00000000000E+00 -0.00000000000E+00 -0.29779287758E+03  0.29779287758E+03  0.00000000000E+00 0. -1.
         25    2    1    2    0    0 -0.78586760441E+02  0.11426057953E+03 -0.12828940950E+03  0.22652671160E+03  0.12499927811E+03 0.  0.
          2    1    1    2  501    0  0.52409860162E+02  0.22124508035E+02 -0.90823177602E+02  0.10716873092E+03  0.00000000000E+00 0. -1.
          1    1    1    2  502    0  0.26176900279E+02 -0.13638508756E+03  0.20403362025E+03  0.24681134578E+03  0.00000000000E+00 0. -1.
         22    1    3    3    0    0 -0.33299204647E+02  0.12527611305E+03 -0.12455559452E+03  0.17976940134E+03  0.00000000000E+00 0.  1.
         22    1    3    3    0    0 -0.45287555794E+02 -0.11015533524E+02 -0.37338149826E+01  0.46757310262E+02  0.00000000000E+00 0.  1.
</event>
<event>
 7    1  0.6510186E-006  0.8550799E+02  0.7818608E-02  0.1433679E+00
          2   -1    0    0  502    0  0.00000000000E+00  0.00000000000E+00  0.16275386085E+04  0.16275386085E+04  0.00000000000E+00 0. -1.
          1   -1    0    0  501    0 -0.00000000000E+00 -0.00000000000E+00 -0.22493460263E+03  0.22493460263E+03  0.00000000000E+00 0. -1.
         25    2    1    2    0    0  0.75211892945E+02  0.29862336701E+02  0.14386666603E+03  0.20705351495E+03  0.12499980986E+03 0.  0.
          2    1    1    2  501    0  0.10704879582E+02 -0.30051658900E+02 -0.19074447894E+03  0.19339377677E+03  0.00000000000E+00 0. -1.
          1    1    1    2  502    0 -0.85916772527E+02  0.18932219893E+00  0.14494818188E+04  0.14520259195E+04  0.00000000000E+00 0. -1.
         22    1    3    3    0    0  0.44718558258E+02  0.75614452540E+02  0.11571346948E+03  0.14528214586E+03  0.00000000000E+00 0. -1.
         22    1    3    3    0    0  0.30493334686E+02 -0.45752115839E+02  0.28153196551E+02  0.61771369097E+02  0.00000000000E+00 0. -1.
</event>
<event>
 7    1  0.6510186E-006  0.6641911E+03  0.7818608E-02  0.1103427E+00
          2   -1    0    0  502    0  0.00000000000E+00  0.00000000000E+00  0.19023133591E+04  0.19023133591E+04  0.00000000000E+00 0. -1.
          1   -1    0    0  501    0 -0.00000000000E+00 -0.00000000000E+00 -0.12111438218E+04  0.12111438218E+04  0.00000000000E+00 0. -1.
         25    2    1    2    0    0 -0.36622442430E+03  0.64054286776E+03  0.20977337889E+03  0.77720389604E+03  0.12500212456E+03 0.  0.
          2    1    1    2  501    0  0.35256627110E+01 -0.10669686668E+03 -0.84999755095E+03  0.85667525251E+03  0.00000000000E+00 0. -1.
          1    1    1    2  502    0  0.36269876159E+03 -0.53384600108E+03  0.13313937093E+04  0.14795780323E+04  0.00000000000E+00 0. -1.
         22    1    3    3    0    0  0.44460131624E+01  0.39791236974E+02  0.26106940994E+02  0.47798346635E+02  0.00000000000E+00 0. -1.
         22    1    3    3    0    0 -0.37067043746E+03  0.60075163078E+03  0.18366643790E+03  0.72940554941E+03  0.00000000000E+00 0. -1.
</event>
<event>
 7    1  0.6510186E-006  0.7236510E+02  0.7818608E-02  0.1395536E+00
          2   -1    0    0  502    0  0.00000000000E+00  0.00000000000E+00  0.71722370491E+03  0.71722370491E+03  0.00000000000E+00 0. -1.
          1   -1    0    0  501    0 -0.00000000000E+00 -0.00000000000E+00 -0.19677952678E+03  0.19677952678E+03  0.00000000000E+00 0. -1.
         25    2    1    2    0    0  0.91573236558E+02 -0.54565957889E+02  0.14727300439E+03  0.22063137974E+03  0.12500306592E+03 0.  0.
          2    1    1    2  501    0 -0.70762817344E+02  0.83722349383E+01 -0.15088910365E+03  0.16686818821E+03  0.00000000000E+00 0. -1.
          1    1    1    2  502    0 -0.20810419213E+02  0.46193722951E+02  0.52406027740E+03  0.52650366374E+03  0.00000000000E+00 0. -1.
         22    1    3    3    0    0 -0.21134134099E+02  0.16323112433E+02  0.46597946291E+02  0.53707208289E+02  0.00000000000E+00 0. -1.
         22    1    3    3    0    0  0.11270737066E+03 -0.70889070322E+02  0.10067505809E+03  0.16692417145E+03  0.00000000000E+00 0. -1.
</event>
<event>
 7    1  0.6510186E-006  0.1995920E+03  0.7818608E-02  0.1242865E+00
          2   -1    0    0  502    0  0.00000000000E+00  0.00000000000E+00  0.23437386135E+03  0.23437386135E+03  0.00000000000E+00 0. -1.
          1   -1    0    0  501    0 -0.00000000000E+00 -0.00000000000E+00 -0.52449909676E+03  0.52449909676E+03  0.00000000000E+00 0. -1.
         25    2    1    2    0    0  0.53623850997E+02 -0.18031748345E+03 -0.22671725254E+02  0.22700066054E+03  0.12500152210E+03 0.  0.
          2    1    1    2  501    0 -0.12397167887E+03  0.16355767896E+03 -0.36001860260E+03  0.41440739101E+03  0.00000000000E+00 0. -1.
          1    1    1    2  502    0  0.70347827869E+02  0.16759804494E+02  0.92565092442E+02  0.11746490655E+03  0.00000000000E+00 0. -1.
         22    1    3    3    0    0  0.30398409896E+02  0.98675134396E+00  0.23544408985E+02  0.38462659774E+02  0.00000000000E+00 0. -1.
         22    1    3    3    0    0  0.23225441101E+02 -0.18130423480E+03 -0.46216134239E+02  0.18853800077E+03  0.00000000000E+00 0. -1.
</event>
<event>
 7    1  0.6510186E-006  0.2754623E+03  0.7818608E-02  0.1178547E+00
          2   -1    0    0  502    0  0.00000000000E+00  0.00000000000E+00  0.14218993963E+04  0.14218993963E+04  0.00000000000E+00 0. -1.
          1   -1    0    0  501    0 -0.00000000000E+00 -0.00000000000E+00 -0.97262739563E+03  0.97262739563E+03  0.00000000000E+00 0. -1.
         25    2    1    2    0    0 -0.30393700047E+03  0.55895873668E+02 -0.37558242440E+03  0.50218442326E+03  0.12499995402E+03 0.  0.
          2    1    1    2  501    0  0.26065611421E+03  0.38770570127E+02 -0.49904893196E+03  0.56435326124E+03  0.00000000000E+00 0. -1.
          1    1    1    2  502    0  0.43280886263E+02 -0.94666443795E+02  0.13239033571E+04  0.13279891075E+04  0.00000000000E+00 0. -1.
         22    1    3    3    0    0 -0.11467557058E+03  0.25933582045E+02 -0.57584828814E+02  0.13091619333E+03  0.00000000000E+00 0.  1.
         22    1    3    3    0    0 -0.18926142989E+03  0.29962291623E+02 -0.31799759558E+03  0.37126822994E+03  0.00000000000E+00 0.  1.
</event>
<event>
 7    1  0.6510186E-006  0.3107352E+03  0.7818608E-02  0.1168633E+00
          2   -1    0    0  502    0  0.00000000000E+00  0.00000000000E+00  0.57512020159E+03  0.57512020159E+03  0.00000000000E+00 0. -1.
          1   -1    0    0  501    0 -0.00000000000E+00 -0.00000000000E+00 -0.67176062806E+03  0.67176062806E+03  0.00000000000E+00 0. -1.
         25    2    1    2    0    0  0.27722512759E+03 -0.26083720692E+03 -0.96622027521E+02  0.41213741742E+03  0.12502645622E+03 0.  0.
          2    1    1    2  501    0 -0.27928409044E+02  0.99433486709E+02 -0.35626989589E+03  0.37093834127E+03  0.00000000000E+00 0. -1.
          1    1    1    2  502    0 -0.24929671854E+03  0.16140372021E+03  0.35625149694E+03  0.46380507096E+03  0.00000000000E+00 0. -1.
         22    1    3    3    0    0  0.17732768652E+03 -0.85395381369E+02 -0.67973262558E+02  0.20822546432E+03  0.00000000000E+00 0. -1.
         22    1    3    3    0    0  0.99897441065E+02 -0.17544182555E+03 -0.28648764963E+02  0.20391195310E+03  0.00000000000E+00 0. -1.
</event>
<event>
 7    1  0.7787499E-006  0.1225580E+03  0.7818608E-02  0.1312984E+00
          2   -1    0    0  502    0  0.00000000000E+00  0.00000000000E+00  0.15769954014E+04  0.15769954014E+04  0.00000000000E+00 0. -1.
          1   -1    0    0  501    0 -0.00000000000E+00 -0.00000000000E+00 -0.12942615399E+04  0.12942615399E+04  0.00000000000E+00 0. -1.
         25    2    1    2    0    0 -0.14640358024E+03 -0.49967892648E+02 -0.86399277491E+03  0.88658876494E+03  0.12500129765E+03 0.  0.
          2    1    1    2  501    0  0.24019739512E+02  0.55273710812E+02 -0.41439160255E+03  0.41875115673E+03  0.00000000000E+00 0. -1.
          1    1    1    2  502    0  0.12238384073E+03 -0.53058181640E+01  0.15611182390E+04  0.15659170197E+04  0.00000000000E+00 0. -1.
         22    1    3    3    0    0 -0.12126448202E+03 -0.59637377393E+02 -0.83910254513E+03  0.84991456784E+03  0.00000000000E+00 0.  1.
         22    1    3    3    0    0 -0.25139098216E+02  0.96694847446E+01 -0.24890229785E+02  0.36674197102E+02  0.00000000000E+00 0.  1.
</event>
<event>
 7    1  0.6510186E-006  0.1132744E+03  0.7818608E-02  0.1393581E+00
          2   -1    0    0  502    0  0.00000000000E+00  0.00000000000E+00  0.37349588544E+03  0.37349588544E+03  0.00000000000E+00 0. -1.
          1   -1    0    0  501    0 -0.00000000000E+00 -0.00000000000E+00 -0.74710352021E+03  0.74710352021E+03  0.00000000000E+00 0. -1.
         25    2    1    2    0    0  0.13918126937E+03  0.11379435578E+02  0.94500560611E+02  0.20989498219E+03  0.12499852116E+03 0.  0.
          2    1    1    2  501    0 -0.32764718292E+02  0.27034827704E+01 -0.67596597142E+03  0.67676497405E+03  0.00000000000E+00 0. -1.
          1    1    1    2  502    0 -0.10641655108E+03 -0.14082918348E+02  0.20785777603E+03  0.23393944941E+03  0.00000000000E+00 0. -1.
         22    1    3    3    0    0  0.48102427102E+02 -0.53794750805E+02  0.18345040783E+02  0.74459782626E+02  0.00000000000E+00 0.  1.
         22    1    3    3    0    0  0.91078842269E+02  0.65174186383E+02  0.76155519827E+02  0.13543519956E+03  0.00000000000E+00 0.  1.
</event>
<event>
 7    1  0.6510186E-006  0.8183703E+02  0.7818608E-02  0.1390835E+00
          2   -1    0    0  502    0  0.00000000000E+00  0.00000000000E+00  0.12312903069E+04  0.12312903069E+04  0.00000000000E+00 0. -1.
          1   -1    0    0  501    0 -0.00000000000E+00 -0.00000000000E+00 -0.12146945810E+04  0.12146945810E+04  0.00000000000E+00 0. -1.
         25    2    1    2    0    0  0.75658493241E+02  0.96466841576E+02  0.54443439579E+03  0.57189483713E+03  0.12499933716E+03 0.  0.
          2    1    1    2  501    0 -0.34997144292E+02 -0.73872210042E+02 -0.11987671541E+04  0.12015509116E+04  0.00000000000E+00 0. -1.
          1    1    1    2  502    0 -0.40661348949E+02 -0.22594631535E+02  0.67092848427E+03  0.67253913914E+03  0.00000000000E+00 0. -1.
         22    1    3    3    0    0  0.24688381446E+02  0.18122575944E+02  0.39125691243E+03  0.39245371123E+03  0.00000000000E+00 0. -1.
         22    1    3    3    0    0  0.50970111794E+02  0.78344265632E+02  0.15317748337E+03  0.17944112590E+03  0.00000000000E+00 0. -1.
</event>
<event>
 7    1  0.6510186E-006  0.7451831E+02  0.7818608E-02  0.1454487E+00
          2   -1    0    0  502    0  0.00000000000E+00  0.00000000000E+00  0.38574458556E+03  0.38574458556E+03  0.00000000000E+00 0. -1.
          1   -1    0    0  501    0 -0.00000000000E+00 -0.00000000000E+00 -0.13733385963E+03  0.13733385963E+03  0.00000000000E+00 0. -1.
         25    2    1    2    0    0  0.52442321133E+02  0.81051774917E+02  0.74584954904E+02  0.17465875299E+03  0.12499270873E+03 0.  0.
          2    1    1    2  501    0 -0.23896050749E+02 -0.68062366981E+02 -0.71223230578E+02  0.10137186796E+03  0.00000000000E+00 0. -1.
          1    1    1    2  502    0 -0.28546270384E+02 -0.12989407936E+02  0.24504900160E+03  0.24704782423E+03  0.00000000000E+00 0. -1.
         22    1    3    3    0    0  0.75016432335E+02  0.92639444297E+02  0.85845548355E+02  0.14689788948E+03  0.00000000000E+00 0. -1.
         22    1    3    3    0    0 -0.22574111203E+02 -0.11587669380E+02 -0.11260593451E+02  0.27760863515E+02  0.00000000000E+00 0. -1.
</event>
<event>
 7    1  0.6510186E-006  0.5662056E+02  0.7818608E-02  0.1499717E+00
          2   -1    0    0  502    0  0.00000000000E+00  0.00000000000E+00  0.12824145693E+04  0.12824145693E+04  0.00000000000E+00 0. -1.
          1   -1    0    0  501    0 -0.00000000000E+00 -0.00000000000E+00 -0.15715521966E+03  0.15715521966E+03  0.00000000000E+00 0. -1.
         25    2    1    2    0    0  0.71605624142E+02 -0.34536655814E+01  0.22675829282E+02  0.14587501563E+03  0.12500413488E+03 0.  0.
          2    1    1    2  501    0 -0.20877484956E+02 -0.21470240915E+02 -0.92524846460E+02  0.97250644396E+02  0.00000000000E+00 0. -1.
          1    1    1    2  502    0 -0.50728139185E+02  0.24923906496E+02  0.11951083668E+04  0.11964441289E+04  0.00000000000E+00 0. -1.
         22    1    3    3    0    0 -0.35379459551E+02  0.23670951739E+01 -0.33488628297E+01  0.35616347089E+02  0.00000000000E+00 0. -1.
         22    1    3    3    0    0  0.10698508369E+03 -0.58207607553E+01  0.26024692112E+02  0.11025866854E+03  0.00000000000E+00 0. -1.
</event>
<event>
 7    1  0.6510186E-006  0.7759882E+02  0.7818608E-02  0.1376666E+00
          2   -1    0    0  502    0  0.00000000000E+00  0.00000000000E+00  0.40873600554E+03  0.40873600554E+03  0.00000000000E+00 0. -1.
          1   -1    0    0  501    0 -0.00000000000E+00 -0.00000000000E+00 -0.26554002226E+04  0.26554002226E+04  0.00000000000E+00 0. -1.
         25    2    1    2    0    0  0.12466682589E+03  0.38770061906E+02  0.10647565554E+03  0.20977776361E+03  0.12499883882E+03 0.  0.
          2    1    1    2  501    0 -0.76430639203E+02 -0.12278871469E+02 -0.26001450247E+04  0.26012970924E+04  0.00000000000E+00 0. -1.
          1    1    1    2  502    0 -0.48236186691E+02 -0.26491190437E+02  0.24700515214E+03  0.25306137213E+03  0.00000000000E+00 0. -1.
         22    1    3    3    0    0 -0.22801428098E+02 -0.32310955742E+01  0.31704005779E+02  0.39185317203E+02  0.00000000000E+00 0. -1.
         22    1    3    3    0    0  0.14746825399E+03  0.42001157480E+02  0.74771649758E+02  0.17059244641E+03  0.00000000000E+00 0. -1.
</event>
<event>
 7    1  0.6510186E-006  0.2806954E+02  0.7818608E-02  0.1626762E+00
          2   -1    0    0  502    0  0.00000000000E+00  0.00000000000E+00  0.80831521650E+03  0.80831521650E+03  0.00000000000E+00 0. -1.
          1   -1    0    0  501    0 -0.00000000000E+00 -0.00000000000E+00 -0.19426558070E+03  0.19426558070E+03  0.00000000000E+00 0. -1.
         25    2    1    2    0    0 -0.50772245444E+02  0.19123573378E+02 -0.15514377683E+03  0.20649025295E+03  0.12500040443E+03 0.  0.
          2    1    1    2  501    0  0.23237487499E+02 -0.13858334055E+02  0.67864116776E+00  0.27064641174E+02  0.00000000000E+00 0. -1.
          1    1    1    2  502    0  0.27534757945E+02 -0.52652393228E+01  0.76851477147E+03  0.76902590308E+03  0.00000000000E+00 0. -1.
         22    1    3    3    0    0 -0.59692313737E+02  0.42917903207E+02 -0.16388279979E+03  0.17961818060E+03  0.00000000000E+00 0. -1.
         22    1    3    3    0    0  0.89200682932E+01 -0.23794329829E+02  0.87390229529E+01  0.26872072353E+02  0.00000000000E+00 0. -1.
</event>
<event>
 7    1  0.6510186E-006  0.3862855E+03  0.7818608E-02  0.1190832E+00
          2   -1    0    0  502    0  0.00000000000E+00  0.00000000000E+00  0.30691064981E+04  0.30691064981E+04  0.00000000000E+00 0. -1.
          1   -1    0    0  501    0 -0.00000000000E+00 -0.00000000000E+00 -0.12728880973E+04  0.12728880973E+04  0.00000000000E+00 0. -1.
         25    2    1    2    0    0  0.66394315094E+02 -0.33470578629E+03  0.39062040040E+03  0.53352183768E+03  0.12500034251E+03 0.  0.
          2    1    1    2  501    0  0.46666118867E+02 -0.44853662480E+02 -0.11855086002E+04  0.11872742813E+04  0.00000000000E+00 0. -1.
          1    1    1    2  502    0 -0.11306043396E+03  0.37955944877E+03  0.25911066007E+04  0.26211984764E+04  0.00000000000E+00 0. -1.
         22    1    3    3    0    0  0.46166393534E+02 -0.16201952550E+03  0.28207388068E+03  0.32855340007E+03  0.00000000000E+00 0.  1.
         22    1    3    3    0    0  0.20227921561E+02 -0.17268626079E+03  0.10854651972E+03  0.20496843762E+03  0.00000000000E+00 0.  1.
</event>
<event>
 7    1  0.6510186E-006  0.8479988E+02  0.7818608E-02  0.1324333E+00
          2   -1    0    0  502    0  0.00000000000E+00  0.00000000000E+00  0.95605472840E+03  0.95605472840E+03  0.00000000000E+00 0. -1.
          1   -1    0    0  501    0 -0.00000000000E+00 -0.00000000000E+00 -0.62173768998E+02  0.62173768998E+02  0.00000000000E+00 0. -1.
         25    2    1    2    0    0 -0.21068736390E+01 -0.14592378933E+02  0.15119252856E+03  0.19672909114E+03  0.12500311264E+03 0.  0.
          2    1    1    2  501    0  0.82697486965E+02 -0.18765556264E+02  0.12024768566E+02  0.85648207869E+02  0.00000000000E+00 0. -1.
          1    1    1    2  502    0 -0.80590613326E+02  0.33357935197E+02  0.73066366227E+03  0.73585119838E+03  0.00000000000E+00 0. -1.
         22    1    3    3    0    0 -0.39941972610E+02 -0.70500794226E+01 -0.13664921861E+00  0.40559628559E+02  0.00000000000E+00 0. -1.
         22    1    3    3    0    0  0.37835098971E+02 -0.75422995107E+01  0.15132917778E+03  0.15616946258E+03  0.00000000000E+00 0. -1.
</event>
<event>
 7    1  0.7510845E-006  0.6724045E+02  0.7818608E-02  0.1392149E+00
          2   -1    0    0  502    0  0.00000000000E+00  0.00000000000E+00  0.54253923213E+03  0.54253923213E+03  0.00000000000E+00 0. -1.
          1   -1    0    0  501    0 -0.00000000000E+00 -0.00000000000E+00 -0.13806415140E+04  0.13806415140E+04  0.00000000000E+00 0. -1.
         25    2    1    2    0    0 -0.22851017652E+01  0.63207933077E+02 -0.11676682312E+03  0.18237172283E+03  0.12499795923E+03 0.  0.
          2    1    1    2  501    0 -0.51462190077E+02 -0.22137503588E+02 -0.12281868497E+04  0.12294638522E+04  0.00000000000E+00 0. -1.
          1    1    1    2  502    0  0.53747291843E+02 -0.41070429488E+02  0.50685139093E+03  0.51134517113E+03  0.00000000000E+00 0. -1.
         22    1    3    3    0    0  0.16987727417E+02  0.12056994155E+02 -0.12532497370E+03  0.12704449230E+03  0.00000000000E+00 0. -1.
         22    1    3    3    0    0 -0.19272829182E+02  0.51150938921E+02  0.85581505743E+01  0.55327230533E+02  0.00000000000E+00 0. -1.
</event>
<event>
 7    1  0.6510186E-006  0.7155363E+02  0.7818608E-02  0.1423322E+00
          2   -1    0    0  502    0  0.00000000000E+00  0.00000000000E+00  0.41131161567E+03  0.41131161567E+03  0.00000000000E+00 0. -1.
          1   -1    0    0  501    0 -0.00000000000E+00 -0.00000000000E+00 -0.93564497986E+02  0.93564497986E+02  0.00000000000E+00 0. -1.
         25    2    1    2    0    0  0.48116708831E+02  0.76049275393E+02  0.72862513921E+02  0.17037425201E+03  0.12497891764E+03 0.  0.
          2    1    1    2  501    0  0.12257644308E+02 -0.39379715034E+02 -0.29798256993E+02  0.50881705160E+02  0.00000000000E+00 0. -1.
          1    1    1    2  502    0 -0.60374353139E+02 -0.36669560360E+02  0.27468286076E+03  0.28362015649E+03  0.00000000000E+00 0. -1.
         22    1    3    3    0    0  0.31199694271E+02  0.11017817171E+03  0.64314079414E+02  0.13133526280E+03  0.00000000000E+00 0.  1.
         22    1    3    3    0    0  0.16917014560E+02 -0.34128896318E+02  0.85484345061E+01  0.39038989204E+02  0.00000000000E+00 0.  1.
</event>
<event>
 7    1  0.6510186E-006  0.5738290E+02  0.7818608E-02  0.1500877E+00
          2   -1    0    0  502    0  0.00000000000E+00  0.00000000000E+00  0.98436513105E+03  0.98436513105E+03  0.00000000000E+00 0. -1.
          1   -1    0    0  501    0 -0.00000000000E+00 -0.00000000000E+00 -0.18163056250E+02  0.18163056250E+02  0.00000000000E+00 0. -1.
         25    2    1    2    0    0  0.48803939563E+02 -0.51452020641E+02  0.55729613177E+03  0.57552855423E+03  0.12500001320E+03 0.  0.
          2    1    1    2  501    0 -0.51317930626E+02  0.22245165471E+02  0.84886212345E+02  0.10165651202E+03  0.00000000000E+00 0. -1.
          1    1    1    2  502    0  0.25139910629E+01  0.29206855171E+02  0.32401973068E+03  0.32534312105E+03  0.00000000000E+00 0. -1.
         22    1    3    3    0    0  0.25645744525E+02 -0.82291891499E+02  0.22405488718E+03  0.24006301691E+03  0.00000000000E+00 0.  1.
         22    1    3    3    0    0  0.23158195038E+02  0.30839870858E+02  0.33324124459E+03  0.33546553732E+03  0.00000000000E+00 0.  1.
</event>
<event>
 7    1  0.6510186E-006  0.4970160E+02  0.7818608E-02  0.1454232E+00
          2   -1    0    0  502    0  0.00000000000E+00  0.00000000000E+00  0.95299605998E+03  0.95299605998E+03  0.00000000000E+00 0. -1.
          1   -1    0    0  501    0 -0.00000000000E+00 -0.00000000000E+00 -0.10507432074E+04  0.10507432074E+04  0.00000000000E+00 0. -1.
         25    2    1    2    0    0  0.65059596519E+02  0.33332596411E+02  0.65403372457E+02  0.15888344145E+03  0.12499013464E+03 0.  0.
          2    1    1    2  501    0 -0.19585278406E+02 -0.45640057848E+02 -0.10027282332E+04  0.10039574232E+04  0.00000000000E+00 0. -1.
          1    1    1    2  502    0 -0.45474318114E+02  0.12307461437E+02  0.83957771324E+03  0.84089840277E+03  0.00000000000E+00 0. -1.
         22    1    3    3    0    0  0.20066107813E+02  0.76478570413E+02  0.19409780398E+02  0.81414740620E+02  0.00000000000E+00 0. -1.
         22    1    3    3    0    0  0.44993488706E+02 -0.43145974002E+02  0.45993592059E+02  0.77468700835E+02  0.00000000000E+00 0. -1.
</event>
<event>
 7    1  0.6510186E-006  0.8459141E+02  0.7818608E-02  0.1472637E+00
          2   -1    0    0  502    0  0.00000000000E+00  0.00000000000E+00  0.27821482441E+04  0.27821482441E+04  0.00000000000E+00 0. -1.
          1   -1    0    0  501    0 -0.00000000000E+00 -0.00000000000E+00 -0.26814561526E+03  0.26814561526E+03  0.00000000000E+00 0. -1.
         25    2    1    2    0    0 -0.53226860804E+02  0.35573404361E+02 -0.13626905239E+03  0.19568520146E+03  0.12499951048E+03 0.  0.
          2    1    1    2  501    0 -0.24197000553E+02 -0.12871219750E+01 -0.10007096023E+03  0.10296285058E+03  0.00000000000E+00 0. -1.
          1    1    1    2  502    0  0.77423861357E+02 -0.34286282386E+02  0.27503426414E+04  0.27516458073E+04  0.00000000000E+00 0. -1.
         22    1    3    3    0    0 -0.54415415024E+02 -0.30730084426E+02 -0.10541032357E+03  0.12254269377E+03  0.00000000000E+00 0.  1.
         22    1    3    3    0    0  0.11885542199E+01  0.66303488787E+02 -0.30858728823E+02  0.73142507689E+02  0.00000000000E+00 0.  1.
</event>
<event>
 7    1  0.6510186E-006  0.1426629E+03  0.7818608E-02  0.1231931E+00
          2   -1    0    0  502    0  0.00000000000E+00  0.00000000000E+00  0.11290094100E+04  0.11290094100E+04  0.00000000000E+00 0. -1.
          1   -1    0    0  501    0 -0.00000000000E+00 -0.00000000000E+00 -0.10241103708E+03  0.10241103708E+03  0.00000000000E+00 0. -1.
         25    2    1    2    0    0 -0.72547185788E+02  0.14775717803E+03  0.44229071316E+03  0.48820111563E+03  0.12499590605E+03 0.  0.
          2    1    1    2  501    0  0.11286374895E+03 -0.74432173230E+01 -0.25694320264E+02  0.11599062637E+03  0.00000000000E+00 0. -1.
          1    1    1    2  502    0 -0.40316563164E+02 -0.14031396071E+03  0.61000198004E+03  0.62722870508E+03  0.00000000000E+00 0. -1.
         22    1    3    3    0    0 -0.10465794693E+03  0.13759282258E+03  0.37643460525E+03  0.41423191899E+03  0.00000000000E+00 0. -1.
         22    1    3    3    0    0  0.32110761140E+02  0.10164355454E+02  0.65856107912E+02  0.73969196644E+02  0.00000000000E+00 0. -1.
</event>
<event>
 7    1  0.6510186E-006  0.8871519E+02  0.7818608E-02  0.1308032E+00
          2   -1    0    0  502    0  0.00000000000E+00  0.00000000000E+00  0.10095264348E+03  0.10095264348E+03  0.00000000000E+00 0. -1.
          1   -1    0    0  501    0 -0.00000000000E+00 -0.00000000000E+00 -0.52036001306E+03  0.52036001306E+03  0.00000000000E+00 0. -1.
         25    2    1    2    0    0 -0.65111293522E+02  0.32485443555E+02 -0.91725504164E+02  0.17127003139E+03  0.12500028380E+03 0.  0.
          2    1    1    2  501    0  0.55199042848E+02  0.69451066722E+02 -0.33578361543E+03  0.34730537196E+03  0.00000000000E+00 0. -1.
          1    1    1    2  502    0  0.99122506742E+01 -0.10193651028E+03  0.81017500123E+01  0.10273725320E+03  0.00000000000E+00 0. -1.
         22    1    3    3    0    0 -0.39765702973E+02 -0.27871673216E+02  0.10687142648E+02  0.49722794761E+02  0.00000000000E+00 0.  1.
         22    1    3    3    0    0 -0.25345590548E+02  0.60357116771E+02 -0.10241264681E+03  0.12154723663E+03  0.00000000000E+00 0.  1.
</event>
<event>
 7    1  0.6510186E-006  0.4222569E+02  0.7818608E-02  0.1594530E+00
          2   -1    0    0  502    0  0.00000000000E+00  0.00000000000E+00  0.40459249903E+03  0.40459249903E+03  0.00000000000E+00 0. -1.
          1   -1    0    0  501    0 -0.00000000000E+00 -0.00000000000E+00 -0.87904788258E+03  0.87904788258E+03  0.00000000000E+00 0. -1.
         25    2    1    2    0    0  0.47927221717E+02 -0.94703870974E+01  0.45821595786E+02  0.14181292189E+03  0.12499831743E+03 0.  0.
          2    1    1    2  501    0 -0.33457550791E+02  0.25745794049E+02 -0.83013365569E+03  0.83120643640E+03  0.00000000000E+00 0. -1.
          1    1    1    2  502    0 -0.14469670926E+02 -0.16275406952E+02  0.30985667635E+03  0.31062102332E+03  0.00000000000E+00 0. -1.
         22    1    3    3    0    0  0.48839262402E+02 -0.36509090885E+01 -0.35367270039E+02  0.60410648723E+02  0.00000000000E+00 0.  1.
         22    1    3    3    0    0 -0.91204068544E+00 -0.58194780089E+01  0.81188865825E+02  0.81402273166E+02  0.00000000000E+00 0.  1.
</event>
<event>
 7    1  0.6510186E-006  0.7739027E+02  0.7818608E-02  0.1391773E+00
          2   -1    0    0  502    0  0.00000000000E+00  0.00000000000E+00  0.21929563862E+03  0.21929563862E+03  0.00000000000E+00 0. -1.
          1   -1    0    0  501    0 -0.00000000000E+00 -0.00000000000E+00 -0.24319996757E+03  0.24319996757E+03  0.00000000000E+00 0. -1.
         25    2    1    2    0    0 -0.51118972484E+02 -0.10650252891E+03 -0.74584252314E+02  0.18745923673E+03  0.12498886642E+03 0.  0.
          2    1    1    2  501    0  0.31660192375E+02  0.61726536935E+02 -0.97137061267E+02  0.11936558053E+03  0.00000000000E+00 0. -1.
          1    1    1    2  502    0  0.19458780109E+02  0.44775991978E+02  0.14781698463E+03  0.15567078893E+03  0.00000000000E+00 0. -1.
         22    1    3    3    0    0 -0.17715592836E+01 -0.12062149606E+03 -0.50978035821E+02  0.13096352114E+03  0.00000000000E+00 0.  1.
         22    1    3    3    0    0 -0.49347413201E+02  0.14118967142E+02 -0.23606216493E+02  0.56495715589E+02  0.00000000000E+00 0.  1.
</event>
<event>
 7    1  0.6510186E-006  0.1238683E+03  0.7818608E-02  0.1273548E+00
          2   -1    0    0  502    0  0.00000000000E+00  0.00000000000E+00  0.19704654597E+04  0.19704654597E+04  0.00000000000E+00 0. -1.
          1   -1    0    0  501    0 -0.00000000000E+00 -0.00000000000E+00 -0.44516076976E+03  0.44516076976E+03  0.00000000000E+00 0. -1.
         25    2    1    2    0    0  0.17978636213E+03 -0.10444080507E+03  0.72667984963E+03  0.76610712609E+03  0.12500202800E+03 0.  0.
          2    1    1    2  501    0 -0.11107914431E+03  0.52531026480E+02 -0.41501773935E+03  0.43282537936E+03  0.00000000000E+00 0. -1.
          1    1    1    2  502    0 -0.68707217818E+02  0.51909778592E+02  0.12136425797E+04  0.12166937241E+04  0.00000000000E+00 0. -1.
         22    1    3    3    0    0  0.11382118105E+03 -0.11194899962E+03  0.62189534200E+03  0.64206047703E+03  0.00000000000E+00 0. -1.
         22    1    3    3    0    0  0.65965181083E+02  0.75081945456E+01  0.10478450764E+03  0.12404664905E+03  0.00000000000E+00 0. -1.
</event>
<event>
 7    1  0.6510186E-006  0.9079541E+02  0.7818608E-02  0.1478592E+00
          2   -1    0    0  502    0  0.00000000000E+00  0.00000000000E+00  0.13516168805E+04  0.13516168805E+04  0.00000000000E+00 0. -1.
          1   -1    0    0  501    0 -0.00000000000E+00 -0.00000000000E+00 -0.12156370693E+04  0.12156370693E+04  0.00000000000E+00 0. -1.
         25    2    1    2    0    0 -0.53520184448E+02 -0.89394593894E+02  0.12386992348E+04  0.12493430221E+04  0.12500555620E+03 0.  0.
          2    1    1    2  501    0  0.59468766642E+02  0.68588157397E+02 -0.12075058114E+04  0.12109133553E+04  0.00000000000E+00 0. -1.
          1    1    1    2  502    0 -0.59485821940E+01  0.20806436497E+02  0.10478638777E+03  0.10699757236E+03  0.00000000000E+00 0. -1.
         22    1    3    3    0    0  0.15279794629E+02 -0.19153509532E+02  0.42097386671E+02  0.48708510712E+02  0.00000000000E+00 0. -1.
         22    1    3    3    0    0 -0.68799979076E+02 -0.70241084362E+02  0.11966018481E+04  0.12006345114E+04  0.00000000000E+00 0. -1.
</event>
<event>
 7    1  0.6510186E-006  0.2652888E+02  0.7818608E-02  0.1667380E+00
          2   -1    0    0  502    0  0.00000000000E+00  0.00000000000E+00  0.80710562898E+03  0.80710562898E+03  0.00000000000E+00 0. -1.
          1   -1    0    0  501    0 -0.00000000000E+00 -0.00000000000E+00 -0.38350194911E+03  0.38350194911E+03  0.00000000000E+00 0. -1.
         25    2    1    2    0    0 -0.35430905518E+02  0.24381742794E+02 -0.14054855101E+02  0.13293873201E+03  0.12500139626E+03 0.  0.
          2    1    1    2  501    0  0.91827702374E+01 -0.20803712047E+02 -0.30935303169E+03  0.31018771078E+03  0.00000000000E+00 0. -1.
          1    1    1    2  502    0  0.26248135281E+02 -0.35780307465E+01  0.74701156666E+03  0.74748113531E+03  0.00000000000E+00 0. -1.
         22    1    3    3    0    0 -0.62082956969E+02 -0.21362796273E+02 -0.36858450177E+02  0.75294142933E+02  0.00000000000E+00 0. -1.
         22    1    3    3    0    0  0.26652051451E+02  0.45744539066E+02  0.22803595076E+02  0.57644589072E+02  0.00000000000E+00 0. -1.
</event>
<event>
 7    1  0.6510186E-006  0.9455820E+02  0.7818608E-02  0.1409565E+00
          2   -1    0    0  502    0  0.00000000000E+00  0.00000000000E+00  0.26271653699E+03  0.26271653699E+03  0.00000000000E+00 0. -1.
          1   -1    0    0  501    0 -0.00000000000E+00 -0.00000000000E+00 -0.58639892903E+03  0.58639892903E+03  0.00000000000E+00 0. -1.
         25    2    1    2    0    0 -0.33060909558E+02  0.76947352212E+02 -0.35260931736E+03  0.38336827073E+03  0.12499592616E+03 0.  0.
          2    1    1    2  501    0  0.29704213405E+02  0.17959445880E+02 -0.20780151681E+03  0.21068068819E+03  0.00000000000E+00 0. -1.
          1    1    1    2  502    0  0.33566961529E+01 -0.94906798092E+02  0.23672844213E+03  0.25506650710E+03  0.00000000000E+00 0. -1.
         22    1    3    3    0    0 -0.67830312348E+02  0.70402967508E+02 -0.32223434061E+03  0.33673802781E+03  0.00000000000E+00 0. -1.
         22    1    3    3    0    0  0.34769402791E+02  0.65443847032E+01 -0.30374976756E+02  0.46630242917E+02  0.00000000000E+00 0. -1.
</event>
<event>
 7    1  0.6510186E-006  0.1549487E+03  0.7818608E-02  0.1210113E+00
          2   -1    0    0  502    0  0.00000000000E+00  0.00000000000E+00  0.65928830383E+03  0.65928830383E+03  0.00000000000E+00 0. -1.
          1   -1    0    0  501    0 -0.00000000000E+00 -0.00000000000E+00 -0.71384554095E+03  0.71384554095E+03  0.00000000000E+00 0. -1.
         25    2    1    2    0    0  0.15539692782E+03  0.11540553486E+03 -0.30788225306E+03  0.38455631150E+03  0.12500172925E+03 0.  0.
          2    1    1    2  501    0 -0.29202980243E+02 -0.15018402595E+03 -0.34431149931E+03  0.37677375739E+03  0.00000000000E+00 0. -1.
          1    1    1    2  502    0 -0.12619394758E+03  0.34778491091E+02  0.59763651524E+03  0.61180377589E+03  0.00000000000E+00 0. -1.
         22    1    3    3    0    0 -0.63084280787E+00  0.19653667448E+02  0.65404129677E+01  0.20722972967E+02  0.00000000000E+00 0.  1.
         22    1    3    3    0    0  0.15602777063E+03  0.95751867410E+02 -0.31442266602E+03  0.36383333853E+03  0.00000000000E+00 0.  1.
</event>
<event>
 7    1  0.6510186E-006  0.9811249E+02  0.7818608E-02  0.1320182E+00
          2   -1    0    0  502    0  0.00000000000E+00  0.00000000000E+00  0.27523058105E+04  0.27523058105E+04  0.00000000000E+00 0. -1.
          1   -1    0    0  501    0 -0.00000000000E+00 -0.00000000000E+00 -0.92407778261E+03  0.92407778261E+03  0.00000000000E+00 0. -1.
         25    2    1    2    0    0 -0.22726831592E+02  0.25638513779E+02  0.12210325495E+03  0.17806718928E+03  0.12499950706E+03 0.  0.
          2    1    1    2  501    0  0.24928699511E+02 -0.96174705789E+02 -0.89286148384E+03  0.89837221875E+03  0.00000000000E+00 0. -1.
          1    1    1    2  502    0 -0.22018679197E+01  0.70536192010E+02  0.25989862568E+04  0.25999441851E+04  0.00000000000E+00 0. -1.
         22    1    3    3    0    0 -0.34629717812E+02  0.33708303042E+02 -0.64117112560E+01  0.48750149651E+02  0.00000000000E+00 0. -1.
         22    1    3    3    0    0  0.11902886221E+02 -0.80697892630E+01  0.12851496620E+03  0.12931703963E+03  0.00000000000E+00 0. -1.
</event>
<event>
 7    1  0.6510186E-006  0.4666034E+02  0.7818608E-02  0.1502956E+00
          2   -1    0    0  502    0  0.00000000000E+00  0.00000000000E+00  0.29697674530E+03  0.29697674530E+03  0.00000000000E+00 0. -1.
          1   -1    0    0  501    0 -0.00000000000E+00 -0.00000000000E+00 -0.42670284084E+03  0.42670284084E+03  0.00000000000E+00 0. -1.
         25    2    1    2    0    0 -0.27275928213E+02  0.10997796959E+02 -0.28694900255E+03  0.31437366409E+03  0.12500457115E+03 0.  0.
          2    1    1    2  501    0  0.55460511682E+02  0.10654425228E+02 -0.11851712448E+03  0.13128478178E+03  0.00000000000E+00 0. -1.
          1    1    1    2  502    0 -0.28184583469E+02 -0.21652222187E+02  0.27574003149E+03  0.27802114027E+03  0.00000000000E+00 0. -1.
         22    1    3    3    0    0  0.37559917867E+02  0.25962077509E+02 -0.19853700891E+03  0.20371971139E+03  0.00000000000E+00 0.  1.
         22    1    3    3    0    0 -0.64835846080E+02 -0.14964280550E+02 -0.88411993638E+02  0.11065395270E+03  0.00000000000E+00 0.  1.
</event>
<event>
 7    1  0.6510186E-006  0.1308763E+03  0.7818608E-02  0.1255358E+00
          2   -1    0    0  502    0  0.00000000000E+00  0.00000000000E+00  0.31109262726E+03  0.31109262726E+03  0.00000000000E+00 0. -1.
          1   -1    0    0  501    0 -0.00000000000E+00 -0.00000000000E+00 -0.19153113994E+04  0.19153113994E+04  0.00000000000E+00 0. -1.
         25    2    1    2    0    0  0.89332227286E+02  0.87214967184E+02 -0.36814772128E+03  0.40834333306E+03  0.12499934255E+03 0.  0.
          2    1    1    2  501    0 -0.53109054643E+01 -0.13634063574E+03 -0.15157765321E+04  0.15219052106E+04  0.00000000000E+00 0. -1.
          1    1    1    2  502    0 -0.84021321822E+02  0.49125668552E+02  0.27970548130E+03  0.29615548298E+03  0.00000000000E+00 0. -1.
         22    1    3    3    0    0  0.95729666007E+02  0.11381071912E+03 -0.32227061677E+03  0.35493013280E+03  0.00000000000E+00 0. -1.
         22    1    3    3    0    0 -0.63974387216E+01 -0.26595751934E+02 -0.45877104508E+02  0.53413200252E+02  0.00000000000E+00 0. -1.
</event>
<event>
 7    1  0.6510186E-006  0.1206043E+03  0.7818608E-02  0.1270110E+00
          2   -1    0    0  502    0  0.00000000000E+00  0.00000000000E+00  0.12348573675E+04  0.12348573675E+04  0.00000000000E+00 0. -1.
          1   -1    0    0  501    0 -0.00000000000E+00 -0.00000000000E+00 -0.86234800505E+02  0.86234800505E+02  0.00000000000E+00 0. -1.
         25    2    1    2    0    0 -0.55679134618E+02 -0.84440376559E+01  0.66942914381E+03  0.68332472882E+03  0.12500335447E+03 0.  0.
          2    1    1    2  501    0 -0.87892630057E+02 -0.82584972842E+02 -0.88850978998E+01  0.12093112553E+03  0.00000000000E+00 0. -1.
          1    1    1    2  502    0  0.14357176468E+03  0.91029010498E+02  0.48807852104E+03  0.51683631361E+03  0.00000000000E+00 0. -1.
         22    1    3    3    0    0 -0.61507682748E+02 -0.41025637224E+02  0.20871628898E+03  0.22142445040E+03  0.00000000000E+00 0.  1.
         22    1    3    3    0    0  0.58285481304E+01  0.32581599568E+02  0.46071285483E+03  0.46190027842E+03  0.00000000000E+00 0.  1.
</event>
<event>
 7    1  0.6510186E-006  0.9433047E+02  0.7818608E-02  0.1327323E+00
          2   -1    0    0  502    0  0.00000000000E+00  0.00000000000E+00  0.50472809591E+03  0.50472809591E+03  0.00000000000E+00 0. -1.
          1   -1    0    0  501    0 -0.00000000000E+00 -0.00000000000E+00 -0.16543143929E+04  0.16543143929E+04  0.00000000000E+00 0. -1.
         25    2    1    2    0    0 -0.78807130634E+02 -0.12021017341E+03  0.38410799601E+02  0.19432621809E+03  0.12500495944E+03 0.  0.
          2    1    1    2  501    0  0.78608000944E+02  0.51321466870E+02 -0.15718902402E+04  0.15746910929E+04  0.00000000000E+00 0. -1.
          1    1    1    2  502    0  0.19912968914E+00  0.68888706537E+02  0.38389314367E+03  0.39002517777E+03  0.00000000000E+00 0. -1.
         22    1    3    3    0    0 -0.10342063602E+03 -0.49846984465E+02  0.12858473389E+02  0.11552441367E+03  0.00000000000E+00 0. -1.
         22    1    3    3    0    0  0.24613505391E+02 -0.70363188942E+02  0.25552326213E+02  0.78801804425E+02  0.00000000000E+00 0. -1.
</event>
<event>
 7    1  0.6510186E-006  0.1608643E+03  0.7818608E-02  0.1375084E+00
          2   -1    0    0  502    0  0.00000000000E+00  0.00000000000E+00  0.73284577994E+03  0.73284577994E+03  0.00000000000E+00 0. -1.
          1   -1    0    0  501    0 -0.00000000000E+00 -0.00000000000E+00 -0.17037797697E+04  0.17037797697E+04  0.00000000000E+00 0. -1.
         25    2    1    2    0    0 -0.11676221545E+03  0.98234125220E+02 -0.21491982651E+02  0.19844724291E+03  0.12504417054E+03 0.  0.
          2    1    1    2  501    0  0.13861281006E+03 -0.82555773871E+02 -0.15894442147E+04  0.15976113040E+04  0.00000000000E+00 0. -1.
          1    1    1    2  502    0 -0.21850594609E+02 -0.15678351349E+02  0.64000220763E+03  0.64056700271E+03  0.00000000000E+00 0. -1.
         22    1    3    3    0    0 -0.27518039742E+02  0.71655383485E+02 -0.60255560654E+02  0.97583139339E+02  0.00000000000E+00 0. -1.
         22    1    3    3    0    0 -0.89244175707E+02  0.26578741735E+02  0.38763578002E+02  0.10086410357E+03  0.00000000000E+00 0. -1.
</event>
<event>
 7    1  0.6510186E-006  0.6516038E+02  0.7818608E-02  0.1521287E+00
          2   -1    0    0  502    0  0.00000000000E+00  0.00000000000E+00  0.57163649440E+03  0.57163649440E+03  0.00000000000E+00 0. -1.
          1   -1    0    0  501    0 -0.00000000000E+00 -0.00000000000E+00 -0.11134372206E+04  0.11134372206E+04  0.00000000000E+00 0. -1.
         25    2    1    2    0    0  0.26455410583E+02 -0.39006221410E+02 -0.22519197585E+03  0.26183462672E+03  0.12499828680E+03 0.  0.
          2    1    1    2  501    0  0.21959481944E+02 -0.48329553108E+01 -0.86785037948E+03  0.86814161142E+03  0.00000000000E+00 0. -1.
          1    1    1    2  502    0 -0.48414892526E+02  0.43839176721E+02  0.55124162909E+03  0.55509747692E+03  0.00000000000E+00 0. -1.
         22    1    3    3    0    0 -0.39383066602E+02  0.11335480358E+02 -0.33285855563E+02  0.52796469868E+02  0.00000000000E+00 0.  1.
         22    1    3    3    0    0  0.65838477185E+02 -0.50341701768E+02 -0.19190612029E+03  0.20903815685E+03  0.00000000000E+00 0.  1.
</event>
<event>
 7    1  0.8866268E-006  0.1462429E+03  0.7818608E-02  0.1296774E+00
          2   -1    0    0  502    0  0.00000000000E+00  0.00000000000E+00  0.20972815691E+04  0.20972815691E+04  0.00000000000E+00 0. -1.
          1   -1    0    0  501    0 -0.00000000000E+00 -0.00000000000E+00 -0.13765746241E+04  0.13765746241E+04  0.00000000000E+00 0. -1.
         25    2    1    2    0    0  0.87716878744E+02  0.53998683534E+02 -0.18179237442E+03  0.24348169219E+03  0.12499903358E+03 0.  0.
          2    1    1    2  501    0 -0.14601367865E+03 -0.48245426733E+02 -0.11584403620E+04  0.11686024508E+04  0.00000000000E+00 0. -1.
          1    1    1    2  502    0  0.58296799902E+02 -0.57532568006E+01  0.20609396814E+04  0.20617720503E+04  0.00000000000E+00 0. -1.
         22    1    3    3    0    0 -0.75573124551E+01  0.65290321382E+02 -0.81303423271E+02  0.10454752830E+03  0.00000000000E+00 0.  1.
         22    1    3    3    0    0  0.95274191199E+02 -0.11291637848E+02 -0.10048895115E+03  0.13893416390E+03  0.00000000000E+00 0.  1.
</event>
<event>
 7    1  0.6510186E-006  0.5033050E+02  0.7818608E-02  0.1461621E+00
          2   -1    0    0  502    0  0.00000000000E+00  0.00000000000E+00  0.14578182963E+04  0.14578182963E+04  0.00000000000E+00 0. -1.
          1   -1    0    0  501    0 -0.00000000000E+00 -0.00000000000E+00 -0.14826750660E+03  0.14826750660E+03  0.00000000000E+00 0. -1.
         25    2    1    2    0    0 -0.23007794332E+02 -0.42497008402E+02 -0.32119443708E+02  0.13782098210E+03  0.12501044004E+03 0.  0.
          2    1    1    2  501    0  0.43952682770E+02 -0.33929450503E+01 -0.55110910115E+02  0.70573102614E+02  0.00000000000E+00 0. -1.
          1    1    1    2  502    0 -0.20944888438E+02  0.45889953452E+02  0.13967811435E+04  0.13976917182E+04  0.00000000000E+00 0. -1.
         22    1    3    3    0    0 -0.69078491230E+02  0.27900683581E+01 -0.21122764169E+02  0.72289650699E+02  0.00000000000E+00 0.  1.
         22    1    3    3    0    0  0.46070696897E+02 -0.45287076760E+02 -0.10996679540E+02  0.65531331399E+02  0.00000000000E+00 0.  1.
</event>
<event>
 7    1  0.6510186E-006  0.1114995E+03  0.7818608E-02  0.1322440E+00
          2   -1    0    0  502    0  0.00000000000E+00  0.00000000000E+00  0.34245712321E+03  0.34245712321E+03  0.00000000000E+00 0. -1.
          1   -1    0    0  501    0 -0.00000000000E+00 -0.00000000000E+00 -0.82937643355E+03  0.82937643355E+03  0.00000000000E+00 0. -1.
         25    2    1    2    0    0  0.81202125725E+02 -0.62197115069E+02  0.40340846662E+02  0.16647703357E+03  0.12499980981E+03 0.  0.
          2    1    1    2  501    0 -0.38600735579E+02  0.10566011190E+03 -0.75821670348E+03  0.76651591338E+03  0.00000000000E+00 0. -1.
          1    1    1    2  502    0 -0.42601390146E+02 -0.43462996828E+02  0.23095654648E+03  0.23884060981E+03  0.00000000000E+00 0. -1.
         22    1    3    3    0    0  0.39320848177E+02 -0.35052691025E+02  0.84673630161E+02  0.99721832585E+02  0.00000000000E+00 0.  1.
         22    1    3    3    0    0  0.41881277548E+02 -0.27144424044E+02 -0.44332783499E+02  0.66755200984E+02  0.00000000000E+00 0.  1.
</event>
<event>
 7    1  0.6510186E-006  0.1531436E+03  0.7818608E-02  0.1264949E+00
          2   -1    0    0  502    0  0.00000000000E+00  0.00000000000E+00  0.21627487142E+04  0.21627487142E+04  0.00000000000E+00 0. -1.
          1   -1    0    0  501    0 -0.00000000000E+00 -0.00000000000E+00 -0.15203722372E+03  0.15203722372E+03  0.00000000000E+00 0. -1.
         25    2    1    2    0    0  0.83877886530E+02 -0.23445662916E+02  0.10777669606E+04  0.10884812522E+04  0.12499846402E+03 0.  0.
          2    1    1    2  501    0 -0.13316631043E+03  0.80897759592E+02 -0.10352804249E+03  0.18707156204E+03  0.00000000000E+00 0. -1.
          1    1    1    2  502    0  0.49288423905E+02 -0.57452096676E+02  0.10364725723E+04  0.10392331237E+04  0.00000000000E+00 0. -1.
         22    1    3    3    0    0  0.69661946208E+02  0.37153909244E+02  0.39048541163E+03  0.39838681758E+03  0.00000000000E+00 0.  1.
         22    1    3    3    0    0  0.14215940322E+02 -0.60599572160E+02  0.68728154898E+03  0.69009443460E+03  0.00000000000E+00 0.  1.
</event>
<event>
 7    1  0.6510186E-006  0.9442734E+02  0.7818608E-02  0.1403387E+00
          2   -1    0    0  502    0  0.00000000000E+00  0.00000000000E+00  0.10137115181E+04  0.10137115181E+04  0.00000000000E+00 0. -1.
          1   -1    0    0  501    0 -0.00000000000E+00 -0.00000000000E+00 -0.98016453127E+02  0.98016453127E+02  0.00000000000E+00 0. -1.
         25    2    1    2    0    0 -0.10726034728E+03 -0.54494358164E+02  0.34796811286E+03  0.38881952449E+03  0.12499759151E+03 0.  0.
          2    1    1    2  501    0  0.19757425161E+02  0.30672818455E+02 -0.69908285311E+02  0.78856489879E+02  0.00000000000E+00 0. -1.
          1    1    1    2  502    0  0.87502922120E+02  0.23821539709E+02  0.63763523740E+03  0.64405195684E+03  0.00000000000E+00 0. -1.
         22    1    3    3    0    0 -0.30728686540E+02 -0.35811605333E+01  0.21697498622E+01  0.31012653896E+02  0.00000000000E+00 0.  1.
         22    1    3    3    0    0 -0.76531660740E+02 -0.50913197631E+02  0.34579836300E+03  0.35780687059E+03  0.00000000000E+00 0.  1.
</event>
<event>
 7    1  0.6510186E-006  0.5594189E+02  0.7818608E-02  0.1485131E+00
          2   -1    0    0  502    0  0.00000000000E+00  0.00000000000E+00  0.13801365686E+04  0.13801365686E+04  0.00000000000E+00 0. -1.
          1   -1    0    0  501    0 -0.00000000000E+00 -0.00000000000E+00 -0.17557212031E+02  0.17557212031E+02  0.00000000000E+00 0. -1.
         25    2    1    2    0    0 -0.40405922105E+02 -0.34872513145E+02  0.58367607139E+03  0.59929246414E+03  0.12499988222E+03 0.  0.
          2    1    1    2  501    0  0.26259839284E+02 -0.20866872771E+02  0.23837670662E+02  0.41148998543E+02  0.00000000000E+00 0. -1.
          1    1    1    2  502    0  0.14146082821E+02  0.55739385917E+02  0.75506561456E+03  0.75725231798E+03  0.00000000000E+00 0. -1.
         22    1    3    3    0    0  0.14255592506E+02  0.29588339781E+02  0.33583184109E+03  0.33743401912E+03  0.00000000000E+00 0. -1.
         22    1    3    3    0    0 -0.54661514611E+02 -0.64460852926E+02  0.24784423030E+03  0.26185844503E+03  0.00000000000E+00 0. -1.
</event>
<event>
 7    1  0.6510186E-006  0.5780967E+02  0.7818608E-02  0.1468412E+00
          2   -1    0    0  502    0  0.00000000000E+00  0.00000000000E+00  0.34427611684E+03  0.34427611684E+03  0.00000000000E+00 0. -1.
          1   -1    0    0  501    0 -0.00000000000E+00 -0.00000000000E+00 -0.27112012727E+03  0.27112012727E+03  0.00000000000E+00 0. -1.
         25    2    1    2    0    0 -0.61044172462E+01  0.20835869634E+02  0.26634801599E+03  0.29502202485E+03  0.12500132860E+03 0.  0.
          2    1    1    2  501    0  0.17923775615E+02 -0.55417415618E+02 -0.24786248222E+03  0.25461375018E+03  0.00000000000E+00 0. -1.
          1    1    1    2  502    0 -0.11819358369E+02  0.34581545983E+02  0.54670455811E+02  0.65760469079E+02  0.00000000000E+00 0. -1.
         22    1    3    3    0    0  0.52524831459E+02 -0.18863273165E+02  0.12680385888E+03  0.13854205001E+03  0.00000000000E+00 0. -1.
         22    1    3    3    0    0 -0.58629248705E+02  0.39699142800E+02  0.13954415711E+03  0.15647997484E+03  0.00000000000E+00 0. -1.
</event>
<event>
 7    1  0.6510186E-006  0.1479169E+03  0.7818608E-02  0.1313441E+00
          2   -1    0    0  502    0  0.00000000000E+00  0.00000000000E+00  0.21653559406E+04  0.21653559406E+04  0.00000000000E+00 0. -1.
          1   -1    0    0  501    0 -0.00000000000E+00 -0.00000000000E+00 -0.52204399245E+03  0.52204399245E+03  0.00000000000E+00 0. -1.
         25    2    1    2    0    0 -0.16476061366E+03  0.70794968026E+02 -0.79479756992E+02  0.23259494664E+03  0.12500156046E+03 0.  0.
          2    1    1    2  501    0  0.11645817696E+03 -0.82622605738E+02 -0.35177065809E+03  0.37964667502E+03  0.00000000000E+00 0. -1.
          1    1    1    2  502    0  0.48302436699E+02  0.11827637711E+02  0.20745623632E+04  0.20751583114E+04  0.00000000000E+00 0. -1.
         22    1    3    3    0    0 -0.36940900384E+02  0.24817024928E+02 -0.85752439263E+02  0.96612606253E+02  0.00000000000E+00 0.  1.
         22    1    3    3    0    0 -0.12781971327E+03  0.45977943098E+02  0.62726822711E+01  0.13598234038E+03  0.00000000000E+00 0.  1.
</event>
<event>
 7    1  0.6510186E-006  0.7163138E+02  0.7818608E-02  0.1375401E+00
          2   -1    0    0  502    0  0.00000000000E+00  0.00000000000E+00  0.52157677245E+03  0.52157677245E+03  0.00000000000E+00 0. -1.
          1   -1    0    0  501    0 -0.00000000000E+00 -0.00000000000E+00 -0.15049632627E+04  0.15049632627E+04  0.00000000000E+00 0. -1.
         25    2    1    2    0    0 -0.20241787989E+02 -0.90273604118E+02  0.48302328567E+02  0.16283707995E+03  0.12499498422E+03 0.  0.
          2    1    1    2  501    0 -0.33605050625E+02  0.63270749861E+02 -0.14446229305E+04  0.14463982503E+04  0.00000000000E+00 0. -1.
          1    1    1    2  502    0  0.53846838614E+02  0.27002854257E+02  0.41293411166E+03  0.41730470491E+03  0.00000000000E+00 0. -1.
         22    1    3    3    0    0  0.46692776597E+01 -0.11772353660E+03  0.42867485622E+02  0.12537246327E+03  0.00000000000E+00 0.  1.
         22    1    3    3    0    0 -0.24911065648E+02  0.27449932480E+02  0.54348429449E+01  0.37464616677E+02  0.00000000000E+00 0.  1.
</event>
<event>
 7    1  0.6510186E-006  0.9916807E+02  0.7818608E-02  0.1304008E+00
          2   -1    0    0  502    0  0.00000000000E+00  0.00000000000E+00  0.71741911233E+03  0.71741911233E+03  0.00000000000E+00 0. -1.
          1   -1    0    0  501    0 -0.00000000000E+00 -0.00000000000E+00 -0.81856761095E+03  0.81856761095E+03  0.00000000000E+00 0. -1.
         25    2    1    2    0    0  0.57890555786E+02  0.84309584522E+02  0.29721960581E+03  0.33826645444E+03  0.12500111053E+03 0.  0.
          2    1    1    2  501    0  0.46790975973E+02 -0.65895116834E+02 -0.78887645975E+03  0.79300544172E+03  0.00000000000E+00 0. -1.
          1    1    1    2  502    0 -0.10468153176E+03 -0.18414467688E+02  0.39050835532E+03  0.40471482712E+03  0.00000000000E+00 0. -1.
         22    1    3    3    0    0  0.78501369207E+01  0.10160422370E+03  0.14601314467E+03  0.17805864579E+03  0.00000000000E+00 0. -1.
         22    1    3    3    0    0  0.50040418865E+02 -0.17294639177E+02  0.15120646114E+03  0.16020780865E+03  0.00000000000E+00 0. -1.
</event>
<event>
 7    1  0.6510186E-006  0.1510157E+03  0.7818608E-02  0.1391722E+00
          2   -1    0    0  502    0  0.00000000000E+00  0.00000000000E+00  0.11022740158E+04  0.11022740158E+04  0.00000000000E+00 0. -1.
          1   -1    0    0  501    0 -0.00000000000E+00 -0.00000000000E+00 -0.24209873356E+03  0.24209873356E+03  0.00000000000E+00 0. -1.
         25    2    1    2    0    0  0.55354514461E+02 -0.16311570509E+03  0.49701604585E+03  0.54066706728E+03  0.12500028913E+03 0.  0.
          2    1    1    2  501    0 -0.58179602106E+02  0.13824622408E+03 -0.19442696277E+03  0.24555799402E+03  0.00000000000E+00 0. -1.
          1    1    1    2  502    0  0.28250876453E+01  0.24869481010E+02  0.55758619917E+03  0.55814768808E+03  0.00000000000E+00 0. -1.
         22    1    3    3    0    0  0.25071080140E+01 -0.96277622466E+02  0.40051676028E+03  0.41193366146E+03  0.00000000000E+00 0.  1.
         22    1    3    3    0    0  0.52847406447E+02 -0.66838082623E+02  0.96499285576E+02  0.12873340582E+03  0.00000000000E+00 0.  1.
</event>
<event>
 7    1  0.6510186E-006  0.1586850E+03  0.7818608E-02  0.1384198E+00
          2   -1    0    0  502    0  0.00000000000E+00  0.00000000000E+00  0.88975696062E+02  0.88975696062E+02  0.00000000000E+00 0. -1.
          1   -1    0    0  501    0 -0.00000000000E+00 -0.00000000000E+00 -0.11157379902E+04  0.11157379902E+04  0.00000000000E+00 0. -1.
         25    2    1    2    0    0 -0.11495208793E+03  0.83734532539E+02 -0.24072143790E+03  0.30625259423E+03  0.12497354261E+03 0.  0.
          2    1    1    2  501    0  0.12168486080E+03 -0.10813147648E+03 -0.83103966811E+03  0.84683324895E+03  0.00000000000E+00 0. -1.
          1    1    1    2  502    0 -0.67327728684E+01  0.24396943937E+02  0.44998811909E+02  0.51627843042E+02  0.00000000000E+00 0. -1.
         22    1    3    3    0    0  0.14361477576E+02  0.28231099845E+02 -0.54958911762E+01  0.32147346025E+02  0.00000000000E+00 0.  1.
         22    1    3    3    0    0 -0.12931356551E+03  0.55503432694E+02 -0.23522554672E+03  0.27410524821E+03  0.00000000000E+00 0.  1.
</event>
<event>
 7    1  0.6510186E-006  0.7989861E+02  0.7818608E-02  0.1436922E+00
          2   -1    0    0  502    0  0.00000000000E+00  0.00000000000E+00  0.11280769272E+04  0.11280769272E+04  0.00000000000E+00 0. -1.
          1   -1    0    0  501    0 -0.00000000000E+00 -0.00000000000E+00 -0.31464689485E+03  0.31464689485E+03  0.00000000000E+00 0. -1.
         25    2    1    2    0    0  0.35145103271E+02 -0.33704119927E+02  0.51050310819E+02  0.14353884044E+03  0.12500447391E+03 0.  0.
          2    1    1    2  501    0 -0.61438286721E+02  0.54167878354E+02 -0.26187659522E+03  0.27438690428E+03  0.00000000000E+00 0. -1.
          1    1    1    2  502    0  0.26293183450E+02 -0.20463758427E+02  0.10242563167E+04  0.10247980773E+04  0.00000000000E+00 0. -1.
         22    1    3    3    0    0 -0.37169893732E+02 -0.43320584448E+02  0.50703044417E+01  0.57306038287E+02  0.00000000000E+00 0.  1.
         22    1    3    3    0    0  0.72314997003E+02  0.96164645208E+01  0.45980006378E+02  0.86232802158E+02  0.00000000000E+00 0.  1.
</event>
<event>
 7    1  0.1079020E-005  0.9291595E+02  0.7818608E-02  0.1333555E+00
          2   -1    0    0  502    0  0.00000000000E+00  0.00000000000E+00  0.26822636439E+04  0.26822636439E+04  0.00000000000E+00 0. -1.
          1   -1    0    0  501    0 -0.00000000000E+00 -0.00000000000E+00 -0.14145445933E+04  0.14145445933E+04  0.00000000000E+00 0. -1.
         25    2    1    2    0    0 -0.58057280477E+02  0.19120236189E+02 -0.10958805628E+03  0.17711494833E+03  0.12499572631E+03 0.  0.
          2    1    1    2  501    0  0.86338820405E+02  0.40744597879E+02 -0.12689859294E+04  0.12725721210E+04  0.00000000000E+00 0. -1.
          1    1    1    2  502    0 -0.28281539927E+02 -0.59864834067E+02  0.26462930362E+04  0.26471211679E+04  0.00000000000E+00 0. -1.
         22    1    3    3    0    0 -0.74837751822E+02  0.56505954127E+02 -0.95342862777E+02  0.13373060021E+03  0.00000000000E+00 0. -1.
         22    1    3    3    0    0  0.16780471344E+02 -0.37385717938E+02 -0.14245193500E+02  0.43384348124E+02  0.00000000000E+00 0. -1.
</event>
<event>
 7    1  0.6510186E-006  0.3607586E+02  0.7818608E-02  0.1540969E+00
          2   -1    0    0  502    0  0.00000000000E+00  0.00000000000E+00  0.21140663615E+04  0.21140663615E+04  0.00000000000E+00 0. -1.
          1   -1    0    0  501    0 -0.00000000000E+00 -0.00000000000E+00 -0.11272287914E+04  0.11272287914E+04  0.00000000000E+00 0. -1.
         25    2    1    2    0    0  0.64175647386E+02 -0.31432282993E+02  0.19783796952E+03  0.24468543260E+03  0.12499838644E+03 0.  0.
          2    1    1    2  501    0 -0.30948709433E+02  0.18446615254E+02 -0.11033428918E+04  0.11039309929E+04  0.00000000000E+00 0. -1.
          1    1    1    2  502    0 -0.33226937953E+02  0.12985667738E+02  0.18923424923E+04  0.18926787274E+04  0.00000000000E+00 0. -1.
         22    1    3    3    0    0  0.62639889382E+02  0.38721796500E+02  0.10724541479E+03  0.13009501243E+03  0.00000000000E+00 0. -1.
         22    1    3    3    0    0  0.15357580035E+01 -0.70154079493E+02  0.90592554732E+02  0.11459042017E+03  0.00000000000E+00 0. -1.
</event>
<event>
 7    1  0.6510186E-006  0.1003496E+03  0.7818608E-02  0.1400017E+00
          2   -1    0    0  502    0  0.00000000000E+00  0.00000000000E+00  0.15261975421E+03  0.15261975421E+03  0.00000000000E+00 0. -1.
          1   -1    0    0  501    0 -0.00000000000E+00 -0.00000000000E+00 -0.85878491595E+03  0.85878491595E+03  0.00000000000E+00 0. -1.
         25    2    1    2    0    0  0.67327571872E+02 -0.79978403685E+02  0.28022424997E+02  0.16534785007E+03  0.12500043292E+03 0.  0.
          2    1    1    2  501    0 -0.86751627520E+02  0.50553145722E+02 -0.78101346087E+03  0.78744110350E+03  0.00000000000E+00 0. -1.
          1    1    1    2  502    0  0.19424055648E+02  0.29425257963E+02  0.46825874125E+02  0.58615716592E+02  0.00000000000E+00 0. -1.
         22    1    3    3    0    0  0.90351656892E+02 -0.61401493180E+02 -0.17923389734E+02  0.11070145964E+03  0.00000000000E+00 0. -1.
         22    1    3    3    0    0 -0.23024085021E+02 -0.18576910505E+02  0.45945814731E+02  0.54646390423E+02  0.00000000000E+00 0. -1.
</event>
<event>
 7    1  0.6510186E-006  0.1303334E+03  0.7818608E-02  0.1320843E+00
          2   -1    0    0  502    0  0.00000000000E+00  0.00000000000E+00  0.16715964667E+04  0.16715964667E+04  0.00000000000E+00 0. -1.
          1   -1    0    0  501    0 -0.00000000000E+00 -0.00000000000E+00 -0.16471270463E+03  0.16471270463E+03  0.00000000000E+00 0. -1.
         25    2    1    2    0    0  0.48744137032E+02  0.17300134115E+03 -0.26734885886E+02  0.22055538932E+03  0.12499788278E+03 0.  0.
          2    1    1    2  501    0 -0.11528981628E+01 -0.52799208432E+02 -0.20217049958E+02  0.56549223640E+02  0.00000000000E+00 0. -1.
          1    1    1    2  502    0 -0.47591238869E+02 -0.12020213272E+03  0.15538356979E+04  0.15592045583E+04  0.00000000000E+00 0. -1.
         22    1    3    3    0    0 -0.28289993283E+02  0.68407275547E+02  0.28601487384E+02  0.79359461618E+02  0.00000000000E+00 0.  1.
         22    1    3    3    0    0  0.77034130315E+02  0.10459406560E+03 -0.55336373270E+02  0.14119592770E+03  0.00000000000E+00 0.  1.
</event>
<event>
 7    1  0.6510186E-006  0.6506071E+02  0.7818608E-02  0.1450387E+00
          2   -1    0    0  502    0  0.00000000000E+00  0.00000000000E+00  0.48191246223E+02  0.48191246223E+02  0.00000000000E+00 0. -1.
          1   -1    0    0  501    0 -0.00000000000E+00 -0.00000000000E+00 -0.10217054346E+04  0.10217054346E+04  0.00000000000E+00 0. -1.
         25    2    1    2    0    0 -0.10018714296E+03  0.10621406263E+02 -0.11317011747E+03  0.19642707829E+03  0.12500337480E+03 0.  0.
          2    1    1    2  501    0  0.63171577449E+02 -0.10083759841E+02 -0.80083229177E+03  0.80338327711E+03  0.00000000000E+00 0. -1.
          1    1    1    2  502    0  0.37015565514E+02 -0.53764642236E+00 -0.59511779120E+02  0.70086325400E+02  0.00000000000E+00 0. -1.
         22    1    3    3    0    0 -0.97996032375E+02 -0.42616815480E+02 -0.68853218099E+02  0.12712270043E+03  0.00000000000E+00 0. -1.
         22    1    3    3    0    0 -0.21911105873E+01  0.53238221743E+02 -0.44316899366E+02  0.69304377851E+02  0.00000000000E+00 0. -1.
</event>
<event>
 7    1  0.6510186E-006  0.3483466E+03  0.7818608E-02  0.1105758E+00
          2   -1    0    0  502    0  0.00000000000E+00  0.00000000000E+00  0.85141869238E+03  0.85141869238E+03  0.00000000000E+00 0. -1.
          1   -1    0    0  501    0 -0.00000000000E+00 -0.00000000000E+00 -0.22337358130E+04  0.22337358130E+04  0.00000000000E+00 0. -1.
         25    2    1    2    0    0  0.25917539568E+03  0.18645011634E+03 -0.35639823574E+03  0.49455068542E+03  0.12500058561E+03 0.  0.
          2    1    1    2  501    0  0.96377764629E+02 -0.17242934900E+03 -0.17619946593E+04  0.17730329194E+04  0.00000000000E+00 0. -1.
          1    1    1    2  502    0 -0.35555316031E+03 -0.14020767342E+02  0.73607577442E+03  0.81757090054E+03  0.00000000000E+00 0. -1.
         22    1    3    3    0    0  0.35192559318E+02 -0.16723957363E+02 -0.56687505139E+02  0.68787209713E+02  0.00000000000E+00 0.  1.
         22    1    3    3    0    0  0.22398283636E+03  0.20317407370E+03 -0.29971073060E+03  0.42576347571E+03  0.00000000000E+00 0.  1.
</event>
<event>
 7    1  0.6510186E-006  0.6318333E+02  0.7818608E-02  0.1435384E+00
          2   -1    0    0  502    0  0.00000000000E+00  0.00000000000E+00  0.46415791217E+03  0.46415791217E+03  0.00000000000E+00 0. -1.
          1   -1    0    0  501    0 -0.00000000000E+00 -0.00000000000E+00 -0.14707397949E+03  0.14707397949E+03  0.00000000000E+00 0. -1.
         25    2    1    2    0    0 -0.50502281359E+02  0.38332466270E+02  0.35858050752E+03  0.38499983258E+03  0.12500012931E+03 0.  0.
          2    1    1    2  501    0  0.31308468258E+02  0.28921501489E+02 -0.11627691333E+03  0.12384261789E+03  0.00000000000E+00 0. -1.
          1    1    1    2  502    0  0.19193813100E+02 -0.67253967759E+02  0.74780338490E+02  0.10238944118E+03  0.00000000000E+00 0. -1.
         22    1    3    3    0    0  0.10305320064E+02  0.37801546898E+02  0.29283124385E+03  0.29544084678E+03  0.00000000000E+00 0. -1.
         22    1    3    3    0    0 -0.60807601423E+02  0.53091937154E+00  0.65749263662E+02  0.89558985804E+02  0.00000000000E+00 0. -1.
</event>
<event>
 7    1  0.6510186E-006  0.6210905E+02  0.7818608E-02  0.1446849E+00
          2   -1    0    0  502    0  0.00000000000E+00  0.00000000000E+00  0.39582937054E+03  0.39582937054E+03  0.00000000000E+00 0. -1.
          1   -1    0    0  501    0 -0.00000000000E+00 -0.00000000000E+00 -0.42148697277E+03  0.42148697277E+03  0.00000000000E+00 0. -1.
         25    2    1    2    0    0 -0.34098360998E+02 -0.22679044702E+02  0.21391793759E+03  0.25112388395E+03  0.12500113510E+03 0.  0.
          2    1    1    2  501    0 -0.34728940162E+01 -0.39653119335E+02 -0.39372163050E+03  0.39572863579E+03  0.00000000000E+00 0. -1.
          1    1    1    2  502    0  0.37571255014E+02  0.62332164037E+02  0.15414609067E+03  0.17046382357E+03  0.00000000000E+00 0. -1.
         22    1    3    3    0    0  0.23281327038E+02  0.29657872364E+02  0.13592734234E+03  0.14105974613E+03  0.00000000000E+00 0.  1.
         22    1    3    3    0    0 -0.57379688036E+02 -0.52336917066E+02  0.77990595249E+02  0.11006413782E+03  0.00000000000E+00 0.  1.
</event>
<event>
 7    1  0.6510186E-006  0.2111138E+03  0.7818608E-02  0.1239569E+00
          2   -1    0    0  502    0  0.00000000000E+00  0.00000000000E+00  0.45860594665E+03  0.45860594665E+03  0.00000000000E+00 0. -1.
          1   -1    0    0  501    0 -0.00000000000E+00 -0.00000000000E+00 -0.39649601139E+03  0.39649601139E+03  0.00000000000E+00 0. -1.
         25    2    1    2    0    0  0.21608139724E+03  0.82413898642E+02  0.13100776987E+03  0.29371918957E+03  0.12499882252E+03 0.  0.
          2    1    1    2  501    0 -0.55700520087E+02  0.43529583747E+02 -0.26752870860E+03  0.27671100904E+03  0.00000000000E+00 0. -1.
          1    1    1    2  502    0 -0.16038087715E+03 -0.12594348239E+03  0.19863087399E+03  0.28467175943E+03  0.00000000000E+00 0. -1.
         22    1    3    3    0    0  0.10955420193E+03  0.17762449493E+01  0.11552251372E+03  0.15921912380E+03  0.00000000000E+00 0.  1.
         22    1    3    3    0    0  0.10652719531E+03  0.80637653693E+02  0.15485256146E+02  0.13450006577E+03  0.00000000000E+00 0.  1.
</event>
<event>
 7    1  0.6510186E-006  0.2675748E+02  0.7818608E-02  0.1637694E+00
          2   -1    0    0  502    0  0.00000000000E+00  0.00000000000E+00  0.62654866605E+03  0.62654866605E+03  0.00000000000E+00 0. -1.
          1   -1    0    0  501    0 -0.00000000000E+00 -0.00000000000E+00 -0.54482686322E+03  0.54482686322E+03  0.00000000000E+00 0. -1.
         25    2    1    2    0    0  0.47703498979E+01  0.49151002697E+01 -0.49617187580E+03  0.51172140000E+03  0.12500138576E+03 0.  0.
          2    1    1    2  501    0 -0.21048998238E+02  0.16339695903E+02 -0.36215139756E+02  0.44962009926E+02  0.00000000000E+00 0. -1.
          1    1    1    2  502    0  0.16278648340E+02 -0.21254796173E+02  0.61410881839E+03  0.61469211933E+03  0.00000000000E+00 0. -1.
         22    1    3    3    0    0  0.38603731300E+02 -0.31989968264E+02 -0.94819672335E+02  0.10725845608E+03  0.00000000000E+00 0.  1.
         22    1    3    3    0    0 -0.33833381402E+02  0.36905068534E+02 -0.40135220346E+03  0.40446294392E+03  0.00000000000E+00 0.  1.
</event>
<event>
 7    1  0.6510186E-006  0.6043205E+02  0.7818608E-02  0.1502048E+00
          2   -1    0    0  502    0  0.00000000000E+00  0.00000000000E+00  0.11916273161E+04  0.11916273161E+04  0.00000000000E+00 0. -1.
          1   -1    0    0  501    0 -0.00000000000E+00 -0.00000000000E+00 -0.23386994763E+03  0.23386994763E+03  0.00000000000E+00 0. -1.
         25    2    1    2    0    0 -0.51191542272E+02 -0.46160275011E+01  0.24505297207E+03  0.27985269909E+03  0.12499876942E+03 0.  0.
          2    1    1    2  501    0  0.51399365609E+02  0.32228522369E+02 -0.21200926519E+03  0.22051870888E+03  0.00000000000E+00 0. -1.
          1    1    1    2  502    0 -0.20782333697E+00 -0.27612494867E+02  0.92471366161E+03  0.92512585578E+03  0.00000000000E+00 0. -1.
         22    1    3    3    0    0 -0.53452732845E+02 -0.18567295796E+02  0.29456755151E+02  0.63793726540E+02  0.00000000000E+00 0.  1.
         22    1    3    3    0    0  0.22611905733E+01  0.13951268295E+02  0.21559621692E+03  0.21605897255E+03  0.00000000000E+00 0.  1.
</event>
<event>
 7    1  0.6510186E-006  0.6282449E+02  0.7818608E-02  0.1453914E+00
          2   -1    0    0  502    0  0.00000000000E+00  0.00000000000E+00  0.74911419726E+02  0.74911419726E+02  0.00000000000E+00 0. -1.
          1   -1    0    0  501    0 -0.00000000000E+00 -0.00000000000E+00 -0.41778701416E+03  0.41778701416E+03  0.00000000000E+00 0. -1.
         25    2    1    2    0    0  0.32668957865E+02  0.27561874098E+01 -0.54534683261E+02  0.14026301087E+03  0.12499929265E+03 0.  0.
          2    1    1    2  501    0 -0.62347670144E+02  0.19930768071E+02 -0.30470175838E+03  0.31165305878E+03  0.00000000000E+00 0. -1.
          1    1    1    2  502    0  0.29678712279E+02 -0.22686955481E+02  0.16360847205E+02  0.40782364238E+02  0.00000000000E+00 0. -1.
         22    1    3    3    0    0 -0.18968186722E+02 -0.44197606237E+02 -0.51409738682E+02  0.70400154375E+02  0.00000000000E+00 0.  1.
         22    1    3    3    0    0  0.51637144587E+02  0.46953793646E+02 -0.31249445787E+01  0.69862856494E+02  0.00000000000E+00 0.  1.
</event>
<event>
 7    1  0.6510186E-006  0.1242352E+03  0.7818608E-02  0.1303791E+00
          2   -1    0    0  502    0  0.00000000000E+00  0.00000000000E+00  0.74691016836E+03  0.74691016836E+03  0.00000000000E+00 0. -1.
          1   -1    0    0  501    0 -0.00000000000E+00 -0.00000000000E+00 -0.10704479899E+04  0.10704479899E+04  0.00000000000E+00 0. -1.
         25    2    1    2    0    0 -0.95181341651E+02  0.43609394205E+02  0.23411751597E+03  0.28528158392E+03  0.12495320636E+03 0.  0.
          2    1    1    2  501    0 -0.39469130184E+02 -0.51190984124E+02 -0.10345049975E+04  0.10365225125E+04  0.00000000000E+00 0. -1.
          1    1    1    2  502    0  0.13465047183E+03  0.75815899188E+01  0.47684965994E+03  0.49555406189E+03  0.00000000000E+00 0. -1.
         22    1    3    3    0    0 -0.75893339713E+02  0.74273671657E+02  0.98258909531E+02  0.14467615773E+03  0.00000000000E+00 0.  1.
         22    1    3    3    0    0 -0.19288001938E+02 -0.30664277452E+02  0.13585860644E+03  0.14060542619E+03  0.00000000000E+00 0.  1.
</event>
<event>
 7    1  0.8117644E-006  0.7095975E+02  0.7818608E-02  0.1501242E+00
          2   -1    0    0  502    0  0.00000000000E+00  0.00000000000E+00  0.15286920330E+04  0.15286920330E+04  0.00000000000E+00 0. -1.
          1   -1    0    0  501    0 -0.00000000000E+00 -0.00000000000E+00 -0.86053773302E+03  0.86053773302E+03  0.00000000000E+00 0. -1.
         25    2    1    2    0    0  0.20098779461E+01 -0.78446005530E+02 -0.11997952989E+03  0.19020436973E+03  0.12499919712E+03 0.  0.
          2    1    1    2  501    0 -0.21337693686E+02  0.10191738230E+02 -0.70440496605E+03  0.70480176283E+03  0.00000000000E+00 0. -1.
          1    1    1    2  502    0  0.19327815740E+02  0.68254267300E+02  0.14925387959E+04  0.14942236334E+04  0.00000000000E+00 0. -1.
         22    1    3    3    0    0  0.42501806138E+02 -0.48538565203E+01 -0.92356372655E+02  0.10178242981E+03  0.00000000000E+00 0.  1.
         22    1    3    3    0    0 -0.40491928192E+02 -0.73592149009E+02 -0.27623157230E+02  0.88421939924E+02  0.00000000000E+00 0.  1.
</event>
<event>
 7    1  0.6510186E-006  0.1148136E+03  0.7818608E-02  0.1401607E+00
          2   -1    0    0  502    0  0.00000000000E+00  0.00000000000E+00  0.88920624794E+03  0.88920624794E+03  0.00000000000E+00 0. -1.
          1   -1    0    0  501    0 -0.00000000000E+00 -0.00000000000E+00 -0.11443960325E+03  0.11443960325E+03  0.00000000000E+00 0. -1.
         25    2    1    2    0    0 -0.37218134568E+02  0.96522086739E+02  0.11820609253E+03  0.20074132741E+03  0.12499078947E+03 0.  0.
          2    1    1    2  501    0  0.67618968535E+02 -0.97886480439E+02 -0.24247437716E+02  0.12141674594E+03  0.00000000000E+00 0. -1.
          1    1    1    2  502    0 -0.30400833968E+02  0.13643936997E+01  0.68080798987E+03  0.68148777784E+03  0.00000000000E+00 0. -1.
         22    1    3    3    0    0 -0.28372414249E+02 -0.20001398206E+02  0.27046794468E+00  0.34714881152E+02  0.00000000000E+00 0.  1.
         22    1    3    3    0    0 -0.88457203192E+01  0.11652348495E+03  0.11793562459E+03  0.16602644626E+03  0.00000000000E+00 0.  1.
</event>
<event>
 7    1  0.6510186E-006  0.8263047E+02  0.7818608E-02  0.1489733E+00
          2   -1    0    0  502    0  0.00000000000E+00  0.00000000000E+00  0.70715647265E+03  0.70715647265E+03  0.00000000000E+00 0. -1.
          1   -1    0    0  501    0 -0.00000000000E+00 -0.00000000000E+00 -0.41840705701E+02  0.41840705701E+02  0.00000000000E+00 0. -1.
         25    2    1    2    0    0 -0.62897166527E+02 -0.79891107583E+02  0.23004398163E+03  0.28086314126E+03  0.12500091203E+03 0.  0.
          2    1    1    2  501    0  0.15744831792E+02  0.15349433843E+02 -0.33907461480E+01  0.22248640563E+02  0.00000000000E+00 0. -1.
          1    1    1    2  502    0  0.47152334735E+02  0.64541673740E+02  0.43866253147E+03  0.44588539653E+03  0.00000000000E+00 0. -1.
         22    1    3    3    0    0 -0.27544836776E+02 -0.67513350303E+02  0.32555264126E+02  0.79853714532E+02  0.00000000000E+00 0. -1.
         22    1    3    3    0    0 -0.35352329751E+02 -0.12377757280E+02  0.19748871750E+03  0.20100942673E+03  0.00000000000E+00 0. -1.
</event>
<event>
 7    1  0.6773231E-006  0.8054118E+02  0.7818608E-02  0.1404811E+00
          2   -1    0    0  502    0  0.00000000000E+00  0.00000000000E+00  0.27665987889E+04  0.27665987889E+04  0.00000000000E+00 0. -1.
          1   -1    0    0  501    0 -0.00000000000E+00 -0.00000000000E+00 -0.56976988373E+03  0.56976988373E+03  0.00000000000E+00 0. -1.
         25    2    1    2    0    0 -0.36750368887E+02  0.59756565622E+02 -0.30465260851E+03  0.33668867061E+03  0.12499844919E+03 0.  0.
          2    1    1    2  501    0  0.76357138607E+02 -0.44906920556E+02 -0.24105557701E+03  0.25681673493E+03  0.00000000000E+00 0. -1.
          1    1    1    2  502    0 -0.39606769720E+02 -0.14849645067E+02  0.27425370907E+04  0.27428632671E+04  0.00000000000E+00 0. -1.
         22    1    3    3    0    0  0.42451896956E+02  0.27238845341E+02 -0.65486901890E+02  0.82659860694E+02  0.00000000000E+00 0. -1.
         22    1    3    3    0    0 -0.79202265843E+02  0.32517720281E+02 -0.23916570662E+03  0.25402880992E+03  0.00000000000E+00 0. -1.
</event>
<event>
 7    1  0.6510186E-006  0.8195559E+02  0.7818608E-02  0.1495120E+00
          2   -1    0    0  502    0  0.00000000000E+00  0.00000000000E+00  0.16609452414E+04  0.16609452414E+04  0.00000000000E+00 0. -1.
          1   -1    0    0  501    0 -0.00000000000E+00 -0.00000000000E+00 -0.58409349594E+02  0.58409349594E+02  0.00000000000E+00 0. -1.
         25    2    1    2    0    0 -0.94359527237E+01 -0.89672346531E+02  0.13323164737E+03  0.20372984926E+03  0.12500005072E+03 0.  0.
          2    1    1    2  501    0  0.19575495181E+02  0.85370452592E+01 -0.16862264011E+02  0.27210606405E+02  0.00000000000E+00 0. -1.
          1    1    1    2  502    0 -0.10139542457E+02  0.81135301272E+02  0.14861665084E+04  0.14884141353E+04  0.00000000000E+00 0. -1.
         22    1    3    3    0    0 -0.17406770096E+02 -0.10500274231E+03  0.47989806204E+02  0.11675441336E+03  0.00000000000E+00 0. -1.
         22    1    3    3    0    0  0.79708173722E+01  0.15330395783E+02  0.85241841170E+02  0.86975435902E+02  0.00000000000E+00 0. -1.
</event>
<event>
 7    1  0.6510186E-006  0.4988397E+02  0.7818608E-02  0.1477024E+00
          2   -1    0    0  502    0  0.00000000000E+00  0.00000000000E+00  0.23473016144E+04  0.23473016144E+04  0.00000000000E+00 0. -1.
          1   -1    0    0  501    0 -0.00000000000E+00 -0.00000000000E+00 -0.28466890405E+03  0.28466890405E+03  0.00000000000E+00 0. -1.
         25    2    1    2    0    0 -0.15838581651E+02 -0.81838985844E+02  0.17501402426E+03  0.23065849002E+03  0.12499980022E+03 0.  0.
          2    1    1    2  501    0  0.24618734429E+02  0.42991158166E+02 -0.25427092080E+03  0.25905216257E+03  0.00000000000E+00 0. -1.
          1    1    1    2  502    0 -0.87801527782E+01  0.38847827678E+02  0.21418896069E+04  0.21422598658E+04  0.00000000000E+00 0. -1.
         22    1    3    3    0    0  0.38361174522E+02 -0.13964302560E+02  0.68604675563E+01  0.41396225332E+02  0.00000000000E+00 0.  1.
         22    1    3    3    0    0 -0.54199756173E+02 -0.67874683284E+02  0.16815355671E+03  0.18926226469E+03  0.00000000000E+00 0.  1.
</event>
<event>
 7    1  0.6510186E-006  0.1289834E+03  0.7818608E-02  0.1296556E+00
          2   -1    0    0  502    0  0.00000000000E+00  0.00000000000E+00  0.60690386047E+03  0.60690386047E+03  0.00000000000E+00 0. -1.
          1   -1    0    0  501    0 -0.00000000000E+00 -0.00000000000E+00 -0.63767365431E+03  0.63767365431E+03  0.00000000000E+00 0. -1.
         25    2    1    2    0    0 -0.10726528446E+03 -0.20873649030E+02  0.37492012810E+03  0.41003783581E+03  0.12499749545E+03 0.  0.
          2    1    1    2  501    0 -0.47526018903E+02 -0.46589555110E+02 -0.58468978370E+03  0.58846533651E+03  0.00000000000E+00 0. -1.
          1    1    1    2  502    0  0.15479130336E+03  0.67463204139E+02  0.17899986176E+03  0.24607434246E+03  0.00000000000E+00 0. -1.
         22    1    3    3    0    0 -0.71437326732E+02 -0.41661102911E+02  0.35419394308E+03  0.36372006882E+03  0.00000000000E+00 0.  1.
         22    1    3    3    0    0 -0.35827957724E+02  0.20787453881E+02  0.20726185017E+02  0.46317766989E+02  0.00000000000E+00 0.  1.
</event>
<event>
 7    1  0.6510186E-006  0.6242463E+02  0.7818608E-02  0.1438514E+00
          2   -1    0    0  502    0  0.00000000000E+00  0.00000000000E+00  0.49508331012E+03  0.49508331012E+03  0.00000000000E+00 0. -1.
          1   -1    0    0  501    0 -0.00000000000E+00 -0.00000000000E+00 -0.52508837675E+03  0.52508837675E+03  0.00000000000E+00 0. -1.
         25    2    1    2    0    0  0.83497900194E+02 -0.26688656195E+02 -0.11515940193E+03  0.19123560736E+03  0.12500074385E+03 0.  0.
          2    1    1    2  501    0 -0.44353254644E+02  0.42289253379E+02 -0.36838287123E+03  0.37344548727E+03  0.00000000000E+00 0. -1.
          1    1    1    2  502    0 -0.39144645551E+02 -0.15600597183E+02  0.45353720653E+03  0.45549059224E+03  0.00000000000E+00 0. -1.
         22    1    3    3    0    0  0.64210915986E+02  0.39803190598E+02 -0.90161147737E+02  0.11762809305E+03  0.00000000000E+00 0.  1.
         22    1    3    3    0    0  0.19286984208E+02 -0.66491846793E+02 -0.24998254195E+02  0.73607514308E+02  0.00000000000E+00 0.  1.
</event>
<event>
 7    1  0.6510186E-006  0.1276667E+03  0.7818608E-02  0.1293458E+00
          2   -1    0    0  502    0  0.00000000000E+00  0.00000000000E+00  0.21392733879E+04  0.21392733879E+04  0.00000000000E+00 0. -1.
          1   -1    0    0  501    0 -0.00000000000E+00 -0.00000000000E+00 -0.32075806845E+03  0.32075806845E+03  0.00000000000E+00 0. -1.
         25    2    1    2    0    0 -0.78329354030E+01 -0.11117965156E+03  0.69841174046E+03  0.71820551062E+03  0.12497170268E+03 0.  0.
          2    1    1    2  501    0  0.68177400001E+02 -0.11869430451E+02 -0.30367815376E+03  0.31146342052E+03  0.00000000000E+00 0. -1.
          1    1    1    2  502    0 -0.60344464598E+02  0.12304908202E+03  0.14237817328E+04  0.14303625253E+04  0.00000000000E+00 0. -1.
         22    1    3    3    0    0  0.25114417625E+02 -0.92619409001E+02  0.24354341011E+03  0.26176799175E+03  0.00000000000E+00 0. -1.
         22    1    3    3    0    0 -0.32947353028E+02 -0.18560242564E+02  0.45486833034E+03  0.45643751886E+03  0.00000000000E+00 0. -1.
</event>
<event>
 7    1  0.6510186E-006  0.2693920E+02  0.7818608E-02  0.1656975E+00
          2   -1    0    0  502    0  0.00000000000E+00  0.00000000000E+00  0.14115108932E+04  0.14115108932E+04  0.00000000000E+00 0. -1.
          1   -1    0    0  501    0 -0.00000000000E+00 -0.00000000000E+00 -0.39416549178E+02  0.39416549178E+02  0.00000000000E+00 0. -1.
         25    2    1    2    0    0 -0.48238513389E+02 -0.14158678716E+02  0.19704713143E+03  0.23870438317E+03  0.12499915272E+03 0.  0.
          2    1    1    2  501    0  0.23323255056E+02  0.43639675009E+01 -0.10802428283E+02  0.26071265708E+02  0.00000000000E+00 0. -1.
          1    1    1    2  502    0  0.24915258332E+02  0.97947112153E+01  0.11858496408E+04  0.11861517935E+04  0.00000000000E+00 0. -1.
         22    1    3    3    0    0 -0.37466260205E+02 -0.57062417081E+02  0.17781718794E+03  0.19046992525E+03  0.00000000000E+00 0. -1.
         22    1    3    3    0    0 -0.10772253184E+02  0.42903738364E+02  0.19229943491E+02  0.48234457922E+02  0.00000000000E+00 0. -1.
</event>
<event>
 7    1  0.6510186E-006  0.1297990E+03  0.7818608E-02  0.1393053E+00
          2   -1    0    0  502    0  0.00000000000E+00  0.00000000000E+00  0.63956893961E+03  0.63956893961E+03  0.00000000000E+00 0. -1.
          1   -1    0    0  501    0 -0.00000000000E+00 -0.00000000000E+00 -0.19312471892E+04  0.19312471892E+04  0.00000000000E+00 0. -1.
         25    2    1    2    0    0  0.52738012913E+02 -0.13517018682E+03  0.12660462622E+02  0.19193291333E+03  0.12500271394E+03 0.  0.
          2    1    1    2  501    0 -0.25092795589E+02  0.12705360763E+03 -0.18389457187E+04  0.18435003727E+04  0.00000000000E+00 0. -1.
          1    1    1    2  502    0 -0.27645217324E+02  0.81165791898E+01  0.53460700655E+03  0.53538284278E+03  0.00000000000E+00 0. -1.
         22    1    3    3    0    0 -0.26713737304E+02 -0.79776189506E+02 -0.25379304851E+02  0.87874759104E+02  0.00000000000E+00 0.  1.
         22    1    3    3    0    0  0.79451750217E+02 -0.55393997315E+02  0.38039767473E+02  0.10405815422E+03  0.00000000000E+00 0.  1.
</event>
<event>
 7    1  0.6510186E-006  0.6571156E+02  0.7818608E-02  0.1391601E+00
          2   -1    0    0  502    0  0.00000000000E+00  0.00000000000E+00  0.27382477277E+03  0.27382477277E+03  0.00000000000E+00 0. -1.
          1   -1    0    0  501    0 -0.00000000000E+00 -0.00000000000E+00 -0.21840116817E+04  0.21840116817E+04  0.00000000000E+00 0. -1.
         25    2    1    2    0    0  0.19282664599E+02 -0.11019219500E+03 -0.43672154538E+02  0.17334034186E+03  0.12500190415E+03 0.  0.
          2    1    1    2  501    0 -0.32406356236E+02  0.47592315177E+02 -0.20702020422E+04  0.20710025823E+04  0.00000000000E+00 0. -1.
          1    1    1    2  502    0  0.13123691638E+02  0.62599879824E+02  0.20368728785E+03  0.21349353027E+03  0.00000000000E+00 0. -1.
         22    1    3    3    0    0  0.64491160698E+02 -0.62416370490E+02  0.74169016828E+01  0.90055113924E+02  0.00000000000E+00 0. -1.
         22    1    3    3    0    0 -0.45208496099E+02 -0.47775824510E+02 -0.51089056220E+02  0.83285227938E+02  0.00000000000E+00 0. -1.
</event>
<event>
 7    1  0.6510186E-006  0.8981286E+02  0.7818608E-02  0.1393204E+00
          2   -1    0    0  502    0  0.00000000000E+00  0.00000000000E+00  0.71517805872E+03  0.71517805872E+03  0.00000000000E+00 0. -1.
          1   -1    0    0  501    0 -0.00000000000E+00 -0.00000000000E+00 -0.13971024709E+04  0.13971024709E+04  0.00000000000E+00 0. -1.
         25    2    1    2    0    0 -0.10084538528E+03 -0.88290530297E+01  0.31160954022E+03  0.35067605159E+03  0.12500177476E+03 0.  0.
          2    1    1    2  501    0  0.78379628700E+02  0.43828664266E+02 -0.13749742051E+04  0.13779036188E+04  0.00000000000E+00 0. -1.
          1    1    1    2  502    0  0.22465756584E+02 -0.34999611237E+02  0.38144025269E+03  0.38370085924E+03  0.00000000000E+00 0. -1.
         22    1    3    3    0    0 -0.24553142099E+02 -0.32118719552E+02  0.24031165070E+03  0.24368865053E+03  0.00000000000E+00 0.  1.
         22    1    3    3    0    0 -0.76292243185E+02  0.23289666523E+02  0.71297889517E+02  0.10698740106E+03  0.00000000000E+00 0.  1.
</event>
<event>
 7    1  0.6510186E-006  0.5809864E+02  0.7818608E-02  0.1433253E+00
          2   -1    0    0  502    0  0.00000000000E+00  0.00000000000E+00  0.71155432646E+03  0.71155432646E+03  0.00000000000E+00 0. -1.
          1   -1    0    0  501    0 -0.00000000000E+00 -0.00000000000E+00 -0.63351030136E+02  0.63351030136E+02  0.00000000000E+00 0. -1.
         25    2    1    2    0    0  0.41646235325E+02  0.81487009208E+01  0.61955831939E+02  0.14582105613E+03  0.12499778020E+03 0.  0.
          2    1    1    2  501    0 -0.63708641570E+02  0.33467445751E+02  0.43069782786E+02  0.83868153223E+02  0.00000000000E+00 0. -1.
          1    1    1    2  502    0  0.22062406245E+02 -0.41616146672E+02  0.54317768160E+03  0.54521614725E+03  0.00000000000E+00 0. -1.
         22    1    3    3    0    0  0.85248837796E+02  0.12169056384E+01  0.54110790207E+02  0.10097931878E+03  0.00000000000E+00 0. -1.
         22    1    3    3    0    0 -0.43602602471E+02  0.69317952824E+01  0.78450417312E+01  0.44841737342E+02  0.00000000000E+00 0. -1.
</event>
<event>
 7    1  0.6510186E-006  0.8460947E+02  0.7818608E-02  0.1336791E+00
          2   -1    0    0  502    0  0.00000000000E+00  0.00000000000E+00  0.10495389794E+04  0.10495389794E+04  0.00000000000E+00 0. -1.
          1   -1    0    0  501    0 -0.00000000000E+00 -0.00000000000E+00 -0.32892567386E+02  0.32892567386E+02  0.00000000000E+00 0. -1.
         25    2    1    2    0    0  0.45181114384E+02  0.19165536228E+02  0.26001472143E+03  0.29264428216E+03  0.12499747855E+03 0.  0.
          2    1    1    2  501    0 -0.90224660189E+02 -0.73639273417E+02  0.22381241426E+03  0.25229987846E+03  0.00000000000E+00 0. -1.
          1    1    1    2  502    0  0.45043545804E+02  0.54473737189E+02  0.53281927633E+03  0.53748738617E+03  0.00000000000E+00 0. -1.
         22    1    3    3    0    0 -0.71789641502E+01 -0.23504498748E+02  0.20233694897E+03  0.20382404153E+03  0.00000000000E+00 0. -1.
         22    1    3    3    0    0  0.52360078535E+02  0.42670034976E+02  0.57677772456E+02  0.88820240624E+02  0.00000000000E+00 0. -1.
</event>
<event>
 7    1  0.6510186E-006  0.6915194E+02  0.7818608E-02  0.1377501E+00
          2   -1    0    0  502    0  0.00000000000E+00  0.00000000000E+00  0.29619317775E+03  0.29619317775E+03  0.00000000000E+00 0. -1.
          1   -1    0    0  501    0 -0.00000000000E+00 -0.00000000000E+00 -0.92498164692E+03  0.92498164692E+03  0.00000000000E+00 0. -1.
         25    2    1    2    0    0  0.71712810527E+02  0.25643431381E+02 -0.39827806529E+02  0.15169416860E+03  0.12499821538E+03 0.  0.
          2    1    1    2  501    0 -0.24759659835E+02 -0.65103783043E+02 -0.82381269162E+03  0.82675201493E+03  0.00000000000E+00 0. -1.
          1    1    1    2  502    0 -0.46953150692E+02  0.39460351662E+02  0.23485202898E+03  0.24272864114E+03  0.00000000000E+00 0. -1.
         22    1    3    3    0    0  0.37517093515E+02  0.62769110903E+02  0.17623163045E+02  0.75220140023E+02  0.00000000000E+00 0.  1.
         22    1    3    3    0    0  0.34195717012E+02 -0.37125679523E+02 -0.57450969574E+02  0.76474028578E+02  0.00000000000E+00 0.  1.
</event>
<event>
 7    1  0.6510186E-006  0.2027989E+03  0.7818608E-02  0.1257261E+00
          2   -1    0    0  502    0  0.00000000000E+00  0.00000000000E+00  0.94976504698E+02  0.94976504698E+02  0.00000000000E+00 0. -1.
          1   -1    0    0  501    0 -0.00000000000E+00 -0.00000000000E+00 -0.19504769282E+04  0.19504769282E+04  0.00000000000E+00 0. -1.
         25    2    1    2    0    0 -0.69696623941E+02 -0.13437371508E+03 -0.10970735955E+04  0.11145000758E+04  0.12500412136E+03 0.  0.
          2    1    1    2  501    0 -0.26896296193E+01 -0.61582043524E+02 -0.71492043770E+03  0.71757286350E+03  0.00000000000E+00 0. -1.
          1    1    1    2  502    0  0.72386253560E+02  0.19595575861E+03 -0.43506390276E+02  0.21338049356E+03  0.00000000000E+00 0. -1.
         22    1    3    3    0    0  0.24075605746E+01 -0.10975473690E+03 -0.46158478652E+03  0.47446012874E+03  0.00000000000E+00 0.  1.
         22    1    3    3    0    0 -0.72104184515E+02 -0.24618978186E+02 -0.63548880901E+03  0.64003994710E+03  0.00000000000E+00 0.  1.
</event>
<event>
 7    1  0.6510186E-006  0.7800486E+02  0.7818608E-02  0.1381222E+00
          2   -1    0    0  502    0  0.00000000000E+00  0.00000000000E+00  0.12040274152E+04  0.12040274152E+04  0.00000000000E+00 0. -1.
          1   -1    0    0  501    0 -0.00000000000E+00 -0.00000000000E+00 -0.77927523010E+03  0.77927523010E+03  0.00000000000E+00 0. -1.
         25    2    1    2    0    0  0.99819349667E+02 -0.83648887435E+02 -0.24886964985E+03  0.30744568589E+03  0.12500283284E+03 0.  0.
          2    1    1    2  501    0 -0.42970152546E+02  0.30588788974E+02 -0.49843758156E+03  0.50122064077E+03  0.00000000000E+00 0. -1.
          1    1    1    2  502    0 -0.56849197122E+02  0.53060098461E+02  0.11720594165E+04  0.11746363187E+04  0.00000000000E+00 0. -1.
         22    1    3    3    0    0  0.69259148787E+01  0.30794127213E+02 -0.60721398974E+02  0.68434895054E+02  0.00000000000E+00 0. -1.
         22    1    3    3    0    0  0.92893434789E+02 -0.11444301465E+03 -0.18814825087E+03  0.23901079083E+03  0.00000000000E+00 0. -1.
</event>
<event>
 7    1  0.6510186E-006  0.2044041E+03  0.7818608E-02  0.1290991E+00
          2   -1    0    0  502    0  0.00000000000E+00  0.00000000000E+00  0.74510257292E+03  0.74510257292E+03  0.00000000000E+00 0. -1.
          1   -1    0    0  501    0 -0.00000000000E+00 -0.00000000000E+00 -0.29890363049E+03  0.29890363049E+03  0.00000000000E+00 0. -1.
         25    2    1    2    0    0 -0.24548405507E+02  0.22521610449E+03  0.96490662222E+02  0.27616532564E+03  0.12502768197E+03 0.  0.
          2    1    1    2  501    0  0.36421035757E+02 -0.25094793648E+02 -0.18844194506E+03  0.19356292820E+03  0.00000000000E+00 0. -1.
          1    1    1    2  502    0 -0.11872630249E+02 -0.20012131084E+03  0.53815022527E+03  0.57427794957E+03  0.00000000000E+00 0. -1.
         22    1    3    3    0    0  0.22275388686E+02  0.75449875307E+00 -0.86596742472E+01  0.23911339727E+02  0.00000000000E+00 0. -1.
         22    1    3    3    0    0 -0.46823794194E+02  0.22446160573E+03  0.10515033647E+03  0.25225398592E+03  0.00000000000E+00 0. -1.
</event>
<event>
 7    1  0.6510186E-006  0.4890314E+02  0.7818608E-02  0.1467630E+00
          2   -1    0    0  502    0  0.00000000000E+00  0.00000000000E+00  0.64541205113E+03  0.64541205113E+03  0.00000000000E+00 0. -1.
          1   -1    0    0  501    0 -0.00000000000E+00 -0.00000000000E+00 -0.24673307000E+03  0.24673307000E+03  0.00000000000E+00 0. -1.
         25    2    1    2    0    0 -0.19257527570E+02  0.13613466692E+02  0.93766826850E+02  0.15802587594E+03  0.12499512313E+03 0.  0.
          2    1    1    2  501    0  0.44896764946E+02  0.21458885229E+02 -0.21079322828E+03  0.21658713800E+03  0.00000000000E+00 0. -1.
          1    1    1    2  502    0 -0.25639237376E+02 -0.35072351921E+02  0.51570538256E+03  0.51753210718E+03  0.00000000000E+00 0. -1.
         22    1    3    3    0    0  0.47209326380E+02 -0.21658570169E+02  0.37142362309E+02  0.63854281273E+02  0.00000000000E+00 0.  1.
         22    1    3    3    0    0 -0.66466853950E+02  0.35272036861E+02  0.56624464541E+02  0.94171594671E+02  0.00000000000E+00 0.  1.
</event>
<event>
 7    1  0.6510186E-006  0.1029445E+03  0.7818608E-02  0.1304041E+00
          2   -1    0    0  502    0  0.00000000000E+00  0.00000000000E+00  0.23089440689E+03  0.23089440689E+03  0.00000000000E+00 0. -1.
          1   -1    0    0  501    0 -0.00000000000E+00 -0.00000000000E+00 -0.94515100654E+03  0.94515100654E+03  0.00000000000E+00 0. -1.
         25    2    1    2    0    0 -0.65203439863E+02 -0.91432900280E+00 -0.58379372250E+02  0.15259516139E+03  0.12499923043E+03 0.  0.
          2    1    1    2  501    0  0.75227815387E+02 -0.76267454791E+02 -0.82781481374E+03  0.83471750594E+03  0.00000000000E+00 0. -1.
          1    1    1    2  502    0 -0.10024375524E+02  0.77181783794E+02  0.17193758634E+03  0.18873274610E+03  0.00000000000E+00 0. -1.
         22    1    3    3    0    0 -0.78476194628E+02  0.46002610895E+02 -0.47570082815E+02  0.10265313493E+03  0.00000000000E+00 0.  1.
         22    1    3    3    0    0  0.13272754764E+02 -0.46916939898E+02 -0.10809289435E+02  0.49942026456E+02  0.00000000000E+00 0.  1.
</event>
<event>
 7    1  0.6510186E-006  0.1706946E+03  0.7818608E-02  0.1240902E+00
          2   -1    0    0  502    0  0.00000000000E+00  0.00000000000E+00  0.12146879585E+04  0.12146879585E+04  0.00000000000E+00 0. -1.
          1   -1    0    0  501    0 -0.00000000000E+00 -0.00000000000E+00 -0.84570128373E+03  0.84570128373E+03  0.00000000000E+00 0. -1.
         25    2    1    2    0    0  0.95034655829E+02  0.45496184453E+02  0.24388459172E+02  0.16529049857E+03  0.12499865346E+03 0.  0.
          2    1    1    2  501    0 -0.12643551642E+03 -0.12583349874E+03 -0.76329046753E+03  0.78385735121E+03  0.00000000000E+00 0. -1.
          1    1    1    2  502    0  0.31400860591E+02  0.80337314285E+02  0.11078886832E+04  0.11112413925E+04  0.00000000000E+00 0. -1.
         22    1    3    3    0    0  0.12571906954E+03  0.42227669402E+02  0.20092720281E+02  0.13413492430E+03  0.00000000000E+00 0. -1.
         22    1    3    3    0    0 -0.30684413708E+02  0.32685150513E+01  0.42957388915E+01  0.31155574267E+02  0.00000000000E+00 0. -1.
</event>
<event>
 7    1  0.6510186E-006  0.1535004E+03  0.7818608E-02  0.1258229E+00
          2   -1    0    0  502    0  0.00000000000E+00  0.00000000000E+00  0.23557790650E+04  0.23557790650E+04  0.00000000000E+00 0. -1.
          1   -1    0    0  501    0 -0.00000000000E+00 -0.00000000000E+00 -0.14997959478E+04  0.14997959478E+04  0.00000000000E+00 0. -1.
         25    2    1    2    0    0  0.99978813230E+02 -0.76088529762E+02 -0.53702686158E+02  0.18518916142E+03  0.12500327815E+03 0.  0.
          2    1    1    2  501    0 -0.43700755956E+02 -0.67799958619E+02 -0.13765620421E+04  0.13789233648E+04  0.00000000000E+00 0. -1.
          1    1    1    2  502    0 -0.56278057274E+02  0.14388848838E+03  0.22862478454E+04  0.22914624866E+04  0.00000000000E+00 0. -1.
         22    1    3    3    0    0  0.14530344289E+02  0.24552901262E+02  0.19186291381E+02  0.34381530543E+02  0.00000000000E+00 0. -1.
         22    1    3    3    0    0  0.85448468940E+02 -0.10064143102E+03 -0.72888977539E+02  0.15080763087E+03  0.00000000000E+00 0. -1.
</event>
<event>
 7    1  0.6510186E-006  0.9324269E+02  0.7818608E-02  0.1349516E+00
          2   -1    0    0  502    0  0.00000000000E+00  0.00000000000E+00  0.60487965020E+03  0.60487965020E+03  0.00000000000E+00 0. -1.
          1   -1    0    0  501    0 -0.00000000000E+00 -0.00000000000E+00 -0.70387346415E+02  0.70387346415E+02  0.00000000000E+00 0. -1.
         25    2    1    2    0    0  0.52360561408E+01 -0.12192934995E+03  0.47915447507E+03  0.51000740929E+03  0.12499745555E+03 0.  0.
          2    1    1    2  501    0  0.15274471840E+02  0.55409230970E+02 -0.21695170731E+02  0.61434296608E+02  0.00000000000E+00 0. -1.
          1    1    1    2  502    0 -0.20510527981E+02  0.66520118983E+02  0.77032999444E+02  0.10382529071E+03  0.00000000000E+00 0. -1.
         22    1    3    3    0    0 -0.31244131604E+02  0.13697151080E+02  0.85942448726E+02  0.92465735277E+02  0.00000000000E+00 0. -1.
         22    1    3    3    0    0  0.36480187745E+02 -0.13562650103E+03  0.39321202634E+03  0.41754167402E+03  0.00000000000E+00 0. -1.
</event>
<event>
 7    1  0.6510186E-006  0.1260024E+03  0.7818608E-02  0.1305786E+00
          2   -1    0    0  502    0  0.00000000000E+00  0.00000000000E+00  0.32642834225E+04  0.32642834225E+04  0.00000000000E+00 0. -1.
          1   -1    0    0  501    0 -0.00000000000E+00 -0.00000000000E+00 -0.19262171022E+02  0.19262171022E+02  0.00000000000E+00 0. -1.
         25    2    1    2    0    0  0.82560513957E+02 -0.33161637061E+02  0.10760669064E+04  0.10869503309E+04  0.12500040858E+03 0.  0.
          2    1    1    2  501    0  0.32233578000E+02 -0.53640828070E+02  0.74907832399E+02  0.97609043339E+02  0.00000000000E+00 0. -1.
          1    1    1    2  502    0 -0.11479409196E+03  0.86802465131E+02  0.20940465126E+04  0.20989862193E+04  0.00000000000E+00 0. -1.
         22    1    3    3    0    0  0.81351702635E+02 -0.75049090209E+02  0.82877683309E+03  0.83613486025E+03  0.00000000000E+00 0.  1.
         22    1    3    3    0    0  0.12088113224E+01  0.41887453148E+02  0.24729007330E+03  0.25081547064E+03  0.00000000000E+00 0.  1.
</event>
<event>
 7    1  0.6510186E-006  0.5300112E+02  0.7818608E-02  0.1481674E+00
          2   -1    0    0  502    0  0.00000000000E+00  0.00000000000E+00  0.30503636450E+03  0.30503636450E+03  0.00000000000E+00 0. -1.
          1   -1    0    0  501    0 -0.00000000000E+00 -0.00000000000E+00 -0.47799272504E+03  0.47799272504E+03  0.00000000000E+00 0. -1.
         25    2    1    2    0    0 -0.35073789601E+02  0.37983644165E+02  0.59789249587E+02  0.14789550434E+03  0.12500159158E+03 0.  0.
          2    1    1    2  501    0  0.32552274939E+02  0.16002709341E+02 -0.42953188026E+03  0.43106075380E+03  0.00000000000E+00 0. -1.
          1    1    1    2  502    0  0.25215146617E+01 -0.53986353507E+02  0.19678627014E+03  0.20407283140E+03  0.00000000000E+00 0. -1.
         22    1    3    3    0    0 -0.34266089396E+02  0.24497868632E+02  0.98374579728E+02  0.10701340284E+03  0.00000000000E+00 0. -1.
         22    1    3    3    0    0 -0.80770020440E+00  0.13485775534E+02 -0.38585330141E+02  0.40882101505E+02  0.00000000000E+00 0. -1.
</event>
<event>
 7    1  0.6510186E-006  0.4219185E+02  0.7818608E-02  0.1561359E+00
          2   -1    0    0  502    0  0.00000000000E+00  0.00000000000E+00  0.15601994657E+03  0.15601994657E+03  0.00000000000E+00 0. -1.
          1   -1    0    0  501    0 -0.00000000000E+00 -0.00000000000E+00 -0.15643787107E+03  0.15643787107E+03  0.00000000000E+00 0. -1.
         25    2    1    2    0    0 -0.64809958197E+02 -0.55661769283E+01 -0.69409115035E+02  0.15707943540E+03  0.12500004307E+03 0.  0.
          2    1    1    2  501    0  0.25588687675E+02 -0.78442185502E+01 -0.34634179805E+02  0.43770299431E+02  0.00000000000E+00 0. -1.
          1    1    1    2  502    0  0.39221270523E+02  0.13410395479E+02  0.10362537034E+03  0.11160808280E+03  0.00000000000E+00 0. -1.
         22    1    3    3    0    0  0.26919664684E+01  0.21913912132E+02 -0.80397994488E+02  0.83374478985E+02  0.00000000000E+00 0. -1.
         22    1    3    3    0    0 -0.67501924666E+02 -0.27480089060E+02  0.10988879452E+02  0.73704956414E+02  0.00000000000E+00 0. -1.
</event>
<event>
 7    1  0.6510186E-006  0.1168847E+03  0.7818608E-02  0.1319659E+00
          2   -1    0    0  502    0  0.00000000000E+00  0.00000000000E+00  0.80134909502E+03  0.80134909502E+03  0.00000000000E+00 0. -1.
          1   -1    0    0  501    0 -0.00000000000E+00 -0.00000000000E+00 -0.18014971078E+03  0.18014971078E+03  0.00000000000E+00 0. -1.
         25    2    1    2    0    0 -0.84309498326E+01 -0.62491864188E+02  0.23249575077E+03  0.27139315919E+03  0.12499463480E+03 0.  0.
          2    1    1    2  501    0  0.39863221748E+01  0.12183966754E+03 -0.13565429114E+03  0.18238114501E+03  0.00000000000E+00 0. -1.
          1    1    1    2  502    0  0.44446276579E+01 -0.59347803351E+02  0.52435792462E+03  0.52772450160E+03  0.00000000000E+00 0. -1.
         22    1    3    3    0    0 -0.57028512129E+02 -0.55517730779E+02  0.19168179030E+03  0.20754849641E+03  0.00000000000E+00 0.  1.
         22    1    3    3    0    0  0.48597562296E+02 -0.69741334084E+01  0.40813960462E+02  0.63844662788E+02  0.00000000000E+00 0.  1.
</event>
<event>
 7    1  0.6510186E-006  0.6988358E+02  0.7818608E-02  0.1415511E+00
          2   -1    0    0  502    0  0.00000000000E+00  0.00000000000E+00  0.15902268003E+03  0.15902268003E+03  0.00000000000E+00 0. -1.
          1   -1    0    0  501    0 -0.00000000000E+00 -0.00000000000E+00 -0.54610558491E+03  0.54610558491E+03  0.00000000000E+00 0. -1.
         25    2    1    2    0    0 -0.13585155638E+01 -0.47842900080E+02 -0.90130834799E+02  0.16136611166E+03  0.12499866382E+03 0.  0.
          2    1    1    2  501    0 -0.42003186068E+02  0.59285092550E+02 -0.41300421109E+03  0.41934647753E+03  0.00000000000E+00 0. -1.
          1    1    1    2  502    0  0.43361701631E+02 -0.11442192470E+02  0.11605214102E+03  0.12441567575E+03  0.00000000000E+00 0. -1.
         22    1    3    3    0    0 -0.37179501854E+02 -0.73726416293E+02 -0.82115808009E+02  0.11645130202E+03  0.00000000000E+00 0.  1.
         22    1    3    3    0    0  0.35820986290E+02  0.25883516213E+02 -0.80150267902E+01  0.44914809638E+02  0.00000000000E+00 0.  1.
</event>
<event>
 7    1  0.6510186E-006  0.4759914E+02  0.7818608E-02  0.1477350E+00
          2   -1    0    0  502    0  0.00000000000E+00  0.00000000000E+00  0.30410980609E+04  0.30410980609E+04  0.00000000000E+00 0. -1.
          1   -1    0    0  501    0 -0.00000000000E+00 -0.00000000000E+00 -0.18512722288E+03  0.18512722288E+03  0.00000000000E+00 0. -1.
         25    2    1    2    0    0 -0.14087892562E+02  0.83762391971E+02  0.32478708170E+03  0.35822678223E+03  0.12500068816E+03 0.  0.
          2    1    1    2  501    0 -0.53968491365E+01 -0.46958895848E+02 -0.16492665624E+03  0.17156650552E+03  0.00000000000E+00 0. -1.
          1    1    1    2  502    0  0.19484741698E+02 -0.36803496123E+02  0.26961104125E+04  0.26964319960E+04  0.00000000000E+00 0. -1.
         22    1    3    3    0    0  0.45726331681E+02  0.60617352607E+02  0.10707790698E+03  0.13126705226E+03  0.00000000000E+00 0.  1.
         22    1    3    3    0    0 -0.59814224242E+02  0.23145039364E+02  0.21770917472E+03  0.22695972997E+03  0.00000000000E+00 0.  1.
</event>
<event>
 7    1  0.6510186E-006  0.1817275E+03  0.7818608E-02  0.1266607E+00
          2   -1    0    0  502    0  0.00000000000E+00  0.00000000000E+00  0.75919868375E+02  0.75919868375E+02  0.00000000000E+00 0. -1.
          1   -1    0    0  501    0 -0.00000000000E+00 -0.00000000000E+00 -0.24174031692E+04  0.24174031692E+04  0.00000000000E+00 0. -1.
         25    2    1    2    0    0 -0.14761706832E+03 -0.65924934703E+01 -0.35992671862E+03  0.40866364015E+03  0.12499787267E+03 0.  0.
          2    1    1    2  501    0 -0.46563573167E+02 -0.42093433460E+02 -0.18361767868E+04  0.18372493614E+04  0.00000000000E+00 0. -1.
          1    1    1    2  502    0  0.19418064149E+03  0.48685926931E+02 -0.14537979532E+03  0.24741003597E+03  0.00000000000E+00 0. -1.
         22    1    3    3    0    0 -0.93772280369E+02 -0.58164310123E+02 -0.27107741628E+03  0.29267608914E+03  0.00000000000E+00 0. -1.
         22    1    3    3    0    0 -0.53844787952E+02  0.51571816653E+02 -0.88849302343E+02  0.11598755101E+03  0.00000000000E+00 0. -1.
</event>
<event>
 7    1  0.6510186E-006  0.1046498E+03  0.7818608E-02  0.1419689E+00
          2   -1    0    0  502    0  0.00000000000E+00  0.00000000000E+00  0.29933003911E+03  0.29933003911E+03  0.00000000000E+00 0. -1.
          1   -1    0    0  501    0 -0.00000000000E+00 -0.00000000000E+00 -0.60463161807E+03  0.60463161807E+03  0.00000000000E+00 0. -1.
         25    2    1    2    0    0 -0.35491872900E+02 -0.98425384558E+02  0.78587641173E+02  0.18096783513E+03  0.12500444248E+03 0.  0.
          2    1    1    2  501    0  0.71498750611E+01  0.10455450884E+03 -0.54719167620E+03  0.55713687415E+03  0.00000000000E+00 0. -1.
          1    1    1    2  502    0  0.28341997839E+02 -0.61291242832E+01  0.16330245607E+03  0.16585694790E+03  0.00000000000E+00 0. -1.
         22    1    3    3    0    0 -0.80638062957E+02 -0.69445252532E+02  0.67988096047E+02  0.12628349655E+03  0.00000000000E+00 0.  1.
         22    1    3    3    0    0  0.45146190057E+02 -0.28980132026E+02  0.10599545126E+02  0.54684338579E+02  0.00000000000E+00 0.  1.
</event>
<event>
 7    1  0.6510186E-006  0.2560407E+03  0.7818608E-02  0.1127899E+00
          2   -1    0    0  502    0  0.00000000000E+00  0.00000000000E+00  0.43396458730E+03  0.43396458730E+03  0.00000000000E+00 0. -1.
          1   -1    0    0  501    0 -0.00000000000E+00 -0.00000000000E+00 -0.82379583312E+03  0.82379583312E+03  0.00000000000E+00 0. -1.
         25    2    1    2    0    0  0.20559066049E+03  0.31222317958E+03 -0.37628685449E+03  0.54495079859E+03  0.12501496902E+03 0.  0.
          2    1    1    2  501    0 -0.19302346847E+03 -0.64204377020E+02 -0.28160662092E+03  0.34739394116E+03  0.00000000000E+00 0. -1.
          1    1    1    2  502    0 -0.12567192025E+02 -0.24801880256E+03  0.26806222959E+03  0.36541568066E+03  0.00000000000E+00 0. -1.
         22    1    3    3    0    0  0.13382882933E+03  0.98836744265E+02 -0.19166717860E+03  0.25380142815E+03  0.00000000000E+00 0. -1.
         22    1    3    3    0    0  0.71761831169E+02  0.21338643531E+03 -0.18461967589E+03  0.29114937045E+03  0.00000000000E+00 0. -1.
</event>
<event>
 7    1  0.6510186E-006  0.7673982E+02  0.7818608E-02  0.1407334E+00
          2   -1    0    0  502    0  0.00000000000E+00  0.00000000000E+00  0.27365891396E+04  0.27365891396E+04  0.00000000000E+00 0. -1.
          1   -1    0    0  501    0 -0.00000000000E+00 -0.00000000000E+00 -0.30508679564E+02  0.30508679564E+02  0.00000000000E+00 0. -1.
         25    2    1    2    0    0 -0.48016371966E+02 -0.74794087197E+00  0.10251720674E+04  0.10338802057E+04  0.12499752243E+03 0.  0.
          2    1    1    2  501    0 -0.29983805772E+02 -0.31548519133E+02 -0.62306580171E+01  0.43967701411E+02  0.00000000000E+00 0. -1.
          1    1    1    2  502    0  0.78000177738E+02  0.32296460005E+02  0.16871390507E+04  0.16892499120E+04  0.00000000000E+00 0. -1.
         22    1    3    3    0    0 -0.67762335004E+02 -0.47724380635E+02  0.65044269381E+03  0.65570195095E+03  0.00000000000E+00 0.  1.
         22    1    3    3    0    0  0.19745963039E+02  0.46976439763E+02  0.37472937355E+03  0.37817825473E+03  0.00000000000E+00 0.  1.
</event>
<event>
 7    1  0.6510186E-006  0.5907098E+02  0.7818608E-02  0.1459662E+00
          2   -1    0    0  502    0  0.00000000000E+00  0.00000000000E+00  0.61602178157E+03  0.61602178157E+03  0.00000000000E+00 0. -1.
          1   -1    0    0  501    0 -0.00000000000E+00 -0.00000000000E+00 -0.51058820606E+03  0.51058820606E+03  0.00000000000E+00 0. -1.
         25    2    1    2    0    0  0.16100482696E+02  0.38273590484E+02  0.27783500499E+03  0.30747544203E+03  0.12499905673E+03 0.  0.
          2    1    1    2  501    0 -0.52578902093E+02 -0.27281481773E+02 -0.49286619706E+03  0.49641304213E+03  0.00000000000E+00 0. -1.
          1    1    1    2  502    0  0.36478419397E+02 -0.10992108710E+02  0.32046476759E+03  0.32272150347E+03  0.00000000000E+00 0. -1.
         22    1    3    3    0    0  0.22160828929E+02  0.32532264493E+02  0.29003428921E+03  0.29269325152E+03  0.00000000000E+00 0. -1.
         22    1    3    3    0    0 -0.60603462327E+01  0.57413259904E+01 -0.12199284222E+02  0.14782190505E+02  0.00000000000E+00 0. -1.
</event>
<event>
 7    1  0.6510186E-006  0.7944504E+02  0.7818608E-02  0.1442099E+00
          2   -1    0    0  502    0  0.00000000000E+00  0.00000000000E+00  0.85831295277E+03  0.85831295277E+03  0.00000000000E+00 0. -1.
          1   -1    0    0  501    0 -0.00000000000E+00 -0.00000000000E+00 -0.22362255086E+04  0.22362255086E+04  0.00000000000E+00 0. -1.
         25    2    1    2    0    0 -0.22933756357E+02 -0.43800073754E+02 -0.83989633473E+02  0.15850448248E+03  0.12500003518E+03 0.  0.
          2    1    1    2  501    0  0.47967810346E+02  0.64109191706E+02 -0.21139038365E+04  0.21154196579E+04  0.00000000000E+00 0. -1.
          1    1    1    2  502    0 -0.25034053989E+02 -0.20309117952E+02  0.81998091415E+03  0.82061432092E+03  0.00000000000E+00 0. -1.
         22    1    3    3    0    0 -0.13744580184E+02  0.65482741453E+01  0.29950227945E+02  0.33597760828E+02  0.00000000000E+00 0.  1.
         22    1    3    3    0    0 -0.91891761733E+01 -0.50348347899E+02 -0.11393986142E+03  0.12490672166E+03  0.00000000000E+00 0.  1.
</event>
<event>
 7    1  0.6510186E-006  0.5956784E+02  0.7818608E-02  0.1400151E+00
          2   -1    0    0  502    0  0.00000000000E+00  0.00000000000E+00  0.26175639698E+02  0.26175639698E+02  0.00000000000E+00 0. -1.
          1   -1    0    0  501    0 -0.00000000000E+00 -0.00000000000E+00 -0.10681753009E+04  0.10681753009E+04  0.00000000000E+00 0. -1.
         25    2    1    2    0    0  0.64038219873E+01  0.18926175712E+02 -0.53896314892E+03  0.55362928178E+03  0.12499958677E+03 0.  0.
          2    1    1    2  501    0 -0.49678395319E+02 -0.59520021540E+02 -0.46228500194E+03  0.46874086545E+03  0.00000000000E+00 0. -1.
          1    1    1    2  502    0  0.43274573332E+02  0.40593845828E+02 -0.40751510320E+02  0.71980793338E+02  0.00000000000E+00 0. -1.
         22    1    3    3    0    0 -0.53822847007E+02  0.32025382657E+02 -0.32433157240E+03  0.33032331563E+03  0.00000000000E+00 0.  1.
         22    1    3    3    0    0  0.60226668994E+02 -0.13099206945E+02 -0.21463157652E+03  0.22330596615E+03  0.00000000000E+00 0.  1.
</event>
<event>
 7    1  0.6510186E-006  0.1791851E+03  0.7818608E-02  0.1288020E+00
          2   -1    0    0  502    0  0.00000000000E+00  0.00000000000E+00  0.45459030825E+03  0.45459030825E+03  0.00000000000E+00 0. -1.
          1   -1    0    0  501    0 -0.00000000000E+00 -0.00000000000E+00 -0.59004791708E+03  0.59004791708E+03  0.00000000000E+00 0. -1.
         25    2    1    2    0    0 -0.24674719646E+02 -0.16742242399E+03 -0.20559782536E+03  0.29416746794E+03  0.12499969423E+03 0.  0.
          2    1    1    2  501    0 -0.23792212587E+02  0.18592590903E+03 -0.31245941361E+03  0.36436986453E+03  0.00000000000E+00 0. -1.
          1    1    1    2  502    0  0.48466932233E+02 -0.18503485040E+02  0.38259963014E+03  0.38610089285E+03  0.00000000000E+00 0. -1.
         22    1    3    3    0    0 -0.10773495104E+01 -0.17657781690E+03 -0.20248537535E+03  0.26866561621E+03  0.00000000000E+00 0.  1.
         22    1    3    3    0    0 -0.23597370135E+02  0.91553929061E+01 -0.31124500066E+01  0.25501851729E+02  0.00000000000E+00 0.  1.
</event>
<event>
 7    1  0.6510186E-006  0.9057248E+02  0.7818608E-02  0.1474706E+00
          2   -1    0    0  502    0  0.00000000000E+00  0.00000000000E+00  0.50440470410E+03  0.50440470410E+03  0.00000000000E+00 0. -1.
          1   -1    0    0  501    0 -0.00000000000E+00 -0.00000000000E+00 -0.49408635732E+03  0.49408635732E+03  0.00000000000E+00 0. -1.
         25    2    1    2    0    0  0.74880855989E+02  0.61830524489E+02 -0.38588887392E+02  0.16292369780E+03  0.12499949089E+03 0.  0.
          2    1    1    2  501    0 -0.19957457127E+02  0.99492487152E+01 -0.38838894138E+03  0.38902860747E+03  0.00000000000E+00 0. -1.
          1    1    1    2  502    0 -0.54923398863E+02 -0.71779773205E+02  0.43729617556E+03  0.44653875615E+03  0.00000000000E+00 0. -1.
         22    1    3    3    0    0  0.72582544997E+02  0.20429498122E+02 -0.76012756445E+02  0.10706787275E+03  0.00000000000E+00 0. -1.
         22    1    3    3    0    0  0.22983109921E+01  0.41401026367E+02  0.37423869053E+02  0.55855825055E+02  0.00000000000E+00 0. -1.
</event>
<event>
 7    1  0.6510186E-006  0.6853161E+02  0.7818608E-02  0.1395821E+00
          2   -1    0    0  502    0  0.00000000000E+00  0.00000000000E+00  0.12221261711E+04  0.12221261711E+04  0.00000000000E+00 0. -1.
          1   -1    0    0  501    0 -0.00000000000E+00 -0.00000000000E+00 -0.74232966967E+02  0.74232966967E+02  0.00000000000E+00 0. -1.
         25    2    1    2    0    0  0.44687509139E+02 -0.28636580687E+02  0.13603942539E+03  0.19221910508E+03  0.12499772747E+03 0.  0.
          2    1    1    2  501    0 -0.72030378168E+02 -0.17206006307E+02 -0.15282860842E+02  0.75617378079E+02  0.00000000000E+00 0. -1.
          1    1    1    2  502    0  0.27342869029E+02  0.45842586995E+02  0.10271366396E+04  0.10285226549E+04  0.00000000000E+00 0. -1.
         22    1    3    3    0    0 -0.17739143336E+02  0.39598612310E+01  0.11817432927E+03  0.11956391515E+03  0.00000000000E+00 0. -1.
         22    1    3    3    0    0  0.62426652475E+02 -0.32596441918E+02  0.17865096117E+02  0.72655189933E+02  0.00000000000E+00 0. -1.
</event>
<event>
 7    1  0.6510186E-006  0.9414942E+02  0.7818608E-02  0.1359394E+00
          2   -1    0    0  502    0  0.00000000000E+00  0.00000000000E+00  0.50423342529E+02  0.50423342529E+02  0.00000000000E+00 0. -1.
          1   -1    0    0  501    0 -0.00000000000E+00 -0.00000000000E+00 -0.20853720741E+04  0.20853720741E+04  0.00000000000E+00 0. -1.
         25    2    1    2    0    0 -0.51904021972E+02  0.11605747214E+02 -0.14104078298E+04  0.14169352108E+04  0.12500569788E+03 0.  0.
          2    1    1    2  501    0 -0.41746800903E+02 -0.31589451919E+02 -0.62082557056E+03  0.62302895432E+03  0.00000000000E+00 0. -1.
          1    1    1    2  502    0  0.93650822875E+02  0.19983704704E+02 -0.37153312499E+01  0.95831251505E+02  0.00000000000E+00 0. -1.
         22    1    3    3    0    0 -0.81274574674E+02  0.35878347417E+02 -0.11853629147E+04  0.11886875334E+04  0.00000000000E+00 0. -1.
         22    1    3    3    0    0  0.29370552702E+02 -0.24272600203E+02 -0.22504491504E+03  0.22824767748E+03  0.00000000000E+00 0. -1.
</event>
<event>
 7    1  0.6510186E-006  0.3088461E+03  0.7818608E-02  0.1246728E+00
          2   -1    0    0  502    0  0.00000000000E+00  0.00000000000E+00  0.23235486324E+04  0.23235486324E+04  0.00000000000E+00 0. -1.
          1   -1    0    0  501    0 -0.00000000000E+00 -0.00000000000E+00 -0.76975328628E+03  0.76975328628E+03  0.00000000000E+00 0. -1.
         25    2    1    2    0    0  0.27819419579E+03  0.33658705075E+02  0.13020175073E+03  0.33332039995E+03  0.12500029654E+03 0.  0.
          2    1    1    2  501    0 -0.31353786740E+03 -0.58847573648E+01 -0.63114116520E+03  0.70475513128E+03  0.00000000000E+00 0. -1.
          1    1    1    2  502    0  0.35343671610E+02 -0.27773947710E+02  0.20547347606E+04  0.20552263874E+04  0.00000000000E+00 0. -1.
         22    1    3    3    0    0  0.26923910201E+03  0.40323206181E+01  0.92886504985E+02  0.28484005419E+03  0.00000000000E+00 0. -1.
         22    1    3    3    0    0  0.89550937772E+01  0.29626384457E+02  0.37315245745E+02  0.48480345766E+02  0.00000000000E+00 0. -1.
</event>
<event>
 7    1  0.6510186E-006  0.1278752E+03  0.7818608E-02  0.1322697E+00
          2   -1    0    0  502    0  0.00000000000E+00  0.00000000000E+00  0.36313332604E+03  0.36313332604E+03  0.00000000000E+00 0. -1.
          1   -1    0    0  501    0 -0.00000000000E+00 -0.00000000000E+00 -0.44199637167E+03  0.44199637167E+03  0.00000000000E+00 0. -1.
         25    2    1    2    0    0  0.11298684172E+03  0.67601255252E+02 -0.70337371365E+02  0.19469929133E+03  0.12499804847E+03 0.  0.
          2    1    1    2  501    0  0.14436178405E+02 -0.50939067376E+02 -0.29328044820E+03  0.29802116222E+03  0.00000000000E+00 0. -1.
          1    1    1    2  502    0 -0.12742302012E+03 -0.16662187877E+02  0.28475477393E+03  0.31240924416E+03  0.00000000000E+00 0. -1.
         22    1    3    3    0    0  0.88590079861E+02 -0.13401855550E+02 -0.63515677216E+02  0.10982737926E+03  0.00000000000E+00 0.  1.
         22    1    3    3    0    0  0.24396761856E+02  0.81003110802E+02 -0.68216941482E+01  0.84871912078E+02  0.00000000000E+00 0.  1.
</event>
<event>
 7    1  0.1941072E-005  0.4871177E+02  0.7818608E-02  0.1493675E+00
          2   -1    0    0  502    0  0.00000000000E+00  0.00000000000E+00  0.23187496197E+04  0.23187496197E+04  0.00000000000E+00 0. -1.
          1   -1    0    0  501    0 -0.00000000000E+00 -0.00000000000E+00 -0.15089799331E+04  0.15089799331E+04  0.00000000000E+00 0. -1.
         25    2    1    2    0    0  0.16983091898E+02 -0.23539986819E+02 -0.23055890003E+03  0.26386507003E+03  0.12499924962E+03 0.  0.
          2    1    1    2  501    0 -0.49100143404E+02  0.66405279115E+01 -0.12611384254E+04  0.12621113456E+04  0.00000000000E+00 0. -1.
          1    1    1    2  502    0  0.32117051505E+02  0.16899458908E+02  0.23014670121E+04  0.23017531371E+04  0.00000000000E+00 0. -1.
         22    1    3    3    0    0 -0.31357081997E+02 -0.59590457504E+02 -0.10796716034E+03  0.12724463418E+03  0.00000000000E+00 0.  1.
         22    1    3    3    0    0  0.48340173895E+02  0.36050470684E+02 -0.12259173969E+03  0.13662043584E+03  0.00000000000E+00 0.  1.
</event>
<event>
 7    1  0.6510186E-006  0.3469132E+02  0.7818608E-02  0.1586285E+00
          2   -1    0    0  502    0  0.00000000000E+00  0.00000000000E+00  0.37420980154E+03  0.37420980154E+03  0.00000000000E+00 0. -1.
          1   -1    0    0  501    0 -0.00000000000E+00 -0.00000000000E+00 -0.13895888903E+04  0.13895888903E+04  0.00000000000E+00 0. -1.
         25    2    1    2    0    0 -0.24874916747E+02 -0.55091039404E+02 -0.62138478354E+03  0.63670844585E+03  0.12499924678E+03 0.  0.
          2    1    1    2  501    0  0.18244892951E+02  0.21071224735E+02 -0.75946672337E+03  0.75997801056E+03  0.00000000000E+00 0. -1.
          1    1    1    2  502    0  0.66300237961E+01  0.34019814669E+02  0.36547241813E+03  0.36711223545E+03  0.00000000000E+00 0. -1.
         22    1    3    3    0    0 -0.17248281101E+02  0.20946559666E+02 -0.42670868041E+03  0.42757053161E+03  0.00000000000E+00 0.  1.
         22    1    3    3    0    0 -0.76266356461E+01 -0.76037599070E+02 -0.19467610313E+03  0.20913791425E+03  0.00000000000E+00 0.  1.
</event>
<event>
 7    1  0.6510186E-006  0.7444891E+02  0.7818608E-02  0.1354170E+00
          2   -1    0    0  502    0  0.00000000000E+00  0.00000000000E+00  0.10927033300E+04  0.10927033300E+04  0.00000000000E+00 0. -1.
          1   -1    0    0  501    0 -0.00000000000E+00 -0.00000000000E+00 -0.79165832939E+03  0.79165832939E+03  0.00000000000E+00 0. -1.
         25    2    1    2    0    0  0.10897183603E+03 -0.45063434925E+02 -0.14747918963E+02  0.17248082452E+03  0.12500623783E+03 0.  0.
          2    1    1    2  501    0 -0.41634957068E+02  0.60972424704E+02 -0.69490558024E+03  0.69881676545E+03  0.00000000000E+00 0. -1.
          1    1    1    2  502    0 -0.67336878963E+02 -0.15908989779E+02  0.10106984998E+04  0.10130640694E+04  0.00000000000E+00 0. -1.
         22    1    3    3    0    0  0.35585992153E+02 -0.36187211542E+01  0.53278635849E+02  0.64172198172E+02  0.00000000000E+00 0. -1.
         22    1    3    3    0    0  0.73385843878E+02 -0.41444713771E+02 -0.68026554812E+02  0.10830862635E+03  0.00000000000E+00 0. -1.
</event>
<event>
 7    1  0.6510186E-006  0.9977100E+02  0.7818608E-02  0.1409582E+00
          2   -1    0    0  502    0  0.00000000000E+00  0.00000000000E+00  0.13139735147E+04  0.13139735147E+04  0.00000000000E+00 0. -1.
          1   -1    0    0  501    0 -0.00000000000E+00 -0.00000000000E+00 -0.96946059451E+02  0.96946059451E+02  0.00000000000E+00 0. -1.
         25    2    1    2    0    0 -0.43312892338E+02  0.58796021869E+02  0.30480397275E+03  0.33743799533E+03  0.12500384015E+03 0.  0.
          2    1    1    2  501    0 -0.27810035496E+02  0.17566470177E+02 -0.74404057441E+02  0.81350738856E+02  0.00000000000E+00 0. -1.
          1    1    1    2  502    0  0.71122927834E+02 -0.76362492047E+02  0.98662753991E+03  0.99213083995E+03  0.00000000000E+00 0. -1.
         22    1    3    3    0    0 -0.58996204508E+02  0.84761877993E+02  0.16713735768E+03  0.19646888924E+03  0.00000000000E+00 0. -1.
         22    1    3    3    0    0  0.15683312170E+02 -0.25965856123E+02  0.13766661507E+03  0.14096910608E+03  0.00000000000E+00 0. -1.
</event>
<event>
 7    1  0.6510186E-006  0.3798527E+02  0.7818608E-02  0.1529073E+00
          2   -1    0    0  502    0  0.00000000000E+00  0.00000000000E+00  0.12102084303E+04  0.12102084303E+04  0.00000000000E+00 0. -1.
          1   -1    0    0  501    0 -0.00000000000E+00 -0.00000000000E+00 -0.17918096941E+04  0.17918096941E+04  0.00000000000E+00 0. -1.
         25    2    1    2    0    0  0.33369675691E+02 -0.49069997114E+02 -0.18519895300E+03  0.23120497390E+03  0.12504274426E+03 0.  0.
          2    1    1    2  501    0  0.24758839921E+01  0.36544059325E+02 -0.15830922284E+04  0.15835158989E+04  0.00000000000E+00 0. -1.
          1    1    1    2  502    0 -0.35845559683E+02  0.12525937789E+02  0.11866899175E+04  0.11872972516E+04  0.00000000000E+00 0. -1.
         22    1    3    3    0    0  0.12690412112E+02  0.40938999723E+02 -0.83311682892E+02  0.93690366443E+02  0.00000000000E+00 0.  1.
         22    1    3    3    0    0  0.20679263579E+02 -0.90008996837E+02 -0.10188727011E+03  0.13751460745E+03  0.00000000000E+00 0.  1.
</event>
<event>
 7    1  0.6510186E-006  0.5250962E+02  0.7818608E-02  0.1551966E+00
          2   -1    0    0  502    0  0.00000000000E+00  0.00000000000E+00  0.49018735774E+03  0.49018735774E+03  0.00000000000E+00 0. -1.
          1   -1    0    0  501    0 -0.00000000000E+00 -0.00000000000E+00 -0.14409571248E+04  0.14409571248E+04  0.00000000000E+00 0. -1.
         25    2    1    2    0    0  0.38404341504E+02 -0.50027098866E+02 -0.11986835441E+04  0.12068324762E+04  0.12499913123E+03 0.  0.
          2    1    1    2  501    0  0.60070519381E+01  0.22025973802E+02 -0.23622958824E+03  0.23733024787E+03  0.00000000000E+00 0. -1.
          1    1    1    2  502    0 -0.44411393443E+02  0.28001125064E+02  0.48414336528E+03  0.48698175840E+03  0.00000000000E+00 0. -1.
         22    1    3    3    0    0  0.72210057644E+02 -0.44426225935E+02 -0.48702245329E+03  0.49434689438E+03  0.00000000000E+00 0.  1.
         22    1    3    3    0    0 -0.33805716140E+02 -0.56008729311E+01 -0.71166109077E+03  0.71248558184E+03  0.00000000000E+00 0.  1.
</event>
<event>
 7    1  0.6510186E-006  0.1257014E+03  0.7818608E-02  0.1240949E+00
          2   -1    0    0  502    0  0.00000000000E+00  0.00000000000E+00  0.22692340613E+04  0.22692340613E+04  0.00000000000E+00 0. -1.
          1   -1    0    0  501    0 -0.00000000000E+00 -0.00000000000E+00 -0.56981149255E+02  0.56981149255E+02  0.00000000000E+00 0. -1.
         25    2    1    2    0    0 -0.74652694649E+01 -0.18188250382E+03  0.96861540720E+03  0.99346760148E+03  0.12500037075E+03 0.  0.
          2    1    1    2  501    0 -0.71891855166E+02  0.92402342443E+02  0.40803377607E+02  0.12398204448E+03  0.00000000000E+00 0. -1.
          1    1    1    2  502    0  0.79357124631E+02  0.89480161373E+02  0.12028341272E+04  0.12087655646E+04  0.00000000000E+00 0. -1.
         22    1    3    3    0    0 -0.96671574144E+01 -0.19507062520E+03  0.76934630624E+03  0.79375042783E+03  0.00000000000E+00 0. -1.
         22    1    3    3    0    0  0.22018879495E+01  0.13188121381E+02  0.19926910096E+03  0.19971717366E+03  0.00000000000E+00 0. -1.
</event>
<event>
 7    1  0.6510186E-006  0.6073870E+02  0.7818608E-02  0.1445760E+00
          2   -1    0    0  502    0  0.00000000000E+00  0.00000000000E+00  0.28102171674E+04  0.28102171674E+04  0.00000000000E+00 0. -1.
          1   -1    0    0  501    0 -0.00000000000E+00 -0.00000000000E+00 -0.22576195960E+03  0.22576195960E+03  0.00000000000E+00 0. -1.
         25    2    1    2    0    0  0.40440173568E+02  0.87369243935E+02  0.12611841492E+04  0.12710150667E+04  0.12500019720E+03 0.  0.
          2    1    1    2  501    0 -0.10055457359E+02 -0.59793292901E+02 -0.21640635531E+03  0.22473998468E+03  0.00000000000E+00 0. -1.
          1    1    1    2  502    0 -0.30384716209E+02 -0.27575951034E+02  0.15396774139E+04  0.15402240755E+04  0.00000000000E+00 0. -1.
         22    1    3    3    0    0 -0.27574873694E+02 -0.80753913510E+01  0.10352207831E+03  0.10743559141E+03  0.00000000000E+00 0.  1.
         22    1    3    3    0    0  0.68015047262E+02  0.95444635286E+02  0.11576620709E+04  0.11635794753E+04  0.00000000000E+00 0.  1.
</event>
<event>
 7    1  0.6510186E-006  0.9903596E+02  0.7818608E-02  0.1310672E+00
          2   -1    0    0  502    0  0.00000000000E+00  0.00000000000E+00  0.15729240311E+04  0.15729240311E+04  0.00000000000E+00 0. -1.
          1   -1    0    0  501    0 -0.00000000000E+00 -0.00000000000E+00 -0.46135883049E+03  0.46135883049E+03  0.00000000000E+00 0. -1.
         25    2    1    2    0    0 -0.41165275552E+02  0.10130917701E+02  0.67390129236E+02  0.14819936677E+03  0.12499762953E+03 0.  0.
          2    1    1    2  501    0  0.59411701245E+02 -0.84070750028E+02 -0.41365153598E+03  0.42626896964E+03  0.00000000000E+00 0. -1.
          1    1    1    2  502    0 -0.18246425694E+02  0.73939832327E+02  0.14578266073E+04  0.14598145252E+04  0.00000000000E+00 0. -1.
         22    1    3    3    0    0 -0.45779271399E+02  0.53427136475E+02  0.29391402942E+01  0.70419025464E+02  0.00000000000E+00 0.  1.
         22    1    3    3    0    0  0.46139958471E+01 -0.43296218774E+02  0.64450988941E+02  0.77780341304E+02  0.00000000000E+00 0.  1.
</event>
<event>
 7    1  0.6510186E-006  0.1536106E+03  0.7818608E-02  0.1261350E+00
          2   -1    0    0  502    0  0.00000000000E+00  0.00000000000E+00  0.38769428261E+04  0.38769428261E+04  0.00000000000E+00 0. -1.
          1   -1    0    0  501    0 -0.00000000000E+00 -0.00000000000E+00 -0.15805225092E+03  0.15805225092E+03  0.00000000000E+00 0. -1.
         25    2    1    2    0    0  0.91232048801E+02 -0.25244574736E+02  0.43791054827E+03  0.46513634408E+03  0.12500238004E+03 0.  0.
          2    1    1    2  501    0  0.71215204766E+02  0.32231949700E+02 -0.13178385575E+03  0.15322365551E+03  0.00000000000E+00 0. -1.
          1    1    1    2  502    0 -0.16244725357E+03 -0.69873749638E+01  0.34127638827E+04  0.34166350775E+04  0.00000000000E+00 0. -1.
         22    1    3    3    0    0  0.30142745847E+02 -0.43533565131E+02  0.36263931202E+03  0.36648468868E+03  0.00000000000E+00 0. -1.
         22    1    3    3    0    0  0.61089302953E+02  0.18288990395E+02  0.75271236256E+02  0.98651655397E+02  0.00000000000E+00 0. -1.
</event>
<event>
 7    1  0.6510186E-006  0.1106250E+03  0.7818608E-02  0.1459765E+00
          2   -1    0    0  502    0  0.00000000000E+00  0.00000000000E+00  0.13804678064E+04  0.13804678064E+04  0.00000000000E+00 0. -1.
          1   -1    0    0  501    0 -0.00000000000E+00 -0.00000000000E+00 -0.28159403375E+03  0.28159403375E+03  0.00000000000E+00 0. -1.
         25    2    1    2    0    0  0.21442823141E+02 -0.10234250534E+03  0.18040713351E+03  0.24311717797E+03  0.12500178135E+03 0.  0.
          2    1    1    2  501    0 -0.30632838216E+01  0.11102782390E+03 -0.23782049154E+03  0.26247885169E+03  0.00000000000E+00 0. -1.
          1    1    1    2  502    0 -0.18379539320E+02 -0.86853185655E+01  0.11562871307E+04  0.11564658105E+04  0.00000000000E+00 0. -1.
         22    1    3    3    0    0  0.30714751917E+02 -0.17279193676E+02  0.14715498960E+03  0.15131608468E+03  0.00000000000E+00 0.  1.
         22    1    3    3    0    0 -0.92719287759E+01 -0.85063311663E+02  0.33252143907E+02  0.91801093287E+02  0.00000000000E+00 0.  1.
</event>
<event>
 7    1  0.6510186E-006  0.4526682E+02  0.7818608E-02  0.1484408E+00
          2   -1    0    0  502    0  0.00000000000E+00  0.00000000000E+00  0.63059804001E+03  0.63059804001E+03  0.00000000000E+00 0. -1.
          1   -1    0    0  501    0 -0.00000000000E+00 -0.00000000000E+00 -0.72396490991E+02  0.72396490991E+02  0.00000000000E+00 0. -1.
         25    2    1    2    0    0 -0.16463185078E+02  0.39318655422E+01  0.37391999059E+03  0.39462409084E+03  0.12500207069E+03 0.  0.
          2    1    1    2  501    0 -0.15908688827E+02 -0.42379225161E+02 -0.50761688919E+02  0.68013485187E+02  0.00000000000E+00 0. -1.
          1    1    1    2  502    0  0.32371873904E+02  0.38447359618E+02  0.23504324734E+03  0.24035695497E+03  0.00000000000E+00 0. -1.
         22    1    3    3    0    0  0.16362099937E+02  0.11352221594E+02  0.35588671471E+03  0.35644346670E+03  0.00000000000E+00 0. -1.
         22    1    3    3    0    0 -0.32825285015E+02 -0.74203560517E+01  0.18033275881E+02  0.38180624133E+02  0.00000000000E+00 0. -1.
</event>
<event>
 7    1  0.6510186E-006  0.6557223E+02  0.7818608E-02  0.1507986E+00
          2   -1    0    0  502    0  0.00000000000E+00  0.00000000000E+00  0.11918531689E+04  0.11918531689E+04  0.00000000000E+00 0. -1.
          1   -1    0    0  501    0 -0.00000000000E+00 -0.00000000000E+00 -0.56091224514E+03  0.56091224514E+03  0.00000000000E+00 0. -1.
         25    2    1    2    0    0  0.19364433873E+01 -0.64994875901E+02 -0.34723704670E+02  0.14511728929E+03  0.12500083311E+03 0.  0.
          2    1    1    2  501    0  0.23980919395E+02  0.47040011014E+01 -0.46972661745E+03  0.47036188968E+03  0.00000000000E+00 0. -1.
          1    1    1    2  502    0 -0.25917362782E+02  0.60290874800E+02  0.11353912459E+04  0.11372862351E+04  0.00000000000E+00 0. -1.
         22    1    3    3    0    0  0.61512858202E+02 -0.16994507086E+02 -0.92713724640E+01  0.64487233951E+02  0.00000000000E+00 0.  1.
         22    1    3    3    0    0 -0.59576414815E+02 -0.48000368815E+02 -0.25452332206E+02  0.80630055334E+02  0.00000000000E+00 0.  1.
</event>
<event>
 7    1  0.6510186E-006  0.9665956E+02  0.7818608E-02  0.1385837E+00
          2   -1    0    0  502    0  0.00000000000E+00  0.00000000000E+00  0.32592843610E+04  0.32592843610E+04  0.00000000000E+00 0. -1.
          1   -1    0    0  501    0 -0.00000000000E+00 -0.00000000000E+00 -0.74792264461E+02  0.74792264461E+02  0.00000000000E+00 0. -1.
         25    2    1    2    0    0  0.64695497296E+02  0.26986568842E+02  0.15495336820E+04  0.15561471757E+04  0.12500247501E+03 0.  0.
          2    1    1    2  501    0 -0.97306665618E+02 -0.21340666398E+01 -0.37987927752E+02  0.10448073540E+03  0.00000000000E+00 0. -1.
          1    1    1    2  502    0  0.32611168321E+02 -0.24852502202E+02  0.16729463423E+04  0.16734487143E+04  0.00000000000E+00 0. -1.
         22    1    3    3    0    0  0.16943855604E+02 -0.49470340374E+02  0.48833633751E+03  0.49112807632E+03  0.00000000000E+00 0. -1.
         22    1    3    3    0    0  0.47751641693E+02  0.76456909216E+02  0.10611973444E+04  0.10650190994E+04  0.00000000000E+00 0. -1.
</event>
<event>
 7    1  0.6510186E-006  0.9662705E+02  0.7818608E-02  0.1396372E+00
          2   -1    0    0  502    0  0.00000000000E+00  0.00000000000E+00  0.92485897458E+02  0.92485897458E+02  0.00000000000E+00 0. -1.
          1   -1    0    0  501    0 -0.00000000000E+00 -0.00000000000E+00 -0.14826229248E+04  0.14826229248E+04  0.00000000000E+00 0. -1.
         25    2    1    2    0    0 -0.69927310111E+02  0.23739359752E+02 -0.40300619215E+03  0.42836017789E+03  0.12500026074E+03 0.  0.
          2    1    1    2  501    0 -0.78314071735E+01  0.36869093916E+02 -0.10360186177E+04  0.10367040259E+04  0.00000000000E+00 0. -1.
          1    1    1    2  502    0  0.77758717284E+02 -0.60608453668E+02  0.48887782553E+02  0.11004461846E+03  0.00000000000E+00 0. -1.
         22    1    3    3    0    0  0.23703196174E+02 -0.23524663938E+02 -0.50195675401E+02  0.60289776507E+02  0.00000000000E+00 0. -1.
         22    1    3    3    0    0 -0.93630506284E+02  0.47264023691E+02 -0.35281051675E+03  0.36807040138E+03  0.00000000000E+00 0. -1.
</event>
<event>
 7    1  0.6510186E-006  0.1044676E+03  0.7818608E-02  0.1330531E+00
          2   -1    0    0  502    0  0.00000000000E+00  0.00000000000E+00  0.39359217672E+03  0.39359217672E+03  0.00000000000E+00 0. -1.
          1   -1    0    0  501    0 -0.00000000000E+00 -0.00000000000E+00 -0.11770292267E+04  0.11770292267E+04  0.00000000000E+00 0. -1.
         25    2    1    2    0    0  0.18861410786E+02 -0.94120294937E+02 -0.41386857607E+03  0.44286199405E+03  0.12500065912E+03 0.  0.
          2    1    1    2  501    0 -0.77362561742E+02  0.78812841247E+02 -0.74214016463E+03  0.75031223758E+03  0.00000000000E+00 0. -1.
          1    1    1    2  502    0  0.58501150956E+02  0.15307453691E+02  0.37257169070E+03  0.37744717182E+03  0.00000000000E+00 0. -1.
         22    1    3    3    0    0  0.70157618086E+02 -0.75142908145E+02 -0.27786823338E+03  0.29627572148E+03  0.00000000000E+00 0.  1.
         22    1    3    3    0    0 -0.51296207300E+02 -0.18977386793E+02 -0.13600034270E+03  0.14658627257E+03  0.00000000000E+00 0.  1.
</event>
<event>
 7    1  0.6510186E-006  0.4003932E+02  0.7818608E-02  0.1537955E+00
          2   -1    0    0  502    0  0.00000000000E+00  0.00000000000E+00  0.19041364882E+04  0.19041364882E+04  0.00000000000E+00 0. -1.
          1   -1    0    0  501    0 -0.00000000000E+00 -0.00000000000E+00 -0.12425654000E+03  0.12425654000E+03  0.00000000000E+00 0. -1.
         25    2    1    2    0    0  0.26704591431E+02  0.37287203990E+02  0.16983289353E+03  0.21580298248E+03  0.12499697892E+03 0.  0.
          2    1    1    2  501    0  0.59841789105E+01 -0.39733789205E+02 -0.97122168629E+02  0.10510613703E+03  0.00000000000E+00 0. -1.
          1    1    1    2  502    0 -0.32688770342E+02  0.24465852158E+01  0.17071692233E+04  0.17074839087E+04  0.00000000000E+00 0. -1.
         22    1    3    3    0    0  0.58520400369E+02  0.48151807544E+02  0.48680417117E+02  0.90072286747E+02  0.00000000000E+00 0.  1.
         22    1    3    3    0    0 -0.31815808938E+02 -0.10864603555E+02  0.12115247642E+03  0.12573069574E+03  0.00000000000E+00 0.  1.
</event>
<event>
 7    1  0.6510186E-006  0.5818890E+02  0.7818608E-02  0.1415628E+00
          2   -1    0    0  502    0  0.00000000000E+00  0.00000000000E+00  0.17859867510E+04  0.17859867510E+04  0.00000000000E+00 0. -1.
          1   -1    0    0  501    0 -0.00000000000E+00 -0.00000000000E+00 -0.13640539612E+04  0.13640539612E+04  0.00000000000E+00 0. -1.
         25    2    1    2    0    0 -0.92194995889E+02  0.49574000578E+02  0.42748623096E+03  0.45752198191E+03  0.12499754987E+03 0.  0.
          2    1    1    2  501    0  0.53095781410E+02 -0.87382360516E+01 -0.13479042406E+04  0.13489778947E+04  0.00000000000E+00 0. -1.
          1    1    1    2  502    0  0.39099214478E+02 -0.40835764526E+02  0.13423507994E+04  0.13435408356E+04  0.00000000000E+00 0. -1.
         22    1    3    3    0    0 -0.60842367753E+02 -0.20574108829E+01  0.36708589513E+03  0.37209955799E+03  0.00000000000E+00 0. -1.
         22    1    3    3    0    0 -0.31352628136E+02  0.51631411461E+02  0.60400335824E+02  0.85422423919E+02  0.00000000000E+00 0. -1.
</event>
<event>
 7    1  0.6510186E-006  0.2758762E+02  0.7818608E-02  0.1635686E+00
          2   -1    0    0  502    0  0.00000000000E+00  0.00000000000E+00  0.19244714241E+04  0.19244714241E+04  0.00000000000E+00 0. -1.
          1   -1    0    0  501    0 -0.00000000000E+00 -0.00000000000E+00 -0.49000982533E+03  0.49000982533E+03  0.00000000000E+00 0. -1.
         25    2    1    2    0    0 -0.22118170833E+01  0.34908118189E+01  0.19395173246E+03  0.23078272593E+03  0.12500525652E+03 0.  0.
          2    1    1    2  501    0 -0.25401253414E+02 -0.61898512208E+01 -0.47111946292E+03  0.47184434539E+03  0.00000000000E+00 0. -1.
          1    1    1    2  502    0  0.27613070497E+02  0.26990394019E+01  0.17116293292E+04  0.17118541781E+04  0.00000000000E+00 0. -1.
         22    1    3    3    0    0 -0.27156911824E+02 -0.54347938598E+02  0.11204056997E+03  0.12745307218E+03  0.00000000000E+00 0. -1.
         22    1    3    3    0    0  0.24945094740E+02  0.57838750417E+02  0.81911162494E+02  0.10332965374E+03  0.00000000000E+00 0. -1.
</event>
<event>
 7    1  0.6510186E-006  0.2976214E+03  0.7818608E-02  0.1147874E+00
          2   -1    0    0  502    0  0.00000000000E+00  0.00000000000E+00  0.18827266407E+04  0.18827266407E+04  0.00000000000E+00 0. -1.
          1   -1    0    0  501    0 -0.00000000000E+00 -0.00000000000E+00 -0.84794002239E+03  0.84794002239E+03  0.00000000000E+00 0. -1.
         25    2    1    2    0    0 -0.36689956894E+03  0.14924896354E+03  0.31575314245E+02  0.41654727641E+03  0.12499634479E+03 0.  0.
          2    1    1    2  501    0  0.23074228521E+03 -0.16774214234E+03 -0.62137645322E+03  0.68373103273E+03  0.00000000000E+00 0. -1.
          1    1    1    2  502    0  0.13615728374E+03  0.18493178805E+02  0.16245877573E+04  0.16303883539E+04  0.00000000000E+00 0. -1.
         22    1    3    3    0    0 -0.32574081514E+03  0.15618428312E+03  0.59794801055E+02  0.36616393484E+03  0.00000000000E+00 0. -1.
         22    1    3    3    0    0 -0.41158753800E+02 -0.69353195867E+01 -0.28219486810E+02  0.50383341572E+02  0.00000000000E+00 0. -1.
</event>
<event>
 7    1  0.6510186E-006  0.1126316E+03  0.7818608E-02  0.1286540E+00
          2   -1    0    0  502    0  0.00000000000E+00  0.00000000000E+00  0.16571358411E+04  0.16571358411E+04  0.00000000000E+00 0. -1.
          1   -1    0    0  501    0 -0.00000000000E+00 -0.00000000000E+00 -0.30310209252E+04  0.30310209252E+04  0.00000000000E+00 0. -1.
         25    2    1    2    0    0 -0.15121475439E+03 -0.45884237226E+02  0.97356567018E+03  0.99419658003E+03  0.12500184167E+03 0.  0.
          2    1    1    2  501    0  0.79914268374E+02 -0.24855119554E+02 -0.30163759328E+04  0.30175367165E+04  0.00000000000E+00 0. -1.
          1    1    1    2  502    0  0.71300486017E+02  0.70739356780E+02  0.66892517856E+03  0.67642346974E+03  0.00000000000E+00 0. -1.
         22    1    3    3    0    0 -0.77772567451E+01 -0.56722028506E+02  0.30579185101E+03  0.31110533648E+03  0.00000000000E+00 0. -1.
         22    1    3    3    0    0 -0.14343749765E+03  0.10837791280E+02  0.66777381917E+03  0.68309124356E+03  0.00000000000E+00 0. -1.
</event>
<event>
 7    1  0.6510186E-006  0.3275468E+02  0.7818608E-02  0.1651031E+00
          2   -1    0    0  502    0  0.00000000000E+00  0.00000000000E+00  0.36415970446E+03  0.36415970446E+03  0.00000000000E+00 0. -1.
          1   -1    0    0  501    0 -0.00000000000E+00 -0.00000000000E+00 -0.14949567893E+04  0.14949567893E+04  0.00000000000E+00 0. -1.
         25    2    1    2    0    0 -0.10921781102E+02 -0.35902028311E+02 -0.21584785919E+03  0.25223615006E+03  0.12499814455E+03 0.  0.
          2    1    1    2  501    0  0.19704872926E+02  0.43431996135E+01 -0.12600583895E+04  0.12602199373E+04  0.00000000000E+00 0. -1.
          1    1    1    2  502    0 -0.87830918243E+01  0.31558828697E+02  0.34510916386E+03  0.34666040638E+03  0.00000000000E+00 0. -1.
         22    1    3    3    0    0 -0.37059228214E+02  0.19867493071E+02 -0.17087774334E+03  0.17597530181E+03  0.00000000000E+00 0. -1.
         22    1    3    3    0    0  0.26137447112E+02 -0.55769521382E+02 -0.44970115845E+02  0.76260848250E+02  0.00000000000E+00 0. -1.
</event>
<event>
 7    1  0.6510186E-006  0.2272597E+03  0.7818608E-02  0.1254286E+00
          2   -1    0    0  502    0  0.00000000000E+00  0.00000000000E+00  0.23000936985E+04  0.23000936985E+04  0.00000000000E+00 0. -1.
          1   -1    0    0  501    0 -0.00000000000E+00 -0.00000000000E+00 -0.34293599452E+04  0.34293599452E+04  0.00000000000E+00 0. -1.
         25    2    1    2    0    0 -0.10346804281E+03 -0.15104921406E+03  0.18748753911E+03  0.29034123108E+03  0.12499980877E+03 0.  0.
          2    1    1    2  501    0  0.15867736973E+03  0.16374145455E+03 -0.33736949380E+04  0.33813913270E+04  0.00000000000E+00 0. -1.
          1    1    1    2  502    0 -0.55209326916E+02 -0.12692240492E+02  0.20569411522E+04  0.20577210856E+04  0.00000000000E+00 0. -1.
         22    1    3    3    0    0 -0.19759572734E+02 -0.27337856191E+02  0.12318127404E+03  0.12771619071E+03  0.00000000000E+00 0. -1.
         22    1    3    3    0    0 -0.83708470080E+02 -0.12371135787E+03  0.64306265076E+02  0.16262504037E+03  0.00000000000E+00 0. -1.
</event>
<event>
 7    1  0.6510186E-006  0.1993486E+03  0.7818608E-02  0.1362404E+00
          2   -1    0    0  502    0  0.00000000000E+00  0.00000000000E+00  0.14946456432E+04  0.14946456432E+04  0.00000000000E+00 0. -1.
          1   -1    0    0  501    0 -0.00000000000E+00 -0.00000000000E+00 -0.91891714353E+03  0.91891714353E+03  0.00000000000E+00 0. -1.
         25    2    1    2    0    0  0.11303119041E+03  0.17087152599E+03 -0.44771551594E+03  0.50798363395E+03  0.12500024299E+03 0.  0.
          2    1    1    2  501    0 -0.89183532957E+02 -0.17440651685E+03 -0.41921276471E+03  0.46272095021E+03  0.00000000000E+00 0. -1.
          1    1    1    2  502    0 -0.23847657452E+02  0.35349908532E+01  0.14426567803E+04  0.14428582025E+04  0.00000000000E+00 0. -1.
         22    1    3    3    0    0 -0.13950264361E+02 -0.50273327808E+01 -0.77338999000E+02  0.78747728329E+02  0.00000000000E+00 0.  1.
         22    1    3    3    0    0  0.12698145477E+03  0.17589885877E+03 -0.37037651694E+03  0.42923590562E+03  0.00000000000E+00 0.  1.
</event>
<event>
 7    1  0.6510186E-006  0.5401765E+02  0.7818608E-02  0.1541501E+00
          2   -1    0    0  502    0  0.00000000000E+00  0.00000000000E+00  0.61296336407E+03  0.61296336407E+03  0.00000000000E+00 0. -1.
          1   -1    0    0  501    0 -0.00000000000E+00 -0.00000000000E+00 -0.11420680471E+04  0.11420680471E+04  0.00000000000E+00 0. -1.
         25    2    1    2    0    0 -0.46525958743E+02  0.13448220319E+02  0.41717564485E+03  0.43818491342E+03  0.12499992091E+03 0.  0.
          2    1    1    2  501    0 -0.10674339998E+02 -0.21208264816E+02 -0.11269393842E+04  0.11271894728E+04  0.00000000000E+00 0. -1.
          1    1    1    2  502    0  0.57200298741E+02  0.77600444964E+01  0.18065905632E+03  0.18965702491E+03  0.00000000000E+00 0. -1.
         22    1    3    3    0    0 -0.50990020698E+02  0.60675514670E+02  0.18582533572E+03  0.20202117633E+03  0.00000000000E+00 0. -1.
         22    1    3    3    0    0  0.44640619548E+01 -0.47227294351E+02  0.23135030913E+03  0.23616373709E+03  0.00000000000E+00 0. -1.
</event>
<event>
 7    1  0.6510186E-006  0.3051268E+02  0.7818608E-02  0.1617829E+00
          2   -1    0    0  502    0  0.00000000000E+00  0.00000000000E+00  0.12069436242E+04  0.12069436242E+04  0.00000000000E+00 0. -1.
          1   -1    0    0  501    0 -0.00000000000E+00 -0.00000000000E+00 -0.30464093886E+03  0.30464093886E+03  0.00000000000E+00 0. -1.
         25    2    1    2    0    0 -0.24252352728E+02 -0.47079344970E+02  0.54837604915E+02  0.14641899253E+03  0.12500686831E+03 0.  0.
          2    1    1    2  501    0  0.21879955722E+01  0.26132911469E+02 -0.25797621861E+03  0.25930569942E+03  0.00000000000E+00 0. -1.
          1    1    1    2  502    0  0.22064357156E+02  0.20946433501E+02  0.11054412991E+04  0.11058598712E+04  0.00000000000E+00 0. -1.
         22    1    3    3    0    0  0.19015768106E+02  0.21442660656E+02  0.58662645646E+02  0.65289303311E+02  0.00000000000E+00 0. -1.
         22    1    3    3    0    0 -0.43268120834E+02 -0.68522005626E+02 -0.38250407307E+01  0.81129689215E+02  0.00000000000E+00 0. -1.
</event>
<event>
 7    1  0.6510186E-006  0.1255559E+03  0.7818608E-02  0.1284777E+00
          2   -1    0    0  502    0  0.00000000000E+00  0.00000000000E+00  0.63241018768E+03  0.63241018768E+03  0.00000000000E+00 0. -1.
          1   -1    0    0  501    0 -0.00000000000E+00 -0.00000000000E+00 -0.11202300922E+04  0.11202300922E+04  0.00000000000E+00 0. -1.
         25    2    1    2    0    0 -0.99758625642E+02 -0.83051122211E+00 -0.17933107128E+03  0.24028577708E+03  0.12500059360E+03 0.  0.
          2    1    1    2  501    0 -0.11274023501E+01 -0.76326259377E+02 -0.90209197628E+03  0.90531591314E+03  0.00000000000E+00 0. -1.
          1    1    1    2  502    0  0.10088602799E+03  0.77156770600E+02  0.59360314305E+03  0.60703858966E+03  0.00000000000E+00 0. -1.
         22    1    3    3    0    0 -0.12723420434E+03  0.14381092178E+02 -0.13627065616E+03  0.18698943900E+03  0.00000000000E+00 0.  1.
         22    1    3    3    0    0  0.27475578694E+02 -0.15211603400E+02 -0.43060415117E+02  0.53296338079E+02  0.00000000000E+00 0.  1.
</event>
<event>
 7    1  0.6510186E-006  0.3454252E+03  0.7818608E-02  0.1258535E+00
          2   -1    0    0  502    0  0.00000000000E+00  0.00000000000E+00  0.16245810657E+04  0.16245810657E+04  0.00000000000E+00 0. -1.
          1   -1    0    0  501    0 -0.00000000000E+00 -0.00000000000E+00 -0.15304474041E+04  0.15304474041E+04  0.00000000000E+00 0. -1.
         25    2    1    2    0    0  0.34535983078E+03  0.13505659269E+03 -0.44762645105E+02  0.39388446265E+03  0.12501031787E+03 0.  0.
          2    1    1    2  501    0 -0.32567021685E+03 -0.10523265200E+03 -0.12885615529E+04  0.13332388671E+04  0.00000000000E+00 0. -1.
          1    1    1    2  502    0 -0.19689613931E+02 -0.29823940692E+02  0.14274578596E+04  0.14279051401E+04  0.00000000000E+00 0. -1.
         22    1    3    3    0    0  0.15511098259E+03  0.14710378300E+02 -0.62928902537E+02  0.16803529071E+03  0.00000000000E+00 0.  1.
         22    1    3    3    0    0  0.19024884819E+03  0.12034621439E+03  0.18166257432E+02  0.22584917194E+03  0.00000000000E+00 0.  1.
</event>
<event>
 7    1  0.6510186E-006  0.1565443E+03  0.7818608E-02  0.1243299E+00
          2   -1    0    0  502    0  0.00000000000E+00  0.00000000000E+00  0.62838799239E+03  0.62838799239E+03  0.00000000000E+00 0. -1.
          1   -1    0    0  501    0 -0.00000000000E+00 -0.00000000000E+00 -0.72926810132E+03  0.72926810132E+03  0.00000000000E+00 0. -1.
         25    2    1    2    0    0  0.77465785909E+02 -0.18609554034E+03  0.19611464953E+03  0.30777064820E+03  0.12501727087E+03 0.  0.
          2    1    1    2  501    0 -0.11660750979E+03  0.10305909093E+03 -0.65863764837E+03  0.67677325554E+03  0.00000000000E+00 0. -1.
          1    1    1    2  502    0  0.39141723883E+02  0.83036449408E+02  0.36164288992E+03  0.37311218997E+03  0.00000000000E+00 0. -1.
         22    1    3    3    0    0  0.16812494590E+02 -0.53073031964E+02  0.14088936339E+03  0.15148999773E+03  0.00000000000E+00 0. -1.
         22    1    3    3    0    0  0.60653291320E+02 -0.13302250838E+03  0.55225286135E+02  0.15628065047E+03  0.00000000000E+00 0. -1.
</event>
<event>
 7    1  0.6510186E-006  0.1290585E+03  0.7818608E-02  0.1368710E+00
          2   -1    0    0  502    0  0.00000000000E+00  0.00000000000E+00  0.41259674580E+04  0.41259674580E+04  0.00000000000E+00 0. -1.
          1   -1    0    0  501    0 -0.00000000000E+00 -0.00000000000E+00 -0.55390358721E+02  0.55390358721E+02  0.00000000000E+00 0. -1.
         25    2    1    2    0    0 -0.76747927092E+01 -0.13247613849E+03  0.72401667918E+03  0.74661536940E+03  0.12500211348E+03 0.  0.
          2    1    1    2  501    0 -0.33828969191E+02  0.10196229391E+02 -0.35577071997E+02  0.50140705043E+02  0.00000000000E+00 0. -1.
          1    1    1    2  502    0  0.41503761900E+02  0.12227990910E+03  0.33821374921E+04  0.33846017423E+04  0.00000000000E+00 0. -1.
         22    1    3    3    0    0 -0.23795250176E+02 -0.14376346404E+03  0.70250986207E+03  0.71746376482E+03  0.00000000000E+00 0. -1.
         22    1    3    3    0    0  0.16120457467E+02  0.11287325553E+02  0.21506817107E+02  0.29151604573E+02  0.00000000000E+00 0. -1.
</event>
<event>
 7    1  0.6510186E-006  0.5899101E+02  0.7818608E-02  0.1431750E+00
          2   -1    0    0  502    0  0.00000000000E+00  0.00000000000E+00  0.15003108226E+03  0.15003108226E+03  0.00000000000E+00 0. -1.
          1   -1    0    0  501    0 -0.00000000000E+00 -0.00000000000E+00 -0.14547351367E+04  0.14547351367E+04  0.00000000000E+00 0. -1.
         25    2    1    2    0    0  0.43754214905E+01 -0.26592654419E+02 -0.48639741623E+03  0.50292502538E+03  0.12499928421E+03 0.  0.
          2    1    1    2  501    0  0.46760642279E+02 -0.38626333017E+01 -0.95322446273E+03  0.95437851712E+03  0.00000000000E+00 0. -1.
          1    1    1    2  502    0 -0.51136063769E+02  0.30455287721E+02  0.13491782454E+03  0.14746267645E+03  0.00000000000E+00 0. -1.
         22    1    3    3    0    0 -0.18619359462E+01  0.65785554621E+01  0.61658840114E+01  0.92066455931E+01  0.00000000000E+00 0. -1.
         22    1    3    3    0    0  0.62373574367E+01 -0.33171209882E+02 -0.49256330024E+03  0.49371837979E+03  0.00000000000E+00 0. -1.
</event>
<event>
 7    1  0.6510186E-006  0.1578175E+03  0.7818608E-02  0.1313181E+00
          2   -1    0    0  502    0  0.00000000000E+00  0.00000000000E+00  0.12586932473E+03  0.12586932473E+03  0.00000000000E+00 0. -1.
          1   -1    0    0  501    0 -0.00000000000E+00 -0.00000000000E+00 -0.11512628190E+04  0.11512628190E+04  0.00000000000E+00 0. -1.
         25    2    1    2    0    0  0.11183232349E+03 -0.39441737578E+02 -0.35381641008E+03  0.39353936106E+03  0.12500022967E+03 0.  0.
          2    1    1    2  501    0  0.46295252449E+02 -0.62812750035E+01 -0.71245693224E+03  0.71398710431E+03  0.00000000000E+00 0. -1.
          1    1    1    2  502    0 -0.15812757594E+03  0.45723012581E+02  0.40879848063E+02  0.16960567836E+03  0.00000000000E+00 0. -1.
         22    1    3    3    0    0  0.10795919199E+02 -0.66671134476E+02 -0.14597606790E+03  0.16084341592E+03  0.00000000000E+00 0. -1.
         22    1    3    3    0    0  0.10103640429E+03  0.27229396899E+02 -0.20784034218E+03  0.23269594514E+03  0.00000000000E+00 0. -1.
</event>
<event>
 7    1  0.6510186E-006  0.1556524E+03  0.7818608E-02  0.1334482E+00
          2   -1    0    0  502    0  0.00000000000E+00  0.00000000000E+00  0.19647364874E+04  0.19647364874E+04  0.00000000000E+00 0. -1.
          1   -1    0    0  501    0 -0.00000000000E+00 -0.00000000000E+00 -0.14307409594E+03  0.14307409594E+03  0.00000000000E+00 0. -1.
         25    2    1    2    0    0 -0.15302498850E+03 -0.10017149530E+03  0.43655214675E+03  0.48954445243E+03  0.12500007396E+03 0.  0.
          2    1    1    2  501    0  0.11386527930E+03  0.10203909997E+03 -0.66066813147E+02  0.16655960961E+03  0.00000000000E+00 0. -1.
          1    1    1    2  502    0  0.39159709202E+02 -0.18676046676E+01  0.14511770579E+04  0.14517065214E+04  0.00000000000E+00 0. -1.
         22    1    3    3    0    0 -0.94669909385E+02 -0.12532017125E+03  0.28973642947E+03  0.32956749783E+03  0.00000000000E+00 0.  1.
         22    1    3    3    0    0 -0.58355079118E+02  0.25148675945E+02  0.14681571728E+03  0.15997695460E+03  0.00000000000E+00 0.  1.
</event>
<event>
 7    1  0.6510186E-006  0.6349318E+02  0.7818608E-02  0.1426057E+00
          2   -1    0    0  502    0  0.00000000000E+00  0.00000000000E+00  0.42533659642E+03  0.42533659642E+03  0.00000000000E+00 0. -1.
          1   -1    0    0  501    0 -0.00000000000E+00 -0.00000000000E+00 -0.68574021767E+03  0.68574021767E+03  0.00000000000E+00 0. -1.
         25    2    1    2    0    0 -0.29480055550E+02 -0.95169228548E+02 -0.22135308998E+03  0.27303625668E+03  0.12500140510E+03 0.  0.
          2    1    1    2  501    0  0.32324606808E+02  0.32047697312E+02 -0.43485174872E+03  0.43722760488E+03  0.00000000000E+00 0. -1.
          1    1    1    2  502    0 -0.28445512582E+01  0.63121531236E+02  0.39580121746E+03  0.40081295253E+03  0.00000000000E+00 0. -1.
         22    1    3    3    0    0  0.22836046777E+02  0.19344473123E+02 -0.70238006276E+02  0.76348354261E+02  0.00000000000E+00 0. -1.
         22    1    3    3    0    0 -0.52316102327E+02 -0.11451370167E+03 -0.15111508371E+03  0.19668790242E+03  0.00000000000E+00 0. -1.
</event>
<event>
 7    1  0.6510186E-006  0.1910771E+03  0.7818608E-02  0.1207687E+00
          2   -1    0    0  502    0  0.00000000000E+00  0.00000000000E+00  0.64172836379E+03  0.64172836379E+03  0.00000000000E+00 0. -1.
          1   -1    0    0  501    0 -0.00000000000E+00 -0.00000000000E+00 -0.11367507175E+04  0.11367507175E+04  0.00000000000E+00 0. -1.
         25    2    1    2    0    0  0.10736028013E+03  0.17554099689E+01 -0.26841258850E+03  0.31495906836E+03  0.12499834346E+03 0.  0.
          2    1    1    2  501    0  0.68736984176E+02  0.84517192111E+02 -0.82585326964E+03  0.83300753402E+03  0.00000000000E+00 0. -1.
          1    1    1    2  502    0 -0.17609726431E+03 -0.86272602080E+02  0.59924350447E+03  0.63051247887E+03  0.00000000000E+00 0. -1.
         22    1    3    3    0    0  0.92540968304E+02  0.56041064246E+02 -0.18579111172E+03  0.21499481131E+03  0.00000000000E+00 0.  1.
         22    1    3    3    0    0  0.14819311827E+02 -0.54285654277E+02 -0.82621476772E+02  0.99964257049E+02  0.00000000000E+00 0.  1.
</event>
