<LesHouchesEvents version="3.0">
<header>
<!--
#*********************************************************************
#                                                                    *
#                        MadGraph5_aMC@NLO                           *
#                                                                    *
#                           Going Beyond                             *
#                                                                    *
#                   http://madgraph.hep.uiuc.edu                     *
#                   http://madgraph.phys.ucl.ac.be                   *
#                   http://amcatnlo.cern.ch                          *
#                                                                    *
#                     The MadGraph5_aMC@NLO team                     *
#                                                                    *
#....................................................................*
#                                                                    *
# This file contains all the information necessary to reproduce      *
# the events generated:                                              *
#                                                                    *
# 1. software version                                                *
# 2. proc_card          : code generation info including model       *
# 3. param_card         : model primary parameters in the LH format  *
# 4. run_card           : running parameters (collider and cuts)     *
# 5. pythia_card        : present only if pythia has been run        *
# 6. pgs_card           : present only if pgs has been run           *
# 7. delphes_cards      : present only if delphes has been run       *
#                                                                    *
#                                                                    *
#*********************************************************************
-->
<MGVersion>
3.5.3
</MGVersion>
<MG5ProcCard>
<![CDATA[
#************************************************************
#*                     MadGraph5_aMC@NLO                    *
#*                                                          *
#*                *                       *                 *
#*                  *        * *        *                   *
#*                    * * * * 5 * * * *                     *
#*                  *        * *        *                   *
#*                *                       *                 *
#*                                                          *
#*                                                          *
#*         VERSION 3.5.3                 2023-12-23         *
#*                                                          *
#*    The MadGraph5_aMC@NLO Development Team - Find us at   *
#*    https://server06.fynu.ucl.ac.be/projects/madgraph     *
#*                                                          *
#************************************************************
#*                                                          *
#*               Command File for MadGraph5_aMC@NLO         *
#*                                                          *
#*     run as ./bin/mg5_aMC  filename                       *
#*                                                          *
#************************************************************
set group_subprocesses Auto
set ignore_six_quark_processes False
set low_mem_multicore_nlo_generation False
set complex_mass_scheme False
set include_lepton_initiated_processes False
set gauge unitary
set loop_optimized_output True
set loop_color_flows False
set max_npoint_for_channel 0
set default_unset_couplings 99
set max_t_for_channel 99
set zerowidth_tchannel True
set nlo_mixed_expansion True
import model EWdim6-full
define p = g u c d s u~ c~ d~ s~
define j = g u c d s u~ c~ d~ s~
define l+ = e+ mu+
define l- = e- mu-
define vl = ve vm vt
define vl~ = ve~ vm~ vt~
generate u d > u d h / a z QCD=0 QED=99 NP=2, h > a a QCD=0 QED=99 NP=\
0
output ./mg_processes/signal_2
]]>
</MG5ProcCard>
<MGProcCard>
#*********************************************************************
#                        MadGraph/MadEvent                           *
#                   http://madgraph.hep.uiuc.edu                     *
#                                                                    *
#                          proc_card.dat                             *
#*********************************************************************
#                                                                    *
#            This Files is generated by MADGRAPH 5                   *
#                                                                    *
# WARNING: This Files is generated for MADEVENT (compatibility issue)*
#          This files is NOT a valid MG4 proc_card.dat               *
#          Running this in MG4 will NEVER reproduce the result of MG5*
#                                                                    *
#*********************************************************************
#*********************************************************************
# Process(es) requested : mg2 input                                  *
#*********************************************************************
# Begin PROCESS # This is TAG. Do not modify this line
u d > u d h / a z , h > a a           #Process
# Be carefull the coupling are here in MG5 convention
QCD=0
QED=99
NP=2
QCD=0
QED=99
NP=0
          
end_coup           # End the couplings input

done               # this tells MG there are no more procs
# End PROCESS  # This is TAG. Do not modify this line
#*********************************************************************
# Model information                                                  *
#*********************************************************************
# Begin MODEL  # This is TAG. Do not modify this line
EWdim6-full
# End   MODEL  # This is TAG. Do not modify this line
#*********************************************************************
# Start multiparticle definitions                                    *
#*********************************************************************
# Begin MULTIPARTICLES # This is TAG. Do not modify this line

# End  MULTIPARTICLES # This is TAG. Do not modify this line
</MGProcCard>
<MGRunCard>
<![CDATA[
#*********************************************************************
#                       MadGraph5_aMC@NLO                            *
#                                                                    *
#                     run_card.dat MadEvent                          *
#                                                                    *
#  This file is used to set the parameters of the run.               *
#                                                                    *
#  Some notation/conventions:                                        *
#                                                                    *
#   Lines starting with a '# ' are info or comments                  *
#                                                                    *
#   mind the format:   value    = variable     ! comment             *
#                                                                    *
#   To display more options, you can type the command:               *
#      update full_run_card                                          *
#*********************************************************************


#*******************************
# Running parameters           *
#*******************************

#*********************************************************************
# Tag name for the run (one word)                                    *
#*********************************************************************
  tag_1    = run_tag         ! name of the run

#*********************************************************************
# Number of events and rnd seed                                      *
# Warning: Do not generate more than 1M events in a single run       *
# If you want to run Pythia, avoid more than 50k events in a run.    *
#*********************************************************************
  100  = nevents          ! Number of unweighted events requested
 21 = iseed            ! rnd seed (0=assigned automatically=default)

#*********************************************************************
# Collider type and energy                                           *
# lpp: 0=No PDF, 1=proton, -1=antiproton, 2=photon from proton,      *
#                                         3=photon from electron     *
#*********************************************************************
     1    = lpp1             ! beam 1 type
     1    = lpp2             ! beam 2 type
  6500.0  = ebeam1           ! beam 1 total energy in GeV
  6500.0  = ebeam2           ! beam 2 total energy in GeV

#*********************************************************************
# PDF CHOICE: this automatically fixes also alpha_s and its evol.    *
#*********************************************************************
  nn23lo1 = pdlabel          ! PDF set
  230000  = lhaid            ! if pdlabel=lhapdf, this is the lhapdf number

#*********************************************************************
# Renormalization and factorization scales                           *
#*********************************************************************
   False  = fixed_ren_scale  ! if .true. use fixed ren scale
   False  = fixed_fac_scale  ! if .true. use fixed fac scale
  91.188  = scale            ! fixed ren scale
  91.188  = dsqrt_q2fact1    ! fixed fact scale for pdf1
  91.188  = dsqrt_q2fact2    ! fixed fact scale for pdf2
  -1      = dynamical_scale_choice ! Choose one of the preselected dynamical choices
   1.0    = scalefact        ! scale factor for event-by-event scales

#*********************************************************************
# Type and output format                                             *
#*********************************************************************
  False   = gridpack         ! True = setting up the grid pack
  -1.0    = time_of_flight   ! threshold (in mm) below which the invariant lifetime is not written (-1 means not written)
   3.0    = lhe_version      ! Change the way clustering information pass to shower.
  True    = clusinfo         ! include clustering tag in output
   sum    = event_norm       ! average/sum. Normalization of the weight in the LHEF

#*********************************************************************
# Matching parameter (MLM only)                                      *
#*********************************************************************
  0       = ickkw            ! 0 no matching, 1 MLM
  1.0     = alpsfact         ! scale factor for QCD emission vx
  False   = chcluster        ! cluster only according to channel diag
  4       = asrwgtflavor     ! highest quark flavor for a_s reweight
  False   = auto_ptj_mjj     ! Automatic setting of ptj and mjj if xqcut >0 (turn off for VBF and single top processes)
  0.0     = xqcut            ! minimum kt jet measure between partons

#*********************************************************************
# handling of the helicities:                                        *
#  0: sum over all helicities                                        *
#  1: importance sampling over helicities                            *
#*********************************************************************
  0       = nhel             ! using helicities importance sampling or not.

#*********************************************************************
# Generation bias, check the wiki page below for more information:   *
#  'cp3.irmp.ucl.ac.be/projects/madgraph/wiki/LOEventGenerationBias' *
#*********************************************************************
  None    = bias_module      ! Bias type of bias, [None, ptj_bias, -custom_folder-]
  {}      = bias_parameters  ! Specifies the parameters of the module.


#*******************************
# Parton level cuts definition *
#*******************************

#*********************************************************************
# BW cutoff. Define on/off-shell for "$" and decay                   *
#*********************************************************************
  15.0    = bwcutoff         ! (M+/-bwcutoff*Gamma)

#*********************************************************************
# Apply pt/E/eta/dr/mij/kt_durham cuts on decay products or not
# (note that etmiss/ptll/ptheavy/ht/sorted cuts always apply)
#*********************************************************************
   False  = cut_decays       ! Cut decay products

#*********************************************************************
# Standard Cuts                                                      *
#*********************************************************************
# Minimum and maximum pt's (for max, -1 means no cut)                *
#*********************************************************************
  20.0    = ptj              ! minimum pt for the jets
   0.0    = ptb              ! minimum pt for the b
  10.0    = pta              ! minimum pt for the photons
  10.0    = ptl              ! minimum pt for the charged leptons
   0.0    = misset           ! minimum missing Et (sum of neutrino's momenta)
  -1.0    = ptjmax           ! maximum pt for the jets
  -1.0    = ptbmax           ! maximum pt for the b
  -1.0    = ptamax           ! maximum pt for the photons
  -1.0    = ptlmax           ! maximum pt for the charged leptons
  -1.0    = missetmax        ! maximum missing Et (sum of neutrino's momenta)
   {}     = pt_min_pdg       ! pt cut for other particles (use pdg code). Applied on particle and anti-particle
   {}	  = pt_max_pdg       ! pt cut for other particles (syntax e.g. {6: 100, 25: 50})

#*********************************************************************
# Minimum and maximum E's (in the center of mass frame)              *
#*********************************************************************
   0.0    = ej               ! minimum E for the jets
   0.0    = eb               ! minimum E for the b
   0.0    = ea               ! minimum E for the photons
   0.0    = el               ! minimum E for the charged leptons
  -1.0    = ejmax            ! maximum E for the jets
  -1.0    = ebmax            ! maximum E for the b
  -1.0    = eamax            ! maximum E for the photons
  -1.0    = elmax            ! maximum E for the charged leptons
    {}    = e_min_pdg        ! E cut for other particles (use pdg code). Applied on particle and anti-particle
    {}    = e_max_pdg        ! E cut for other particles (syntax e.g. {6: 100, 25: 50})

#*********************************************************************
# Maximum and minimum absolute rapidity (for max, -1 means no cut)   *
#*********************************************************************
   5.0    = etaj             ! max rap for the jets
  -1.0    = etab             ! max rap for the b
   2.5    = etaa             ! max rap for the photons
   2.5    = etal             ! max rap for the charged leptons
   0.0    = etajmin          ! min rap for the jets
   0.0    = etabmin          ! min rap for the b
   0.0    = etaamin          ! min rap for the photons
   0.0    = etalmin          ! main rap for the charged leptons
    {}    = eta_min_pdg      ! rap cut for other particles (use pdg code). Applied on particle and anti-particle
    {}    = eta_max_pdg      ! rap cut for other particles (syntax e.g. {6: 2.5, 23: 5})

#*********************************************************************
# Minimum and maximum DeltaR distance                                *
#*********************************************************************
   0.4    = drjj             ! min distance between jets
   0.0    = drbb             ! min distance between b's
   0.4    = drll             ! min distance between leptons
   0.4    = draa             ! min distance between gammas
   0.0    = drbj             ! min distance between b and jet
   0.4    = draj             ! min distance between gamma and jet
   0.4    = drjl             ! min distance between jet and lepton
   0.0    = drab             ! min distance between gamma and b
   0.0    = drbl             ! min distance between b and lepton
   0.4    = dral             ! min distance between gamma and lepton
  -1.0    = drjjmax          ! max distance between jets
  -1.0    = drbbmax          ! max distance between b's
  -1.0    = drllmax          ! max distance between leptons
  -1.0    = draamax          ! max distance between gammas
  -1.0    = drbjmax          ! max distance between b and jet
  -1.0    = drajmax          ! max distance between gamma and jet
  -1.0    = drjlmax          ! max distance between jet and lepton
  -1.0    = drabmax          ! max distance between gamma and b
  -1.0    = drblmax          ! max distance between b and lepton
  -1.0    = dralmax          ! max distance between gamma and lepton

#*********************************************************************
# Minimum and maximum invariant mass for pairs                       *
# WARNING: for four lepton final state mmll cut require to have      *
#          different lepton masses for each flavor!                  *
#*********************************************************************
    0.0   = mmjj             ! min invariant mass of a jet pair
    0.0   = mmbb             ! min invariant mass of a b pair
  120.0   = mmaa             ! min invariant mass of gamma gamma pair
    0.0   = mmll             ! min invariant mass of l+l- (same flavour) lepton pair
   -1.0   = mmjjmax          ! max invariant mass of a jet pair
   -1.0   = mmbbmax          ! max invariant mass of a b pair
  130.0   = mmaamax          ! max invariant mass of gamma gamma pair
   -1.0   = mmllmax          ! max invariant mass of l+l- (same flavour) lepton pair
     {}   = mxx_min_pdg      ! min invariant mass of a pair of particles X/X~ (e.g. {6:250})
  {'default': False} = mxx_only_part_antipart ! if True the invariant mass is applied only
                                              ! to pairs of particle/antiparticle and not to pairs of the same pdg codes.

#*********************************************************************
# Minimum and maximum invariant mass for all leptons                 *
#*********************************************************************
   0.0    = mmnl             ! min invariant mass for all leptons (l+- and vl)
  -1.0    = mmnlmax          ! max invariant mass for all leptons (l+- and vl)

#*********************************************************************
# Minimum and maximum pt for 4-momenta sum of leptons                *
#*********************************************************************
   0.0    = ptllmin          ! Minimum pt for 4-momenta sum of leptons(l and vl)
  -1.0    = ptllmax          ! Maximum pt for 4-momenta sum of leptons(l and vl)

#*********************************************************************
# Inclusive cuts                                                     *
#*********************************************************************
   0.0    = ptheavy          ! minimum pt for at least one heavy final state
   0.0    = xptj             ! minimum pt for at least one jet
   0.0    = xptb             ! minimum pt for at least one b
   0.0    = xpta             ! minimum pt for at least one photon
   0.0    = xptl             ! minimum pt for at least one charged lepton

#*********************************************************************
# Control the pt's of the jets sorted by pt                          *
#*********************************************************************
   0.0    = ptj1min          ! minimum pt for the leading jet in pt
   0.0    = ptj2min          ! minimum pt for the second jet in pt
   0.0    = ptj3min          ! minimum pt for the third jet in pt
   0.0    = ptj4min          ! minimum pt for the fourth jet in pt
  -1.0    = ptj1max          ! maximum pt for the leading jet in pt
  -1.0    = ptj2max          ! maximum pt for the second jet in pt
  -1.0    = ptj3max          ! maximum pt for the third jet in pt
  -1.0    = ptj4max          ! maximum pt for the fourth jet in pt
   0      = cutuse           ! reject event if fails any (0) / all (1) jet pt cuts

#*********************************************************************
# Control the pt's of leptons sorted by pt                           *
#*********************************************************************
   0.0    = ptl1min          ! minimum pt for the leading lepton in pt
   0.0    = ptl2min          ! minimum pt for the second lepton in pt
   0.0    = ptl3min          ! minimum pt for the third lepton in pt
   0.0    = ptl4min          ! minimum pt for the fourth lepton in pt
  -1.0    = ptl1max          ! maximum pt for the leading lepton in pt
  -1.0    = ptl2max          ! maximum pt for the second lepton in pt
  -1.0    = ptl3max          ! maximum pt for the third lepton in pt
  -1.0    = ptl4max          ! maximum pt for the fourth lepton in pt

#*********************************************************************
# Control the Ht(k)=Sum of k leading jets                            *
#*********************************************************************
   0.0    = htjmin           ! minimum jet HT=Sum(jet pt)
  -1.0    = htjmax           ! maximum jet HT=Sum(jet pt)
   0.0    = ihtmin           ! inclusive Ht for all partons (including b)
  -1.0    = ihtmax           ! inclusive Ht for all partons (including b)
   0.0    = ht2min           ! minimum Ht for the two leading jets
   0.0    = ht3min           ! minimum Ht for the three leading jets
   0.0    = ht4min           ! minimum Ht for the four leading jets
  -1.0    = ht2max           ! maximum Ht for the two leading jets
  -1.0    = ht3max           ! maximum Ht for the three leading jets
  -1.0    = ht4max           ! maximum Ht for the four leading jets

#*********************************************************************
# Photon-isolation cuts, according to hep-ph/9801442                 *
# When ptgmin=0, all the other parameters are ignored                *
# When ptgmin>0, pta and draj are not going to be used               *
#*********************************************************************
   0.0    = ptgmin           ! Min photon transverse momentum
   0.4    = R0gamma          ! Radius of isolation code
   1.0    = xn               ! n parameter of eq.(3.4) in hep-ph/9801442
   1.0    = epsgamma         ! epsilon_gamma parameter of eq.(3.4) in hep-ph/9801442
  True    = isoEM            ! isolate photons from EM energy (photons and leptons)

#*********************************************************************
# WBF cuts                                                           *
#*********************************************************************
   0.0    = xetamin          ! minimum rapidity for two jets in the WBF case
   0.0    = deltaeta         ! minimum rapidity for two jets in the WBF case

#*********************************************************************
# Turn on either the ktdurham or ptlund cut to activate              *
# CKKW(L) merging with Pythia8 [arXiv:1410.3012, arXiv:1109.4829]    *
#*********************************************************************
  -1.0    = ktdurham
   0.4    = dparameter
  -1.0    = ptlund
   1, 2, 3, 4, 5, 6, 21 = pdgs_for_merging_cut ! PDGs for two cuts above

#*********************************************************************
# maximal pdg code for quark to be considered as a light jet         *
# (otherwise b cuts are applied)                                     *
#*********************************************************************
  4       = maxjetflavor     ! Maximum jet pdg code

#*********************************************************************
# Store info for systematics studies                                 *
# WARNING: Do not use for interference type of computation           *
#*********************************************************************
#         False = use_syst              ! Enable systematics studies # Commented out by MadMiner
#   systematics = systematics_program   ! none, systematics [python], SysCalc [deprecated, C++] # Commented out by MadMiner
#   ['--mur=0.5,1,2', '--muf=0.5,1,2', '--pdf=errorset'] = systematics_arguments ! see: https://cp3.irmp.ucl.ac.be/projects/madgraph/wiki/Systematics#Systematicspythonmodule # Commented out by MadMiner


#*********************************************************************
# MadMiner systematics setup                                         *
#*********************************************************************
False = use_syst
]]>
</MGRunCard>
<slha>
######################################################################
## PARAM_CARD AUTOMATICALY GENERATED BY MG5                       ####
######################################################################
###################################
## INFORMATION FOR DIM6
###################################
BLOCK DIM6 # 
      1 0.000000e+00 # cwwwl2
      2 -1.412419e+00 # madminer
      3 0.000000e+00 # cbl2
      4 0.000000e+00 # cpwwwl2
      5 -1.041613e+00 # madminer
      6 0.000000e+00 # cphidl2
      7 0.000000e+00 # cphiwl2
      8 0.000000e+00 # cphibl2
###################################
## INFORMATION FOR MASS
###################################
BLOCK MASS # 
      4 1.270000e+00 # mc
      5 4.700000e+00 # mb
      6 1.720000e+02 # mt
      13 1.056600e-01 # mm
      15 1.777000e+00 # mta
      23 9.118760e+01 # mz
      25 1.250000e+02 # mh
      9000006 1.250000e+02 # mp
      1 0.000000e+00 # d : 0.0
      2 0.000000e+00 # u : 0.0
      3 0.000000e+00 # s : 0.0
      11 0.000000e+00 # e- : 0.0
      12 0.000000e+00 # ve : 0.0
      14 0.000000e+00 # vm : 0.0
      16 0.000000e+00 # vt : 0.0
      21 0.000000e+00 # g : 0.0
      22 0.000000e+00 # a : 0.0
      24 7.982436e+01 # w+ : cmath.sqrt(mz__exp__2/2. + cmath.sqrt(mz__exp__4/4. - (aew*cmath.pi*mz__exp__2)/(gf*sqrt__2)))
###################################
## INFORMATION FOR SMINPUTS
###################################
BLOCK SMINPUTS # 
      1 1.279000e+02 # aewm1
      2 1.166370e-05 # gf
      3 1.300000e-01 # as
###################################
## INFORMATION FOR WOLFENSTEIN
###################################
BLOCK WOLFENSTEIN # 
      1 0.000000e+00 # lamws
      2 0.000000e+00 # aws
      3 0.000000e+00 # rhows
      4 0.000000e+00 # etaws
###################################
## INFORMATION FOR YUKAWA
###################################
BLOCK YUKAWA # 
      4 1.270000e+00 # ymc
      5 4.700000e+00 # ymb
      6 1.720000e+02 # ymt
      13 1.056600e-01 # ymm
      15 1.777000e+00 # ymtau
###################################
## INFORMATION FOR DECAY
###################################
DECAY 6 1.508336e+00 # wt
DECAY 15 2.270000e-12 # wtau
DECAY 23 2.495200e+00 # wz
DECAY 24 2.085000e+00 # ww
DECAY 25 4.070000e-03 # wh
DECAY 9000006 4.070000e-03 # wh1
DECAY 1 0.000000e+00 # d : 0.0
DECAY 2 0.000000e+00 # u : 0.0
DECAY 3 0.000000e+00 # s : 0.0
DECAY 4 0.000000e+00 # c : 0.0
DECAY 5 0.000000e+00 # b : 0.0
DECAY 11 0.000000e+00 # e- : 0.0
DECAY 12 0.000000e+00 # ve : 0.0
DECAY 13 0.000000e+00 # mu- : 0.0
DECAY 14 0.000000e+00 # vm : 0.0
DECAY 16 0.000000e+00 # vt : 0.0
DECAY 21 0.000000e+00 # g : 0.0
DECAY 22 0.000000e+00 # a : 0.0
###################################
## INFORMATION FOR QNUMBERS 9000006
###################################
BLOCK QNUMBERS 9000006 #  h1
      1 0 # 3 times electric charge
      2 1 # number of spin states (2s+1)
      3 1 # colour rep (1: singlet, 3: triplet, 8: octet)
      4 0 # particle/antiparticle distinction (0=own anti)
</slha>
<initrwgt>
<weightgroup name='mg_reweighting' weight_name_strategy='includeIdInWeightName'>
<weight id='SM'>set param_card dim6 2 0.0 # orig: -1.412419
set param_card dim6 5 0.0 # orig: -1.041613
</weight>
<weight id='morphing_basis_vector_1'>set param_card dim6 2 1.617186 # orig: -1.412419
set param_card dim6 5 -0.2203044 # orig: -1.041613
</weight>
<weight id='morphing_basis_vector_3'>set param_card dim6 2 -1.30746 # orig: -1.412419
set param_card dim6 5 1.197328 # orig: -1.041613
</weight>
<weight id='morphing_basis_vector_4'>set param_card dim6 2 0.5652848 # orig: -1.412419
set param_card dim6 5 -1.575672 # orig: -1.041613
</weight>
<weight id='morphing_basis_vector_5'>set param_card dim6 2 0.8622004 # orig: -1.412419
set param_card dim6 5 1.494319 # orig: -1.041613
</weight>
</weightgroup>
</initrwgt>
<MGGenerationInfo>
#  Number of Events        :       100
#  Integrated weight (pb)  :       0.00099549
</MGGenerationInfo>
</header>
<init>
2212 2212 6.500000e+03 6.500000e+03 0 0 247000 247000 -3 1
9.954900e-04 2.197600e-05 9.954900e-06 1
<generator name='MadGraph5_aMC@NLO' version='3.5.3'>please cite 1405.0301 </generator>
</init>
<event>
 7      1 +9.9549000e-06 8.14176800e+01 7.81860800e-03 1.35775700e-01
        2 -1    0    0  502    0 +0.0000000000e+00 +0.0000000000e+00 +6.0463747181e+02 6.0463747181e+02 0.0000000000e+00 0.0000e+00 -1.0000e+00
        1 -1    0    0  501    0 -0.0000000000e+00 -0.0000000000e+00 -9.3311654130e+01 9.3311654130e+01 0.0000000000e+00 0.0000e+00 -1.0000e+00
       25  2    1    2    0    0 -1.2108055380e+01 +7.0678533228e+01 +2.8281481231e+01 1.4685730522e+02 1.2500066340e+02 0.0000e+00 0.0000e+00
        2  1    1    2  501    0 -4.7281052328e+01 -8.6178282617e+01 +4.3857509877e+01 1.0763677567e+02 0.0000000000e+00 0.0000e+00 -1.0000e+00
        1  1    1    2  502    0 +5.9389107708e+01 +1.5499749389e+01 +4.3918682658e+02 4.4345504505e+02 0.0000000000e+00 0.0000e+00 -1.0000e+00
       22  1    3    3    0    0 -9.6154633062e+00 +2.8885226622e+01 +7.6893657754e+01 8.2700955584e+01 0.0000000000e+00 0.0000e+00 -1.0000e+00
       22  1    3    3    0    0 -2.4925920736e+00 +4.1793306606e+01 -4.8612176524e+01 6.4156349636e+01 0.0000000000e+00 0.0000e+00 -1.0000e+00
<rwgt>
<wgt id='SM'> +9.4001026e-06 </wgt>
<wgt id='morphing_basis_vector_1'> +9.2982556e-06 </wgt>
<wgt id='morphing_basis_vector_3'> +9.1109424e-06 </wgt>
<wgt id='morphing_basis_vector_4'> +9.9246347e-06 </wgt>
<wgt id='morphing_basis_vector_5'> +8.7686465e-06 </wgt>
</rwgt>
</event>
<event>
 7      1 +9.9549000e-06 6.23115300e+01 7.81860800e-03 1.53289400e-01
        2 -1    0    0  502    0 +0.0000000000e+00 +0.0000000000e+00 +2.4683101124e+02 2.4683101124e+02 0.0000000000e+00 0.0000e+00 -1.0000e+00
        1 -1    0    0  501    0 -0.0000000000e+00 -0.0000000000e+00 -6.1166830548e+02 6.1166830548e+02 0.0000000000e+00 0.0000e+00 -1.0000e+00
       25  2    1    2    0    0 +3.0638576141e+01 +7.4261623535e+01 -1.5000490160e+02 2.1114198277e+02 1.2500382116e+02 0.0000e+00 0.0000e+00
        2  1    1    2  501    0 -1.4864568864e+01 -5.9252961983e+01 -4.2837431601e+02 4.3270824296e+02 0.0000000000e+00 0.0000e+00 -1.0000e+00
        1  1    1    2  502    0 -1.5774007277e+01 -1.5008661552e+01 +2.1354192337e+02 2.1464909099e+02 0.0000000000e+00 0.0000e+00 -1.0000e+00
       22  1    3    3    0    0 +1.4962710055e+01 +6.9767713748e+01 -1.2217044917e+01 7.2392491049e+01 0.0000000000e+00 0.0000e+00 1.0000e+00
       22  1    3    3    0    0 +1.5675866087e+01 +4.4939097868e+00 -1.3778785668e+02 1.3874949172e+02 0.0000000000e+00 0.0000e+00 1.0000e+00
<rwgt>
<wgt id='SM'> +9.8706091e-06 </wgt>
<wgt id='morphing_basis_vector_1'> +9.7223229e-06 </wgt>
<wgt id='morphing_basis_vector_3'> +1.0029497e-05 </wgt>
<wgt id='morphing_basis_vector_4'> +9.7631398e-06 </wgt>
<wgt id='morphing_basis_vector_5'> +9.8512281e-06 </wgt>
</rwgt>
</event>
<event>
 7      1 +9.9549000e-06 7.36107200e+01 7.81860800e-03 1.38239700e-01
        2 -1    0    0  502    0 +0.0000000000e+00 +0.0000000000e+00 +6.9927797787e+02 6.9927797787e+02 0.0000000000e+00 0.0000e+00 -1.0000e+00
        1 -1    0    0  501    0 -0.0000000000e+00 -0.0000000000e+00 -4.4941455155e+02 4.4941455155e+02 0.0000000000e+00 0.0000e+00 -1.0000e+00
       25  2    1    2    0    0 +1.2770009172e+02 -2.3828962759e+00 -6.5964298132e+00 1.7883701273e+02 1.2500469037e+02 0.0000e+00 0.0000e+00
        2  1    1    2  501    0 -5.5348946334e+01 +1.2276566283e+00 -3.5239425284e+02 3.5671658559e+02 0.0000000000e+00 0.0000e+00 -1.0000e+00
        1  1    1    2  502    0 -7.2351145387e+01 +1.1552396476e+00 +6.0885410898e+02 6.1313893110e+02 0.0000000000e+00 0.0000e+00 -1.0000e+00
       22  1    3    3    0    0 +2.5485738496e+01 -4.4916749705e+01 -3.7583444694e+01 6.3871375324e+01 0.0000000000e+00 0.0000e+00 -1.0000e+00
       22  1    3    3    0    0 +1.0221435323e+02 +4.2533853429e+01 +3.0987014881e+01 1.1496563741e+02 0.0000000000e+00 0.0000e+00 -1.0000e+00
<rwgt>
<wgt id='SM'> +9.6822820e-06 </wgt>
<wgt id='morphing_basis_vector_1'> +9.3764808e-06 </wgt>
<wgt id='morphing_basis_vector_3'> +9.9319267e-06 </wgt>
<wgt id='morphing_basis_vector_4'> +9.5766833e-06 </wgt>
<wgt id='morphing_basis_vector_5'> +9.5168095e-06 </wgt>
</rwgt>
</event>
<event>
 7      1 +9.9549000e-06 8.57081000e+01 7.81860800e-03 1.34392800e-01
        2 -1    0    0  502    0 +0.0000000000e+00 +0.0000000000e+00 +1.0651079180e+03 1.0651079180e+03 0.0000000000e+00 0.0000e+00 -1.0000e+00
        1 -1    0    0  501    0 -0.0000000000e+00 -0.0000000000e+00 -1.8495863155e+03 1.8495863155e+03 0.0000000000e+00 0.0000e+00 -1.0000e+00
       25  2    1    2    0    0 -1.2731432992e+01 -7.6413831133e+01 -8.6824698918e+01 1.7077601053e+02 1.2499901781e+02 0.0000e+00 0.0000e+00
        2  1    1    2  501    0 -5.8999798960e+01 +2.8672186447e+01 -1.7183448374e+03 1.7195964790e+03 0.0000000000e+00 0.0000e+00 -1.0000e+00
        1  1    1    2  502    0 +7.1731231952e+01 +4.7741644686e+01 +1.0206911388e+03 1.0243217440e+03 0.0000000000e+00 0.0000e+00 -1.0000e+00
       22  1    3    3    0    0 -1.3876906455e+01 -8.5161156138e+01 -2.8419235965e+00 8.6331150677e+01 0.0000000000e+00 0.0000e+00 -1.0000e+00
       22  1    3    3    0    0 +1.1454734637e+00 +8.7473250041e+00 -8.3982775321e+01 8.4444859849e+01 0.0000000000e+00 0.0000e+00 -1.0000e+00
<rwgt>
<wgt id='SM'> +1.0081992e-05 </wgt>
<wgt id='morphing_basis_vector_1'> +9.9341820e-06 </wgt>
<wgt id='morphing_basis_vector_3'> +1.0417003e-05 </wgt>
<wgt id='morphing_basis_vector_4'> +9.7212258e-06 </wgt>
<wgt id='morphing_basis_vector_5'> +1.0340291e-05 </wgt>
</rwgt>
</event>
<event>
 7      1 +9.9549000e-06 8.21561300e+01 7.81860800e-03 1.42937300e-01
        2 -1    0    0  502    0 +0.0000000000e+00 +0.0000000000e+00 +9.0840092929e+02 9.0840092929e+02 0.0000000000e+00 0.0000e+00 -1.0000e+00
        1 -1    0    0  501    0 -0.0000000000e+00 -0.0000000000e+00 -8.0250462813e+02 8.0250462813e+02 0.0000000000e+00 0.0000e+00 -1.0000e+00
       25  2    1    2    0    0 +4.7524336374e+01 -1.1228057328e+01 -6.9596161671e+00 1.3437956081e+02 1.2499919314e+02 0.0000e+00 0.0000e+00
        2  1    1    2  501    0 +3.3066657551e+01 -9.1236109399e+00 -7.2938612678e+02 7.3019228019e+02 0.0000000000e+00 0.0000e+00 -1.0000e+00
        1  1    1    2  502    0 -8.0590993925e+01 +2.0351668268e+01 +8.4224204410e+02 8.4633371643e+02 0.0000000000e+00 0.0000e+00 -1.0000e+00
       22  1    3    3    0    0 +1.6282106884e+01 +5.2593832919e+01 -2.5893894564e+01 6.0841696569e+01 0.0000000000e+00 0.0000e+00 1.0000e+00
       22  1    3    3    0    0 +3.1242229490e+01 -6.3821890247e+01 +1.8934278397e+01 7.3537864238e+01 0.0000000000e+00 0.0000e+00 1.0000e+00
<rwgt>
<wgt id='SM'> +9.9225716e-06 </wgt>
<wgt id='morphing_basis_vector_1'> +9.8818217e-06 </wgt>
<wgt id='morphing_basis_vector_3'> +9.9583355e-06 </wgt>
<wgt id='morphing_basis_vector_4'> +9.9042866e-06 </wgt>
<wgt id='morphing_basis_vector_5'> +9.9051832e-06 </wgt>
</rwgt>
</event>
<event>
 7      1 +9.9549000e-06 9.91065200e+01 7.81860800e-03 1.30290300e-01
        2 -1    0    0  502    0 +0.0000000000e+00 +0.0000000000e+00 +6.6649581301e+01 6.6649581301e+01 0.0000000000e+00 0.0000e+00 -1.0000e+00
        1 -1    0    0  501    0 -0.0000000000e+00 -0.0000000000e+00 -1.2738740314e+03 1.2738740314e+03 0.0000000000e+00 0.0000e+00 -1.0000e+00
       25  2    1    2    0    0 -1.2351920471e+02 +7.9304066867e+01 -2.8148349788e+02 3.4118009120e+02 1.2499906438e+02 0.0000e+00 0.0000e+00
        2  1    1    2  501    0 +9.6642557143e+01 -2.1602755832e+00 -9.1126670464e+02 9.1637953798e+02 0.0000000000e+00 0.0000e+00 -1.0000e+00
        1  1    1    2  502    0 +2.6876647566e+01 -7.7143791284e+01 -1.4474247570e+01 8.2963983516e+01 0.0000000000e+00 0.0000e+00 -1.0000e+00
       22  1    3    3    0    0 -1.3693688596e+02 +4.5681722463e+01 -2.6420000545e+02 3.0106506504e+02 0.0000000000e+00 0.0000e+00 1.0000e+00
       22  1    3    3    0    0 +1.3417681253e+01 +3.3622344404e+01 -1.7283492428e+01 4.0115026161e+01 0.0000000000e+00 0.0000e+00 1.0000e+00
<rwgt>
<wgt id='SM'> +1.0053048e-05 </wgt>
<wgt id='morphing_basis_vector_1'> +9.3765808e-06 </wgt>
<wgt id='morphing_basis_vector_3'> +1.1222730e-05 </wgt>
<wgt id='morphing_basis_vector_4'> +8.9889771e-06 </wgt>
<wgt id='morphing_basis_vector_5'> +1.0611859e-05 </wgt>
</rwgt>
</event>
<event>
 7      1 +9.9549000e-06 5.01744600e+01 7.81860800e-03 1.51779700e-01
        2 -1    0    0  502    0 +0.0000000000e+00 +0.0000000000e+00 +3.4924649049e+02 3.4924649049e+02 0.0000000000e+00 0.0000e+00 -1.0000e+00
        1 -1    0    0  501    0 -0.0000000000e+00 -0.0000000000e+00 -9.1179460758e+02 9.1179460758e+02 0.0000000000e+00 0.0000e+00 -1.0000e+00
       25  2    1    2    0    0 +3.5565227866e+00 +7.7643378438e+01 -2.3127376526e+02 2.7414136682e+02 1.2499916574e+02 0.0000e+00 0.0000e+00
        2  1    1    2  501    0 +4.4019167301e+00 -4.8831702977e+01 -6.5749098675e+02 6.5931654745e+02 0.0000000000e+00 0.0000e+00 -1.0000e+00
        1  1    1    2  502    0 -7.9584395167e+00 -2.8811675461e+01 +3.2621663492e+02 3.2758318379e+02 0.0000000000e+00 0.0000e+00 -1.0000e+00
       22  1    3    3    0    0 +5.1089943567e+01 -8.3055451428e-01 -1.1643355225e+02 1.2715205167e+02 0.0000000000e+00 0.0000e+00 1.0000e+00
       22  1    3    3    0    0 -4.7533420780e+01 +7.8473932952e+01 -1.1484021301e+02 1.4698931515e+02 0.0000000000e+00 0.0000e+00 1.0000e+00
<rwgt>
<wgt id='SM'> +9.8738838e-06 </wgt>
<wgt id='morphing_basis_vector_1'> +9.7460081e-06 </wgt>
<wgt id='morphing_basis_vector_3'> +1.0003807e-05 </wgt>
<wgt id='morphing_basis_vector_4'> +9.7913251e-06 </wgt>
<wgt id='morphing_basis_vector_5'> +9.8462733e-06 </wgt>
</rwgt>
</event>
<event>
 7      1 +9.9549000e-06 7.48101800e+01 7.81860800e-03 1.41849900e-01
        2 -1    0    0  502    0 +0.0000000000e+00 +0.0000000000e+00 +1.9850846371e+02 1.9850846371e+02 0.0000000000e+00 0.0000e+00 -1.0000e+00
        1 -1    0    0  501    0 -0.0000000000e+00 -0.0000000000e+00 -2.1076583548e+02 2.1076583548e+02 0.0000000000e+00 0.0000e+00 -1.0000e+00
       25  2    1    2    0    0 +9.2004897808e+01 -3.6637645300e+01 +1.6515969094e+00 1.5948421688e+02 1.2500107755e+02 0.0000e+00 0.0000e+00
        2  1    1    2  501    0 -5.3081144987e+01 +4.9316971548e+01 -1.1770216036e+02 1.3821566550e+02 0.0000000000e+00 0.0000e+00 -1.0000e+00
        1  1    1    2  502    0 -3.8923752821e+01 -1.2679326249e+01 +1.0379319168e+02 1.1157441681e+02 0.0000000000e+00 0.0000e+00 -1.0000e+00
       22  1    3    3    0    0 +1.0135630600e+02 -6.9589302191e+00 +4.0794925483e+01 1.0947946575e+02 0.0000000000e+00 0.0000e+00 1.0000e+00
       22  1    3    3    0    0 -9.3514081935e+00 -2.9678715081e+01 -3.9143328574e+01 5.0004751133e+01 0.0000000000e+00 0.0000e+00 1.0000e+00
<rwgt>
<wgt id='SM'> +9.5046800e-06 </wgt>
<wgt id='morphing_basis_vector_1'> +9.2887278e-06 </wgt>
<wgt id='morphing_basis_vector_3'> +9.4703189e-06 </wgt>
<wgt id='morphing_basis_vector_4'> +9.7402351e-06 </wgt>
<wgt id='morphing_basis_vector_5'> +9.0609158e-06 </wgt>
</rwgt>
</event>
<event>
 7      1 +9.9549000e-06 5.79821500e+01 7.81860800e-03 1.40853300e-01
        2 -1    0    0  502    0 +0.0000000000e+00 +0.0000000000e+00 +1.0328079749e+03 1.0328079749e+03 0.0000000000e+00 0.0000e+00 -1.0000e+00
        1 -1    0    0  501    0 -0.0000000000e+00 -0.0000000000e+00 -1.7244922594e+02 1.7244922594e+02 0.0000000000e+00 0.0000e+00 -1.0000e+00
       25  2    1    2    0    0 -2.3932830404e+01 +9.4127560684e+01 +1.9235588464e+02 2.4911468864e+02 1.2499825474e+02 0.0000e+00 0.0000e+00
        2  1    1    2  501    0 +4.1294082799e+01 -3.9766254813e+01 -1.3731682330e+02 1.4880344841e+02 0.0000000000e+00 0.0000e+00 -1.0000e+00
        1  1    1    2  502    0 -1.7361252394e+01 -5.4361305870e+01 +8.0531968759e+02 8.0733906377e+02 0.0000000000e+00 0.0000e+00 -1.0000e+00
       22  1    3    3    0    0 -4.3965259132e+00 +1.0586140443e+02 +7.5608345748e+01 1.3016369822e+02 0.0000000000e+00 0.0000e+00 -1.0000e+00
       22  1    3    3    0    0 -1.9536304491e+01 -1.1733843749e+01 +1.1674753890e+02 1.1895099041e+02 0.0000000000e+00 0.0000e+00 -1.0000e+00
<rwgt>
<wgt id='SM'> +9.9449143e-06 </wgt>
<wgt id='morphing_basis_vector_1'> +9.7241355e-06 </wgt>
<wgt id='morphing_basis_vector_3'> +1.0279132e-05 </wgt>
<wgt id='morphing_basis_vector_4'> +9.6461611e-06 </wgt>
<wgt id='morphing_basis_vector_5'> +1.0067237e-05 </wgt>
</rwgt>
</event>
<event>
 7      1 +9.9549000e-06 6.19675200e+01 7.81860800e-03 1.40556500e-01
        2 -1    0    0  502    0 +0.0000000000e+00 +0.0000000000e+00 +7.9804307115e+01 7.9804307115e+01 0.0000000000e+00 0.0000e+00 -1.0000e+00
        1 -1    0    0  501    0 -0.0000000000e+00 -0.0000000000e+00 -9.5194307464e+02 9.5194307464e+02 0.0000000000e+00 0.0000e+00 -1.0000e+00
       25  2    1    2    0    0 +2.4662327895e+01 +2.8376261705e+01 -5.6716556383e+02 5.8199213866e+02 1.2499852010e+02 0.0000e+00 0.0000e+00
        2  1    1    2  501    0 -6.8249884227e+01 +1.5670286556e+01 -3.6008201534e+02 3.6682783748e+02 0.0000000000e+00 0.0000e+00 -1.0000e+00
        1  1    1    2  502    0 +4.3587556332e+01 -4.4046548260e+01 +5.5108811645e+01 8.2927405612e+01 0.0000000000e+00 0.0000e+00 -1.0000e+00
       22  1    3    3    0    0 +5.4778545571e+01 +2.6603011980e+00 -5.0703408916e+02 5.0999150368e+02 0.0000000000e+00 0.0000e+00 -1.0000e+00
       22  1    3    3    0    0 -3.0116217677e+01 +2.5715960507e+01 -6.0131474673e+01 7.2000634985e+01 0.0000000000e+00 0.0000e+00 -1.0000e+00
<rwgt>
<wgt id='SM'> +9.7373579e-06 </wgt>
<wgt id='morphing_basis_vector_1'> +9.7348756e-06 </wgt>
<wgt id='morphing_basis_vector_3'> +9.5644506e-06 </wgt>
<wgt id='morphing_basis_vector_4'> +9.9979610e-06 </wgt>
<wgt id='morphing_basis_vector_5'> +9.4611275e-06 </wgt>
</rwgt>
</event>
<event>
 7      1 +9.9549000e-06 4.09358600e+01 7.81860800e-03 1.54596300e-01
        2 -1    0    0  502    0 +0.0000000000e+00 +0.0000000000e+00 +1.8434517423e+03 1.8434517423e+03 0.0000000000e+00 0.0000e+00 -1.0000e+00
        1 -1    0    0  501    0 -0.0000000000e+00 -0.0000000000e+00 -1.3453968120e+03 1.3453968120e+03 0.0000000000e+00 0.0000e+00 -1.0000e+00
       25  2    1    2    0    0 +1.4796876434e+01 +4.8421481232e+00 +3.1336321736e+02 3.3773506001e+02 1.2500428319e+02 0.0000e+00 0.0000e+00
        2  1    1    2  501    0 -3.8322190816e+01 +1.4471858400e+01 -1.3327435737e+03 1.3333729630e+03 0.0000000000e+00 0.0000e+00 -1.0000e+00
        1  1    1    2  502    0 +2.3525314382e+01 -1.9314006523e+01 +1.5174352867e+03 1.5177405313e+03 0.0000000000e+00 0.0000e+00 -1.0000e+00
       22  1    3    3    0    0 +4.6151371498e+01 -3.7036408295e+01 +8.5742886898e+01 1.0418007143e+02 0.0000000000e+00 0.0000e+00 1.0000e+00
       22  1    3    3    0    0 -3.1354495065e+01 +4.1878556418e+01 +2.2762033046e+02 2.3355498857e+02 0.0000000000e+00 0.0000e+00 1.0000e+00
<rwgt>
<wgt id='SM'> +9.9338129e-06 </wgt>
<wgt id='morphing_basis_vector_1'> +9.9346546e-06 </wgt>
<wgt id='morphing_basis_vector_3'> +9.9151285e-06 </wgt>
<wgt id='morphing_basis_vector_4'> +9.9606138e-06 </wgt>
<wgt id='morphing_basis_vector_5'> +9.9057972e-06 </wgt>
</rwgt>
</event>
<event>
 7      1 +9.9549000e-06 8.27424100e+01 7.81860800e-03 1.38833500e-01
        2 -1    0    0  502    0 +0.0000000000e+00 +0.0000000000e+00 +1.0001444419e+03 1.0001444419e+03 0.0000000000e+00 0.0000e+00 -1.0000e+00
        1 -1    0    0  501    0 -0.0000000000e+00 -0.0000000000e+00 -1.9109413055e+02 1.9109413055e+02 0.0000000000e+00 0.0000e+00 -1.0000e+00
       25  2    1    2    0    0 -5.2553235900e+01 -6.2254572689e+01 +1.0113586374e+02 1.8025105065e+02 1.2499801559e+02 0.0000e+00 0.0000e+00
        2  1    1    2  501    0 +4.2201962993e+01 -2.0556649074e+01 -1.4581698201e+02 1.5318672836e+02 0.0000000000e+00 0.0000e+00 -1.0000e+00
        1  1    1    2  502    0 +1.0351272907e+01 +8.2811221762e+01 +8.5373142963e+02 8.5780079344e+02 0.0000000000e+00 0.0000e+00 -1.0000e+00
       22  1    3    3    0    0 +1.7541777709e+01 -7.4140960392e+01 +6.6678376880e+01 1.0124525627e+02 0.0000000000e+00 0.0000e+00 -1.0000e+00
       22  1    3    3    0    0 -7.0095013609e+01 +1.1886387703e+01 +3.4457486861e+01 7.9005794383e+01 0.0000000000e+00 0.0000e+00 -1.0000e+00
<rwgt>
<wgt id='SM'> +9.6615669e-06 </wgt>
<wgt id='morphing_basis_vector_1'> +9.5801363e-06 </wgt>
<wgt id='morphing_basis_vector_3'> +9.5463469e-06 </wgt>
<wgt id='morphing_basis_vector_4'> +9.9014706e-06 </wgt>
<wgt id='morphing_basis_vector_5'> +9.3337997e-06 </wgt>
</rwgt>
</event>
<event>
 7      1 +9.9549000e-06 1.11015400e+02 7.81860800e-03 1.39624300e-01
        2 -1    0    0  502    0 +0.0000000000e+00 +0.0000000000e+00 +1.0816866614e+03 1.0816866614e+03 0.0000000000e+00 0.0000e+00 -1.0000e+00
        1 -1    0    0  501    0 -0.0000000000e+00 -0.0000000000e+00 -1.8798292916e+02 1.8798292916e+02 0.0000000000e+00 0.0000e+00 -1.0000e+00
       25  2    1    2    0    0 +1.1041378794e+02 -6.0528628103e+01 +4.9360936588e+01 1.8416551286e+02 1.2500205869e+02 0.0000e+00 0.0000e+00
        2  1    1    2  501    0 -3.5037795263e+00 +3.2652801426e+01 -1.1511406672e+02 1.1970685139e+02 0.0000000000e+00 0.0000e+00 -1.0000e+00
        1  1    1    2  502    0 -1.0691000842e+02 +2.7875826678e+01 +9.5945686234e+02 9.6579722629e+02 0.0000000000e+00 0.0000e+00 -1.0000e+00
       22  1    3    3    0    0 +6.1567334219e+01 -8.7676089059e+01 +6.6031817946e+01 1.2584845735e+02 0.0000000000e+00 0.0000e+00 1.0000e+00
       22  1    3    3    0    0 +4.8846453726e+01 +2.7147460956e+01 -1.6670881358e+01 5.8317055509e+01 0.0000000000e+00 0.0000e+00 1.0000e+00
<rwgt>
<wgt id='SM'> +9.5062241e-06 </wgt>
<wgt id='morphing_basis_vector_1'> +9.2562287e-06 </wgt>
<wgt id='morphing_basis_vector_3'> +9.5251093e-06 </wgt>
<wgt id='morphing_basis_vector_4'> +9.6907895e-06 </wgt>
<wgt id='morphing_basis_vector_5'> +9.0846892e-06 </wgt>
</rwgt>
</event>
<event>
 7      1 +9.9549000e-06 3.70728800e+01 7.81860800e-03 1.56721000e-01
        2 -1    0    0  502    0 +0.0000000000e+00 +0.0000000000e+00 +6.4357800298e+02 6.4357800298e+02 0.0000000000e+00 0.0000e+00 -1.0000e+00
        1 -1    0    0  501    0 -0.0000000000e+00 -0.0000000000e+00 -1.6067647502e+03 1.6067647502e+03 0.0000000000e+00 0.0000e+00 -1.0000e+00
       25  2    1    2    0    0 +3.2965292821e+01 -9.6250725428e+00 +6.9895607445e+01 1.4727924845e+02 1.2500571400e+02 0.0000e+00 0.0000e+00
        2  1    1    2  501    0 -1.6863691348e+01 -2.4030073377e+01 -1.5672848568e+03 1.5675597759e+03 0.0000000000e+00 0.0000e+00 -1.0000e+00
        1  1    1    2  502    0 -1.6101601473e+01 +3.3655145920e+01 +5.3420250211e+02 5.3550372891e+02 0.0000000000e+00 0.0000e+00 -1.0000e+00
       22  1    3    3    0    0 +5.5911524501e+01 -1.2899927233e+01 +9.6328255568e+01 1.1212332280e+02 0.0000000000e+00 0.0000e+00 1.0000e+00
       22  1    3    3    0    0 -2.2946231680e+01 +3.2748546898e+00 -2.6432648123e+01 3.5155925650e+01 0.0000000000e+00 0.0000e+00 1.0000e+00
<rwgt>
<wgt id='SM'> +9.9800566e-06 </wgt>
<wgt id='morphing_basis_vector_1'> +9.9487927e-06 </wgt>
<wgt id='morphing_basis_vector_3'> +1.0048833e-05 </wgt>
<wgt id='morphing_basis_vector_4'> +9.9055018e-06 </wgt>
<wgt id='morphing_basis_vector_5'> +1.0032013e-05 </wgt>
</rwgt>
</event>
<event>
 7      1 +9.9549000e-06 6.42853700e+01 7.81860800e-03 1.43749900e-01
        2 -1    0    0  502    0 +0.0000000000e+00 +0.0000000000e+00 +7.7870390360e+02 7.7870390360e+02 0.0000000000e+00 0.0000e+00 -1.0000e+00
        1 -1    0    0  501    0 -0.0000000000e+00 -0.0000000000e+00 -1.6269600604e+03 1.6269600604e+03 0.0000000000e+00 0.0000e+00 -1.0000e+00
       25  2    1    2    0    0 -4.5642374984e+01 +2.7628833732e+00 +2.9832706267e+02 3.2667160248e+02 1.2499775849e+02 0.0000e+00 0.0000e+00
        2  1    1    2  501    0 +4.6975238628e+01 -4.3972911508e+01 -1.6112327387e+03 1.6125170474e+03 0.0000000000e+00 0.0000e+00 -1.0000e+00
        1  1    1    2  502    0 -1.3328636440e+00 +4.1210028135e+01 +4.6464951922e+02 4.6647531409e+02 0.0000000000e+00 0.0000e+00 -1.0000e+00
       22  1    3    3    0    0 +2.4010311607e+01 -4.2191696631e+01 +1.3593791829e+02 1.4434594541e+02 0.0000000000e+00 0.0000e+00 1.0000e+00
       22  1    3    3    0    0 -6.9652686591e+01 +4.4954580004e+01 +1.6238914438e+02 1.8232565707e+02 0.0000000000e+00 0.0000e+00 1.0000e+00
<rwgt>
<wgt id='SM'> +9.8237406e-06 </wgt>
<wgt id='morphing_basis_vector_1'> +9.8141125e-06 </wgt>
<wgt id='morphing_basis_vector_3'> +9.7307795e-06 </wgt>
<wgt id='morphing_basis_vector_4'> +9.9694136e-06 </wgt>
<wgt id='morphing_basis_vector_5'> +9.6596706e-06 </wgt>
</rwgt>
</event>
<event>
 7      1 +9.9549000e-06 1.21275000e+02 7.81860800e-03 1.33443800e-01
        2 -1    0    0  502    0 +0.0000000000e+00 +0.0000000000e+00 +3.6190245328e+02 3.6190245328e+02 0.0000000000e+00 0.0000e+00 -1.0000e+00
        1 -1    0    0  501    0 -0.0000000000e+00 -0.0000000000e+00 -2.8339638809e+02 2.8339638809e+02 0.0000000000e+00 0.0000e+00 -1.0000e+00
       25  2    1    2    0    0 -1.1480524637e+02 +4.0844684636e+01 +1.9165816444e+01 1.7561152597e+02 1.2499418656e+02 0.0000e+00 0.0000e+00
        2  1    1    2  501    0 +2.5486610962e+01 +4.3407552605e+01 -1.8742240287e+02 1.9406426785e+02 0.0000000000e+00 0.0000e+00 -1.0000e+00
        1  1    1    2  502    0 +8.9318635410e+01 -8.4252237241e+01 +2.4676265161e+02 2.7562304755e+02 0.0000000000e+00 0.0000e+00 -1.0000e+00
       22  1    3    3    0    0 -9.6836028964e+01 +5.6265891170e+01 -3.4305163241e+01 1.1713202483e+02 0.0000000000e+00 0.0000e+00 1.0000e+00
       22  1    3    3    0    0 -1.7969217407e+01 -1.5421206535e+01 +5.3470979684e+01 5.8479501140e+01 0.0000000000e+00 0.0000e+00 1.0000e+00
<rwgt>
<wgt id='SM'> +1.0054254e-05 </wgt>
<wgt id='morphing_basis_vector_1'> +9.6543512e-06 </wgt>
<wgt id='morphing_basis_vector_3'> +1.0767593e-05 </wgt>
<wgt id='morphing_basis_vector_4'> +9.3751736e-06 </wgt>
<wgt id='morphing_basis_vector_5'> +1.0433573e-05 </wgt>
</rwgt>
</event>
<event>
 7      1 +9.9549000e-06 9.05290600e+01 7.81860800e-03 1.44748900e-01
        2 -1    0    0  502    0 +0.0000000000e+00 +0.0000000000e+00 +2.0668661897e+03 2.0668661897e+03 0.0000000000e+00 0.0000e+00 -1.0000e+00
        1 -1    0    0  501    0 -0.0000000000e+00 -0.0000000000e+00 -8.5264212733e+02 8.5264212733e+02 0.0000000000e+00 0.0000e+00 -1.0000e+00
       25  2    1    2    0    0 +3.7389480692e+01 +5.4165710981e+01 +1.0143191736e+03 1.0241083494e+03 1.2499051120e+02 0.0000e+00 0.0000e+00
        2  1    1    2  501    0 -6.1691952280e+01 -6.6336564908e+01 -8.4515027114e+02 8.4999142209e+02 0.0000000000e+00 0.0000e+00 -1.0000e+00
        1  1    1    2  502    0 +2.4302471588e+01 +1.2170853926e+01 +1.0450551599e+03 1.0454085455e+03 0.0000000000e+00 0.0000e+00 -1.0000e+00
       22  1    3    3    0    0 +5.2530980147e+01 -2.1104240694e+01 +2.7198104632e+02 2.7781033531e+02 0.0000000000e+00 0.0000e+00 1.0000e+00
       22  1    3    3    0    0 -1.5141499454e+01 +7.5269951676e+01 +7.4233812730e+02 7.4629801412e+02 0.0000000000e+00 0.0000e+00 1.0000e+00
<rwgt>
<wgt id='SM'> +9.8624345e-06 </wgt>
<wgt id='morphing_basis_vector_1'> +9.8286320e-06 </wgt>
<wgt id='morphing_basis_vector_3'> +9.8381328e-06 </wgt>
<wgt id='morphing_basis_vector_4'> +9.9268668e-06 </wgt>
<wgt id='morphing_basis_vector_5'> +9.7630076e-06 </wgt>
</rwgt>
</event>
<event>
 7      1 +9.9549000e-06 4.08879100e+01 7.81860800e-03 1.52618100e-01
        2 -1    0    0  502    0 +0.0000000000e+00 +0.0000000000e+00 +1.2263782110e+03 1.2263782110e+03 0.0000000000e+00 0.0000e+00 -1.0000e+00
        1 -1    0    0  501    0 -0.0000000000e+00 -0.0000000000e+00 -6.2857263451e+02 6.2857263451e+02 0.0000000000e+00 0.0000e+00 -1.0000e+00
       25  2    1    2    0    0 +6.1762127966e+01 -4.2426325344e+01 +3.6682446272e+02 3.9471207391e+02 1.2499152494e+02 0.0000e+00 0.0000e+00
        2  1    1    2  501    0 -3.0790050000e+01 +2.6812479244e+01 -6.1359444615e+02 6.1495128309e+02 0.0000000000e+00 0.0000e+00 -1.0000e+00
        1  1    1    2  502    0 -3.0972077967e+01 +1.5613846100e+01 +8.4457555996e+02 8.4528748854e+02 0.0000000000e+00 0.0000e+00 -1.0000e+00
       22  1    3    3    0    0 +9.5681929085e+01 -5.3806982957e+01 +2.6799970234e+02 2.8961019219e+02 0.0000000000e+00 0.0000e+00 -1.0000e+00
       22  1    3    3    0    0 -3.3919801119e+01 +1.1380657613e+01 +9.8824760380e+01 1.0510188171e+02 0.0000000000e+00 0.0000e+00 -1.0000e+00
<rwgt>
<wgt id='SM'> +9.8413480e-06 </wgt>
<wgt id='morphing_basis_vector_1'> +9.7361814e-06 </wgt>
<wgt id='morphing_basis_vector_3'> +9.9092791e-06 </wgt>
<wgt id='morphing_basis_vector_4'> +9.8301588e-06 </wgt>
<wgt id='morphing_basis_vector_5'> +9.7577226e-06 </wgt>
</rwgt>
</event>
<event>
 7      1 +9.9549000e-06 1.21915800e+02 7.81860800e-03 1.28700800e-01
        2 -1    0    0  502    0 +0.0000000000e+00 +0.0000000000e+00 +1.3042409063e+03 1.3042409063e+03 0.0000000000e+00 0.0000e+00 -1.0000e+00
        1 -1    0    0  501    0 -0.0000000000e+00 -0.0000000000e+00 -4.7023901614e+01 4.7023901614e+01 0.0000000000e+00 0.0000e+00 -1.0000e+00
       25  2    1    2    0    0 +8.4674063431e+01 -3.9537943595e+01 +2.1095109179e+02 2.6240978886e+02 1.2500235261e+02 0.0000e+00 0.0000e+00
        2  1    1    2  501    0 -1.6162729596e+02 +4.1467843427e+01 +3.4347837094e+02 3.8186431640e+02 0.0000000000e+00 0.0000e+00 -1.0000e+00
        1  1    1    2  502    0 +7.6953232530e+01 -1.9298998323e+00 +7.0278754191e+02 7.0699070261e+02 0.0000000000e+00 0.0000e+00 -1.0000e+00
       22  1    3    3    0    0 +1.1012022803e+02 -1.5737723652e+01 +1.9407830386e+02 2.2369740408e+02 0.0000000000e+00 0.0000e+00 -1.0000e+00
       22  1    3    3    0    0 -2.5446164596e+01 -2.3800219943e+01 +1.6872787933e+01 3.8712384771e+01 0.0000000000e+00 0.0000e+00 -1.0000e+00
<rwgt>
<wgt id='SM'> +9.9437039e-06 </wgt>
<wgt id='morphing_basis_vector_1'> +9.6215206e-06 </wgt>
<wgt id='morphing_basis_vector_3'> +1.0462604e-05 </wgt>
<wgt id='morphing_basis_vector_4'> +9.5181558e-06 </wgt>
<wgt id='morphing_basis_vector_5'> +1.0157466e-05 </wgt>
</rwgt>
</event>
<event>
 7      1 +9.9549000e-06 7.27834300e+01 7.81860800e-03 1.39637000e-01
        2 -1    0    0  502    0 +0.0000000000e+00 +0.0000000000e+00 +1.7697534484e+02 1.7697534484e+02 0.0000000000e+00 0.0000e+00 -1.0000e+00
        1 -1    0    0  501    0 -0.0000000000e+00 -0.0000000000e+00 -8.5474119331e+02 8.5474119331e+02 0.0000000000e+00 0.0000e+00 -1.0000e+00
       25  2    1    2    0    0 -3.9417018707e+01 -1.7589043025e+01 -6.7997065436e+00 1.3241523404e+02 1.2499792958e+02 0.0000e+00 0.0000e+00
        2  1    1    2  501    0 +7.0716788777e+01 -2.1453557250e+01 -7.7781379716e+02 7.8131646750e+02 0.0000000000e+00 0.0000e+00 -1.0000e+00
        1  1    1    2  502    0 -3.1299770070e+01 +3.9042600276e+01 +1.0684765523e+02 1.1798483662e+02 0.0000000000e+00 0.0000e+00 -1.0000e+00
       22  1    3    3    0    0 -8.3648415484e+01 -1.6704212480e+01 -1.7087253001e+01 8.6994610998e+01 0.0000000000e+00 0.0000e+00 1.0000e+00
       22  1    3    3    0    0 +4.4231396776e+01 -8.8483054531e-01 +1.0287546457e+01 4.5420623047e+01 0.0000000000e+00 0.0000e+00 1.0000e+00
<rwgt>
<wgt id='SM'> +9.8169383e-06 </wgt>
<wgt id='morphing_basis_vector_1'> +9.8159453e-06 </wgt>
<wgt id='morphing_basis_vector_3'> +9.7053465e-06 </wgt>
<wgt id='morphing_basis_vector_4'> +9.9831525e-06 </wgt>
<wgt id='morphing_basis_vector_5'> +9.6390748e-06 </wgt>
</rwgt>
</event>
<event>
 7      1 +9.9549000e-06 8.08498900e+01 7.81860800e-03 1.41016100e-01
        2 -1    0    0  502    0 +0.0000000000e+00 +0.0000000000e+00 +1.9376104393e+03 1.9376104393e+03 0.0000000000e+00 0.0000e+00 -1.0000e+00
        1 -1    0    0  501    0 -0.0000000000e+00 -0.0000000000e+00 -2.1678244499e+01 2.1678244499e+01 0.0000000000e+00 0.0000e+00 -1.0000e+00
       25  2    1    2    0    0 +4.6860169810e+01 +8.2467304517e+01 +1.7193775507e+03 1.7265231093e+03 1.2500461335e+02 0.0000e+00 0.0000e+00
        2  1    1    2  501    0 -3.4164480696e+01 -2.1578987723e+01 +1.9039872467e+01 4.4669689902e+01 0.0000000000e+00 0.0000e+00 -1.0000e+00
        1  1    1    2  502    0 -1.2695689114e+01 -6.0888316793e+01 +1.7751477163e+02 1.8809588457e+02 0.0000000000e+00 0.0000e+00 -1.0000e+00
       22  1    3    3    0    0 -3.0229107244e+01 +4.8242503588e-01 +1.4444129052e+02 1.4757139989e+02 0.0000000000e+00 0.0000e+00 -1.0000e+00
       22  1    3    3    0    0 +7.7089277054e+01 +8.1984879481e+01 +1.5749362602e+03 1.5789517094e+03 0.0000000000e+00 0.0000e+00 -1.0000e+00
<rwgt>
<wgt id='SM'> +8.2082340e-06 </wgt>
<wgt id='morphing_basis_vector_1'> +7.4547771e-06 </wgt>
<wgt id='morphing_basis_vector_3'> +8.0699244e-06 </wgt>
<wgt id='morphing_basis_vector_4'> +9.1671076e-06 </wgt>
<wgt id='morphing_basis_vector_5'> +6.6056825e-06 </wgt>
</rwgt>
</event>
<event>
 7      1 +9.9549000e-06 1.35060000e+02 7.81860800e-03 1.39528200e-01
        2 -1    0    0  502    0 +0.0000000000e+00 +0.0000000000e+00 +5.5543549920e+02 5.5543549920e+02 0.0000000000e+00 0.0000e+00 -1.0000e+00
        1 -1    0    0  501    0 -0.0000000000e+00 -0.0000000000e+00 -1.6383412766e+02 1.6383412766e+02 0.0000000000e+00 0.0000e+00 -1.0000e+00
       25  2    1    2    0    0 +2.6738250773e+01 -1.3829622886e+02 +1.3058419618e+02 2.2916629654e+02 1.2499671280e+02 0.0000e+00 0.0000e+00
        2  1    1    2  501    0 +1.6026378913e-01 +1.3424971121e+02 -7.4465899303e+01 1.5351931736e+02 0.0000000000e+00 0.0000e+00 -1.0000e+00
        1  1    1    2  502    0 -2.6898514562e+01 +4.0465176496e+00 +3.3548307466e+02 3.3658401295e+02 0.0000000000e+00 0.0000e+00 -1.0000e+00
       22  1    3    3    0    0 -5.0734858171e+00 -9.2951827379e+01 +6.5432666129e+00 9.3319862888e+01 0.0000000000e+00 0.0000e+00 -1.0000e+00
       22  1    3    3    0    0 +3.1811736590e+01 -4.5344401478e+01 +1.2404092956e+02 1.3584643366e+02 0.0000000000e+00 0.0000e+00 -1.0000e+00
<rwgt>
<wgt id='SM'> +9.3290138e-06 </wgt>
<wgt id='morphing_basis_vector_1'> +8.9510664e-06 </wgt>
<wgt id='morphing_basis_vector_3'> +9.4052661e-06 </wgt>
<wgt id='morphing_basis_vector_4'> +9.5391779e-06 </wgt>
<wgt id='morphing_basis_vector_5'> +8.7657975e-06 </wgt>
</rwgt>
</event>
<event>
 7      1 +9.9549000e-06 1.35982700e+02 7.81860800e-03 1.22429700e-01
        2 -1    0    0  502    0 +0.0000000000e+00 +0.0000000000e+00 +1.6200590252e+03 1.6200590252e+03 0.0000000000e+00 0.0000e+00 -1.0000e+00
        1 -1    0    0  501    0 -0.0000000000e+00 -0.0000000000e+00 -1.4953327388e+03 1.4953327388e+03 0.0000000000e+00 0.0000e+00 -1.0000e+00
       25  2    1    2    0    0 +5.1179075870e+01 -4.0162697329e+01 +3.2147978696e+02 3.5100802989e+02 1.2500017425e+02 0.0000e+00 0.0000e+00
        2  1    1    2  501    0 -6.8140868172e+01 -1.1767802904e+02 -1.4725163526e+03 1.4787818315e+03 0.0000000000e+00 0.0000e+00 -1.0000e+00
        1  1    1    2  502    0 +1.6961792302e+01 +1.5784072637e+02 +1.2757628521e+03 1.2856019026e+03 0.0000000000e+00 0.0000e+00 -1.0000e+00
       22  1    3    3    0    0 -2.7815794036e+01 -5.2732306716e+01 +1.1410800209e+02 1.2874412884e+02 0.0000000000e+00 0.0000e+00 1.0000e+00
       22  1    3    3    0    0 +7.8994869906e+01 +1.2569609387e+01 +2.0737178487e+02 2.2226390106e+02 0.0000000000e+00 0.0000e+00 1.0000e+00
<rwgt>
<wgt id='SM'> +1.0298109e-05 </wgt>
<wgt id='morphing_basis_vector_1'> +1.0115551e-05 </wgt>
<wgt id='morphing_basis_vector_3'> +1.0873276e-05 </wgt>
<wgt id='morphing_basis_vector_4'> +9.6309048e-06 </wgt>
<wgt id='morphing_basis_vector_5'> +1.0870108e-05 </wgt>
</rwgt>
</event>
<event>
 7      1 +9.9549000e-06 1.54329700e+02 7.81860800e-03 1.29442300e-01
        2 -1    0    0  502    0 +0.0000000000e+00 +0.0000000000e+00 +3.8945750691e+03 3.8945750691e+03 0.0000000000e+00 0.0000e+00 -1.0000e+00
        1 -1    0    0  501    0 -0.0000000000e+00 -0.0000000000e+00 -2.0512140566e+03 2.0512140566e+03 0.0000000000e+00 0.0000e+00 -1.0000e+00
       25  2    1    2    0    0 -8.2667529279e+01 -1.0285111178e+02 -1.4616817422e+03 1.4729403323e+03 1.2500974162e+02 0.0000e+00 0.0000e+00
        2  1    1    2  501    0 -5.0789986104e+01 +2.5283151124e+01 -5.8098892493e+02 5.8375250861e+02 0.0000000000e+00 0.0000e+00 -1.0000e+00
        1  1    1    2  502    0 +1.3345751538e+02 +7.7567960660e+01 +3.8860316796e+03 3.8890962848e+03 0.0000000000e+00 0.0000e+00 -1.0000e+00
       22  1    3    3    0    0 +1.0812411247e+01 -2.0597887159e+01 -4.3736548350e+01 4.9538539078e+01 0.0000000000e+00 0.0000e+00 -1.0000e+00
       22  1    3    3    0    0 -9.3479940526e+01 -8.2253224624e+01 -1.4179451939e+03 1.4234017932e+03 0.0000000000e+00 0.0000e+00 -1.0000e+00
<rwgt>
<wgt id='SM'> +1.0472523e-05 </wgt>
<wgt id='morphing_basis_vector_1'> +1.0100011e-05 </wgt>
<wgt id='morphing_basis_vector_3'> +1.1517505e-05 </wgt>
<wgt id='morphing_basis_vector_4'> +9.3401724e-06 </wgt>
<wgt id='morphing_basis_vector_5'> +1.1408646e-05 </wgt>
</rwgt>
</event>
<event>
 7      1 +9.9549000e-06 5.52898900e+01 7.81860800e-03 1.49268800e-01
        2 -1    0    0  502    0 +0.0000000000e+00 +0.0000000000e+00 +6.1905291574e+02 6.1905291574e+02 0.0000000000e+00 0.0000e+00 -1.0000e+00
        1 -1    0    0  501    0 -0.0000000000e+00 -0.0000000000e+00 -1.6192194538e+03 1.6192194538e+03 0.0000000000e+00 0.0000e+00 -1.0000e+00
       25  2    1    2    0    0 -2.5100042265e+01 +5.1523782824e+01 +1.1030853164e+02 1.7629018004e+02 1.2500217242e+02 0.0000e+00 0.0000e+00
        2  1    1    2  501    0 +4.7478848632e+01 -2.8380297221e+01 -1.5852010586e+03 1.5861658421e+03 0.0000000000e+00 0.0000e+00 -1.0000e+00
        1  1    1    2  502    0 -2.2378806367e+01 -2.3143485603e+01 +4.7472598892e+02 4.7581634741e+02 0.0000000000e+00 0.0000e+00 -1.0000e+00
       22  1    3    3    0    0 +7.4863483945e+00 +8.7994099500e+01 +7.6452664070e+01 1.1680760593e+02 0.0000000000e+00 0.0000e+00 -1.0000e+00
       22  1    3    3    0    0 -3.2586390660e+01 -3.6470316676e+01 +3.3855867569e+01 5.9482574117e+01 0.0000000000e+00 0.0000e+00 -1.0000e+00
<rwgt>
<wgt id='SM'> +9.9891740e-06 </wgt>
<wgt id='morphing_basis_vector_1'> +9.9145643e-06 </wgt>
<wgt id='morphing_basis_vector_3'> +1.0132377e-05 </wgt>
<wgt id='morphing_basis_vector_4'> +9.8426385e-06 </wgt>
<wgt id='morphing_basis_vector_5'> +1.0079601e-05 </wgt>
</rwgt>
</event>
<event>
 7      1 +9.9549000e-06 8.03753000e+01 7.81860800e-03 1.47797500e-01
        2 -1    0    0  502    0 +0.0000000000e+00 +0.0000000000e+00 +3.4644738342e+01 3.4644738342e+01 0.0000000000e+00 0.0000e+00 -1.0000e+00
        1 -1    0    0  501    0 -0.0000000000e+00 -0.0000000000e+00 -5.9961264357e+02 5.9961264357e+02 0.0000000000e+00 0.0000e+00 -1.0000e+00
       25  2    1    2    0    0 +7.7022839496e+01 +3.4308026785e+01 -3.8026020343e+02 4.0906443021e+02 1.2500530889e+02 0.0000e+00 0.0000e+00
        2  1    1    2  501    0 -7.8821386325e+01 -9.8213542237e+00 -1.8424305273e+02 2.0063592006e+02 0.0000000000e+00 0.0000e+00 -1.0000e+00
        1  1    1    2  502    0 +1.7985468291e+00 -2.4486672561e+01 -4.6464907237e-01 2.4557031632e+01 0.0000000000e+00 0.0000e+00 -1.0000e+00
       22  1    3    3    0    0 -1.6297763436e+01 +3.9136720070e+01 -4.8604207927e+01 6.4495495805e+01 0.0000000000e+00 0.0000e+00 1.0000e+00
       22  1    3    3    0    0 +9.3320602932e+01 -4.8286932848e+00 -3.3165599550e+02 3.4456893441e+02 0.0000000000e+00 0.0000e+00 1.0000e+00
<rwgt>
<wgt id='SM'> +9.3317990e-06 </wgt>
<wgt id='morphing_basis_vector_1'> +9.1353320e-06 </wgt>
<wgt id='morphing_basis_vector_3'> +9.1324434e-06 </wgt>
<wgt id='morphing_basis_vector_4'> +9.7997616e-06 </wgt>
<wgt id='morphing_basis_vector_5'> +8.6672170e-06 </wgt>
</rwgt>
</event>
<event>
 7      1 +9.9549000e-06 5.06817600e+01 7.81860800e-03 1.47544300e-01
        2 -1    0    0  502    0 +0.0000000000e+00 +0.0000000000e+00 +4.4642232010e+02 4.4642232010e+02 0.0000000000e+00 0.0000e+00 -1.0000e+00
        1 -1    0    0  501    0 -0.0000000000e+00 -0.0000000000e+00 -2.7924825906e+02 2.7924825906e+02 0.0000000000e+00 0.0000e+00 -1.0000e+00
       25  2    1    2    0    0 +7.9440188674e+00 -1.1120445857e+01 +7.4803806257e+01 1.4631312467e+02 1.2500059707e+02 0.0000e+00 0.0000e+00
        2  1    1    2  501    0 +1.2618910103e+01 -3.7581375007e+01 -2.3977567257e+02 2.4303080009e+02 0.0000000000e+00 0.0000e+00 -1.0000e+00
        1  1    1    2  502    0 -2.0562928970e+01 +4.8701820864e+01 +3.3214592735e+02 3.3632665440e+02 0.0000000000e+00 0.0000e+00 -1.0000e+00
       22  1    3    3    0    0 -4.2654692080e+01 -2.3332790567e+01 -7.2350922192e+00 4.9154739664e+01 0.0000000000e+00 0.0000e+00 1.0000e+00
       22  1    3    3    0    0 +5.0598710947e+01 +1.2212344709e+01 +8.2038898477e+01 9.7158385001e+01 0.0000000000e+00 0.0000e+00 1.0000e+00
<rwgt>
<wgt id='SM'> +9.9598120e-06 </wgt>
<wgt id='morphing_basis_vector_1'> +9.9542071e-06 </wgt>
<wgt id='morphing_basis_vector_3'> +9.9724793e-06 </wgt>
<wgt id='morphing_basis_vector_4'> +9.9459607e-06 </wgt>
<wgt id='morphing_basis_vector_5'> +9.9696788e-06 </wgt>
</rwgt>
</event>
<event>
 7      1 +9.9549000e-06 1.17263200e+02 7.81860800e-03 1.42880000e-01
        2 -1    0    0  502    0 +0.0000000000e+00 +0.0000000000e+00 +5.1352453724e+02 5.1352453724e+02 0.0000000000e+00 0.0000e+00 -1.0000e+00
        1 -1    0    0  501    0 -0.0000000000e+00 -0.0000000000e+00 -1.5865938148e+02 1.5865938148e+02 0.0000000000e+00 0.0000e+00 -1.0000e+00
       25  2    1    2    0    0 +6.8337034824e+01 +6.9709254947e+01 +2.8061002925e+01 1.6106129347e+02 1.2499595920e+02 0.0000e+00 0.0000e+00
        2  1    1    2  501    0 +2.2677970854e+01 +8.2652876741e+00 -8.1809179810e+01 8.5295646100e+01 0.0000000000e+00 0.0000e+00 -1.0000e+00
        1  1    1    2  502    0 -9.1015005679e+01 -7.7974542621e+01 +4.0861333264e+02 4.2582697915e+02 0.0000000000e+00 0.0000e+00 -1.0000e+00
       22  1    3    3    0    0 +8.2121157270e+01 +8.0753040386e+01 +5.5954242316e+01 1.2804614495e+02 0.0000000000e+00 0.0000e+00 1.0000e+00
       22  1    3    3    0    0 -1.3784122445e+01 -1.1043785439e+01 -2.7893239392e+01 3.3015148526e+01 0.0000000000e+00 0.0000e+00 1.0000e+00
<rwgt>
<wgt id='SM'> +9.8859800e-06 </wgt>
<wgt id='morphing_basis_vector_1'> +9.7158400e-06 </wgt>
<wgt id='morphing_basis_vector_3'> +1.0091983e-05 </wgt>
<wgt id='morphing_basis_vector_4'> +9.7293856e-06 </wgt>
<wgt id='morphing_basis_vector_5'> +9.9002718e-06 </wgt>
</rwgt>
</event>
<event>
 7      1 +9.9549000e-06 3.92051300e+01 7.81860800e-03 1.52122600e-01
        2 -1    0    0  502    0 +0.0000000000e+00 +0.0000000000e+00 +3.6574833183e+02 3.6574833183e+02 0.0000000000e+00 0.0000e+00 -1.0000e+00
        1 -1    0    0  501    0 -0.0000000000e+00 -0.0000000000e+00 -2.8663951340e+02 2.8663951340e+02 0.0000000000e+00 0.0000e+00 -1.0000e+00
       25  2    1    2    0    0 -1.3536829387e+01 +1.2063293491e+01 -3.2434926072e+01 1.3040578389e+02 1.2499950097e+02 0.0000e+00 0.0000e+00
        2  1    1    2  501    0 +2.7803846996e+01 +2.4993636401e+01 -2.0225477546e+02 2.0568113663e+02 0.0000000000e+00 0.0000e+00 -1.0000e+00
        1  1    1    2  502    0 -1.4267017609e+01 -3.7056929892e+01 +3.1379851996e+02 3.1630092471e+02 0.0000000000e+00 0.0000e+00 -1.0000e+00
       22  1    3    3    0    0 -5.1257874206e+01 -3.6735948028e+01 -6.1563060911e+00 6.3362446688e+01 0.0000000000e+00 0.0000e+00 1.0000e+00
       22  1    3    3    0    0 +3.7721044819e+01 +4.8799241519e+01 -2.6278619981e+01 6.7043337202e+01 0.0000000000e+00 0.0000e+00 1.0000e+00
<rwgt>
<wgt id='SM'> +9.9871037e-06 </wgt>
<wgt id='morphing_basis_vector_1'> +9.9742977e-06 </wgt>
<wgt id='morphing_basis_vector_3'> +1.0033396e-05 </wgt>
<wgt id='morphing_basis_vector_4'> +9.9299912e-06 </wgt>
<wgt id='morphing_basis_vector_5'> +1.0037061e-05 </wgt>
</rwgt>
</event>
<event>
 7      1 +9.9549000e-06 7.30705900e+01 7.81860800e-03 1.35128600e-01
        2 -1    0    0  502    0 +0.0000000000e+00 +0.0000000000e+00 +1.2730928392e+02 1.2730928392e+02 0.0000000000e+00 0.0000e+00 -1.0000e+00
        1 -1    0    0  501    0 -0.0000000000e+00 -0.0000000000e+00 -7.0318068614e+02 7.0318068614e+02 0.0000000000e+00 0.0000e+00 -1.0000e+00
       25  2    1    2    0    0 +4.1605302206e+01 -2.7150474132e-01 -1.9145700652e+02 2.3240584523e+02 1.2500246664e+02 0.0000e+00 0.0000e+00
        2  1    1    2  501    0 -1.5090659973e+01 +7.1495331312e+01 -4.7457392960e+02 4.8016635146e+02 0.0000000000e+00 0.0000e+00 -1.0000e+00
        1  1    1    2  502    0 -2.6514642232e+01 -7.1223826571e+01 +9.0159533895e+01 1.1791777337e+02 0.0000000000e+00 0.0000e+00 -1.0000e+00
       22  1    3    3    0    0 -7.7555532958e-01 +5.3703779138e+01 -1.2851497309e+02 1.3928673909e+02 0.0000000000e+00 0.0000e+00 -1.0000e+00
       22  1    3    3    0    0 +4.2380857535e+01 -5.3975283879e+01 -6.2942033428e+01 9.3119106135e+01 0.0000000000e+00 0.0000e+00 -1.0000e+00
<rwgt>
<wgt id='SM'> +9.7652526e-06 </wgt>
<wgt id='morphing_basis_vector_1'> +9.7724134e-06 </wgt>
<wgt id='morphing_basis_vector_3'> +9.5994290e-06 </wgt>
<wgt id='morphing_basis_vector_4'> +1.0005932e-05 </wgt>
<wgt id='morphing_basis_vector_5'> +9.5167071e-06 </wgt>
</rwgt>
</event>
<event>
 7      1 +9.9549000e-06 4.12492300e+01 7.81860800e-03 1.52172500e-01
        2 -1    0    0  502    0 +0.0000000000e+00 +0.0000000000e+00 +9.3957591411e+02 9.3957591411e+02 0.0000000000e+00 0.0000e+00 -1.0000e+00
        1 -1    0    0  501    0 -0.0000000000e+00 -0.0000000000e+00 -1.2390164954e+02 1.2390164954e+02 0.0000000000e+00 0.0000e+00 -1.0000e+00
       25  2    1    2    0    0 -1.7743919498e+01 -3.9517926794e+01 +2.9098133083e+02 3.1964294958e+02 1.2499986844e+02 0.0000e+00 0.0000e+00
        2  1    1    2  501    0 +3.9715476349e+01 +1.1741846972e+01 -1.0514210502e+02 1.1300465601e+02 0.0000000000e+00 0.0000e+00 -1.0000e+00
        1  1    1    2  502    0 -2.1971556852e+01 +2.7776079823e+01 +6.2983503877e+02 6.3082995805e+02 0.0000000000e+00 0.0000e+00 -1.0000e+00
       22  1    3    3    0    0 -1.7599308864e+00 +1.3356527583e+01 +2.5122486342e+02 2.5158582271e+02 0.0000000000e+00 0.0000e+00 -1.0000e+00
       22  1    3    3    0    0 -1.5983988611e+01 -5.2874454377e+01 +3.9756467404e+01 6.8057126872e+01 0.0000000000e+00 0.0000e+00 -1.0000e+00
<rwgt>
<wgt id='SM'> +9.8471929e-06 </wgt>
<wgt id='morphing_basis_vector_1'> +9.8259875e-06 </wgt>
<wgt id='morphing_basis_vector_3'> +9.7910307e-06 </wgt>
<wgt id='morphing_basis_vector_4'> +9.9479601e-06 </wgt>
<wgt id='morphing_basis_vector_5'> +9.7202269e-06 </wgt>
</rwgt>
</event>
<event>
 7      1 +9.9549000e-06 8.85524000e+01 7.81860800e-03 1.30790100e-01
        2 -1    0    0  502    0 +0.0000000000e+00 +0.0000000000e+00 +8.1378507399e+02 8.1378507399e+02 0.0000000000e+00 0.0000e+00 -1.0000e+00
        1 -1    0    0  501    0 -0.0000000000e+00 -0.0000000000e+00 -5.9834800656e+01 5.9834800656e+01 0.0000000000e+00 0.0000e+00 -1.0000e+00
       25  2    1    2    0    0 -5.4345090375e+01 +8.0674695387e+01 +4.3145686165e+02 4.5961040661e+02 1.2499962830e+02 0.0000e+00 0.0000e+00
        2  1    1    2  501    0 +9.1974683582e+01 -1.8501611877e+00 +1.3586554680e+01 9.2991182295e+01 0.0000000000e+00 0.0000e+00 -1.0000e+00
        1  1    1    2  502    0 -3.7629593207e+01 -7.8824534199e+01 +3.0890685701e+02 3.2101828574e+02 0.0000000000e+00 0.0000e+00 -1.0000e+00
       22  1    3    3    0    0 -8.9463385553e+01 +8.0080476741e+01 +3.6785666160e+02 3.8695620372e+02 0.0000000000e+00 0.0000e+00 1.0000e+00
       22  1    3    3    0    0 +3.5118295178e+01 +5.9421864594e-01 +6.3600200045e+01 7.2654202891e+01 0.0000000000e+00 0.0000e+00 1.0000e+00
<rwgt>
<wgt id='SM'> +1.0461475e-05 </wgt>
<wgt id='morphing_basis_vector_1'> +1.0110766e-05 </wgt>
<wgt id='morphing_basis_vector_3'> +1.1459161e-05 </wgt>
<wgt id='morphing_basis_vector_4'> +9.3711557e-06 </wgt>
<wgt id='morphing_basis_vector_5'> +1.1367565e-05 </wgt>
</rwgt>
</event>
<event>
 7      1 +9.9549000e-06 6.98427700e+01 7.81860800e-03 1.45259700e-01
        2 -1    0    0  502    0 +0.0000000000e+00 +0.0000000000e+00 +1.4259100474e+03 1.4259100474e+03 0.0000000000e+00 0.0000e+00 -1.0000e+00
        1 -1    0    0  501    0 -0.0000000000e+00 -0.0000000000e+00 -6.8890977491e+01 6.8890977491e+01 0.0000000000e+00 0.0000e+00 -1.0000e+00
       25  2    1    2    0    0 -4.6486390852e+01 +4.1369931165e+01 +3.8578197500e+02 4.1027241249e+02 1.2499305771e+02 0.0000e+00 0.0000e+00
        2  1    1    2  501    0 -2.2929239181e+01 -2.5008490416e+01 -5.0207806387e+01 6.0597016630e+01 0.0000000000e+00 0.0000e+00 -1.0000e+00
        1  1    1    2  502    0 +6.9415630033e+01 -1.6361440749e+01 +1.0214449013e+03 1.0239315958e+03 0.0000000000e+00 0.0000e+00 -1.0000e+00
       22  1    3    3    0    0 -8.2096716001e+01 -3.2769744094e+00 +2.4181364061e+02 2.5539077142e+02 0.0000000000e+00 0.0000e+00 1.0000e+00
       22  1    3    3    0    0 +3.5610325148e+01 +4.4646905574e+01 +1.4396833439e+02 1.5488164107e+02 0.0000000000e+00 0.0000e+00 1.0000e+00
<rwgt>
<wgt id='SM'> +9.7650263e-06 </wgt>
<wgt id='morphing_basis_vector_1'> +9.7070134e-06 </wgt>
<wgt id='morphing_basis_vector_3'> +9.6980033e-06 </wgt>
<wgt id='morphing_basis_vector_4'> +9.9130811e-06 </wgt>
<wgt id='morphing_basis_vector_5'> +9.5547608e-06 </wgt>
</rwgt>
</event>
<event>
 7      1 +9.9549000e-06 3.26663800e+01 7.81860800e-03 1.59793200e-01
        2 -1    0    0  502    0 +0.0000000000e+00 +0.0000000000e+00 +1.7458835545e+03 1.7458835545e+03 0.0000000000e+00 0.0000e+00 -1.0000e+00
        1 -1    0    0  501    0 -0.0000000000e+00 -0.0000000000e+00 -5.3434319878e+00 5.3434319878e+00 0.0000000000e+00 0.0000e+00 -1.0000e+00
       25  2    1    2    0    0 -2.9721217101e+01 -1.0295991177e+01 +1.1503105428e+03 1.1575102057e+03 1.2500469257e+02 0.0000e+00 0.0000e+00
        2  1    1    2  501    0 +1.3245592355e+01 +3.2410827061e+01 +2.6170508382e+02 2.6403685032e+02 0.0000000000e+00 0.0000e+00 -1.0000e+00
        1  1    1    2  502    0 +1.6475624746e+01 -2.2114835884e+01 +3.2852449581e+02 3.2967993042e+02 0.0000000000e+00 0.0000e+00 -1.0000e+00
       22  1    3    3    0    0 -3.4206443336e+01 +2.4392576695e+00 +1.1400151714e+03 1.1405308509e+03 0.0000000000e+00 0.0000e+00 1.0000e+00
       22  1    3    3    0    0 +4.4852262348e+00 -1.2735248846e+01 +1.0295371418e+01 1.6979354823e+01 0.0000000000e+00 0.0000e+00 1.0000e+00
<rwgt>
<wgt id='SM'> +1.0246428e-05 </wgt>
<wgt id='morphing_basis_vector_1'> +1.0275566e-05 </wgt>
<wgt id='morphing_basis_vector_3'> +1.0451474e-05 </wgt>
<wgt id='morphing_basis_vector_4'> +9.9361831e-06 </wgt>
<wgt id='morphing_basis_vector_5'> +1.0618713e-05 </wgt>
</rwgt>
</event>
<event>
 7      1 +9.9549000e-06 7.60467200e+01 7.81860800e-03 1.44137800e-01
        2 -1    0    0  502    0 +0.0000000000e+00 +0.0000000000e+00 +1.1103148060e+02 1.1103148060e+02 0.0000000000e+00 0.0000e+00 -1.0000e+00
        1 -1    0    0  501    0 -0.0000000000e+00 -0.0000000000e+00 -1.0068815800e+03 1.0068815800e+03 0.0000000000e+00 0.0000e+00 -1.0000e+00
       25  2    1    2    0    0 -7.5105081993e+01 -6.8707018771e+01 -4.3757004425e+02 4.6631826438e+02 1.2499500911e+02 0.0000e+00 0.0000e+00
        2  1    1    2  501    0 +3.3308861744e+01 +6.0729969673e+00 -5.3966089223e+02 5.4072196198e+02 0.0000000000e+00 0.0000e+00 -1.0000e+00
        1  1    1    2  502    0 +4.1796220249e+01 +6.2634021803e+01 +8.1380837119e+01 1.1087283420e+02 0.0000000000e+00 0.0000e+00 -1.0000e+00
       22  1    3    3    0    0 +2.2381722062e+01 -5.7066150387e+01 -2.0234608810e+02 2.1142711834e+02 0.0000000000e+00 0.0000e+00 -1.0000e+00
       22  1    3    3    0    0 -9.7486804055e+01 -1.1640868384e+01 -2.3522395615e+02 2.5489114604e+02 0.0000000000e+00 0.0000e+00 -1.0000e+00
<rwgt>
<wgt id='SM'> +9.6410644e-06 </wgt>
<wgt id='morphing_basis_vector_1'> +9.4449230e-06 </wgt>
<wgt id='morphing_basis_vector_3'> +9.6858138e-06 </wgt>
<wgt id='morphing_basis_vector_4'> +9.7414579e-06 </wgt>
<wgt id='morphing_basis_vector_5'> +9.3564389e-06 </wgt>
</rwgt>
</event>
<event>
 7      1 +9.9549000e-06 8.18400800e+01 7.81860800e-03 1.33193100e-01
        2 -1    0    0  502    0 +0.0000000000e+00 +0.0000000000e+00 +6.7894958979e+02 6.7894958979e+02 0.0000000000e+00 0.0000e+00 -1.0000e+00
        1 -1    0    0  501    0 -0.0000000000e+00 -0.0000000000e+00 -4.6553957020e+02 4.6553957020e+02 0.0000000000e+00 0.0000e+00 -1.0000e+00
       25  2    1    2    0    0 -3.0952459011e+01 +8.9457390458e+00 -1.6162767596e+02 2.0688242519e+02 1.2505499290e+02 0.0000e+00 0.0000e+00
        2  1    1    2  501    0 +7.7553605493e+01 +5.8330787546e+01 -2.7025270037e+02 2.8714728722e+02 0.0000000000e+00 0.0000e+00 -1.0000e+00
        1  1    1    2  502    0 -4.6601146483e+01 -6.7276526592e+01 +6.4529039592e+02 6.5045944758e+02 0.0000000000e+00 0.0000e+00 -1.0000e+00
       22  1    3    3    0    0 +1.0273585053e+00 +5.7564324163e+01 -1.2630426464e+02 1.3880732743e+02 0.0000000000e+00 0.0000e+00 -1.0000e+00
       22  1    3    3    0    0 -3.1979817516e+01 -4.8618585117e+01 -3.5323411319e+01 6.8075097755e+01 0.0000000000e+00 0.0000e+00 -1.0000e+00
<rwgt>
<wgt id='SM'> +1.0067535e-05 </wgt>
<wgt id='morphing_basis_vector_1'> +1.0004249e-05 </wgt>
<wgt id='morphing_basis_vector_3'> +1.0259561e-05 </wgt>
<wgt id='morphing_basis_vector_4'> +9.8427436e-06 </wgt>
<wgt id='morphing_basis_vector_5'> +1.0255284e-05 </wgt>
</rwgt>
</event>
<event>
 7      1 +9.9549000e-06 1.10443700e+02 7.81860800e-03 1.30920200e-01
        2 -1    0    0  502    0 +0.0000000000e+00 +0.0000000000e+00 +1.1424695306e+03 1.1424695306e+03 0.0000000000e+00 0.0000e+00 -1.0000e+00
        1 -1    0    0  501    0 -0.0000000000e+00 -0.0000000000e+00 -2.5664821492e+02 2.5664821492e+02 0.0000000000e+00 0.0000e+00 -1.0000e+00
       25  2    1    2    0    0 +4.5985160300e+01 +2.2526602074e+01 -1.3565856870e+02 1.9143585361e+02 1.2498942363e+02 0.0000e+00 0.0000e+00
        2  1    1    2  501    0 +2.2690334495e+01 +6.5383735907e+01 -7.7011532634e+01 1.0354062178e+02 0.0000000000e+00 0.0000e+00 -1.0000e+00
        1  1    1    2  502    0 -6.8675494795e+01 -8.7910337981e+01 +1.0984914170e+03 1.1041412701e+03 0.0000000000e+00 0.0000e+00 -1.0000e+00
       22  1    3    3    0    0 +6.8958149174e+01 +5.9780391263e+01 -8.9453091261e+01 1.2779192875e+02 0.0000000000e+00 0.0000e+00 1.0000e+00
       22  1    3    3    0    0 -2.2972988875e+01 -3.7253789190e+01 -4.6205477441e+01 6.3643924866e+01 0.0000000000e+00 0.0000e+00 1.0000e+00
<rwgt>
<wgt id='SM'> +9.7851049e-06 </wgt>
<wgt id='morphing_basis_vector_1'> +9.8603343e-06 </wgt>
<wgt id='morphing_basis_vector_3'> +9.5364743e-06 </wgt>
<wgt id='morphing_basis_vector_4'> +1.0099144e-05 </wgt>
<wgt id='morphing_basis_vector_5'> +9.5293047e-06 </wgt>
</rwgt>
</event>
<event>
 7      1 +9.9549000e-06 5.07509400e+01 7.81860800e-03 1.45559000e-01
        2 -1    0    0  502    0 +0.0000000000e+00 +0.0000000000e+00 +1.5214293113e+03 1.5214293113e+03 0.0000000000e+00 0.0000e+00 -1.0000e+00
        1 -1    0    0  501    0 -0.0000000000e+00 -0.0000000000e+00 -6.8201486872e+01 6.8201486872e+01 0.0000000000e+00 0.0000e+00 -1.0000e+00
       25  2    1    2    0    0 +9.2838267822e+01 +4.0887183902e+00 +4.2257167404e+02 4.5036430855e+02 1.2500211646e+02 0.0000e+00 0.0000e+00
        2  1    1    2  501    0 -4.4258871848e+01 -1.1305617095e+01 -4.4037927459e+01 6.3450798025e+01 0.0000000000e+00 0.0000e+00 -1.0000e+00
        1  1    1    2  502    0 -4.8579395974e+01 +7.2168987046e+00 +1.0746940779e+03 1.0758156916e+03 0.0000000000e+00 0.0000e+00 -1.0000e+00
       22  1    3    3    0    0 +5.7175688963e+01 -7.5801677254e+00 +4.0472384627e+02 4.0881280568e+02 0.0000000000e+00 0.0000e+00 1.0000e+00
       22  1    3    3    0    0 +3.5662578860e+01 +1.1668886116e+01 +1.7847827775e+01 4.1551502866e+01 0.0000000000e+00 0.0000e+00 1.0000e+00
<rwgt>
<wgt id='SM'> +9.8401898e-06 </wgt>
<wgt id='morphing_basis_vector_1'> +9.6419864e-06 </wgt>
<wgt id='morphing_basis_vector_3'> +1.0051672e-05 </wgt>
<wgt id='morphing_basis_vector_4'> +9.6986731e-06 </wgt>
<wgt id='morphing_basis_vector_5'> +9.8120038e-06 </wgt>
</rwgt>
</event>
<event>
 7      1 +9.9549000e-06 6.62572700e+01 7.81860800e-03 1.39773800e-01
        2 -1    0    0  502    0 +0.0000000000e+00 +0.0000000000e+00 +2.2249804125e+03 2.2249804125e+03 0.0000000000e+00 0.0000e+00 -1.0000e+00
        1 -1    0    0  501    0 -0.0000000000e+00 -0.0000000000e+00 -8.5823301286e+02 8.5823301286e+02 0.0000000000e+00 0.0000e+00 -1.0000e+00
       25  2    1    2    0    0 +2.3408244039e+01 +3.5207951723e+01 -4.0292470193e+02 4.2398216012e+02 1.2500004367e+02 0.0000e+00 0.0000e+00
        2  1    1    2  501    0 -7.4899682386e+01 -1.7737951124e+01 -4.4111271799e+02 4.4777787719e+02 0.0000000000e+00 0.0000e+00 -1.0000e+00
        1  1    1    2  502    0 +5.1491438347e+01 -1.7470000599e+01 +2.2107848195e+03 2.2114533880e+03 0.0000000000e+00 0.0000e+00 -1.0000e+00
       22  1    3    3    0    0 +1.9948593991e+01 -4.4119165507e+01 -2.0682082899e+02 2.1241304685e+02 0.0000000000e+00 0.0000e+00 1.0000e+00
       22  1    3    3    0    0 +3.4596500483e+00 +7.9327117230e+01 -1.9610387294e+02 2.1156911327e+02 0.0000000000e+00 0.0000e+00 1.0000e+00
<rwgt>
<wgt id='SM'> +9.7660310e-06 </wgt>
<wgt id='morphing_basis_vector_1'> +9.7313767e-06 </wgt>
<wgt id='morphing_basis_vector_3'> +9.6643909e-06 </wgt>
<wgt id='morphing_basis_vector_4'> +9.9461247e-06 </wgt>
<wgt id='morphing_basis_vector_5'> +9.5435412e-06 </wgt>
</rwgt>
</event>
<event>
 7      1 +9.9549000e-06 5.46512400e+01 7.81860800e-03 1.45146500e-01
        2 -1    0    0  502    0 +0.0000000000e+00 +0.0000000000e+00 +1.1749480747e+02 1.1749480747e+02 0.0000000000e+00 0.0000e+00 -1.0000e+00
        1 -1    0    0  501    0 -0.0000000000e+00 -0.0000000000e+00 -8.1611166852e+02 8.1611166852e+02 0.0000000000e+00 0.0000e+00 -1.0000e+00
       25  2    1    2    0    0 +4.0615407064e+01 -1.2076597065e+01 -1.0382885989e+02 1.6792483861e+02 1.2499145486e+02 0.0000e+00 0.0000e+00
        2  1    1    2  501    0 -1.8151923558e+01 -3.9776171982e+01 -6.7010083478e+02 6.7152569940e+02 0.0000000000e+00 0.0000e+00 -1.0000e+00
        1  1    1    2  502    0 -2.2463483506e+01 +5.1852769047e+01 +7.5312833618e+01 9.4155937979e+01 0.0000000000e+00 0.0000e+00 -1.0000e+00
       22  1    3    3    0    0 -2.6134772698e+01 +3.7115004187e+01 -1.8720092059e+01 4.9101850540e+01 0.0000000000e+00 0.0000e+00 -1.0000e+00
       22  1    3    3    0    0 +6.6750179762e+01 -4.9191601251e+01 -8.5108767829e+01 1.1882298807e+02 0.0000000000e+00 0.0000e+00 -1.0000e+00
<rwgt>
<wgt id='SM'> +1.0024567e-05 </wgt>
<wgt id='morphing_basis_vector_1'> +9.9661881e-06 </wgt>
<wgt id='morphing_basis_vector_3'> +1.0172255e-05 </wgt>
<wgt id='morphing_basis_vector_4'> +9.8580839e-06 </wgt>
<wgt id='morphing_basis_vector_5'> +1.0151663e-05 </wgt>
</rwgt>
</event>
<event>
 7      1 +9.9549000e-06 1.24414200e+02 7.81860800e-03 1.34214400e-01
        2 -1    0    0  502    0 +0.0000000000e+00 +0.0000000000e+00 +1.4287096450e+02 1.4287096450e+02 0.0000000000e+00 0.0000e+00 -1.0000e+00
        1 -1    0    0  501    0 -0.0000000000e+00 -0.0000000000e+00 -1.3270425490e+03 1.3270425490e+03 0.0000000000e+00 0.0000e+00 -1.0000e+00
       25  2    1    2    0    0 +1.4500706044e+02 -1.4739297150e+01 -3.7737878891e+01 1.9568880949e+02 1.2500267276e+02 0.0000e+00 0.0000e+00
        2  1    1    2  501    0 -1.2134148580e+02 -2.4577997536e+01 -1.1984678209e+03 1.2048456133e+03 0.0000000000e+00 0.0000e+00 -1.0000e+00
        1  1    1    2  502    0 -2.3665574643e+01 +3.9317294685e+01 +5.2034115257e+01 6.9379090763e+01 0.0000000000e+00 0.0000e+00 -1.0000e+00
       22  1    3    3    0    0 +4.8902273270e+01 -6.3548197298e+01 +3.5458737314e+00 8.0264431296e+01 0.0000000000e+00 0.0000e+00 -1.0000e+00
       22  1    3    3    0    0 +9.6104787169e+01 +4.8808900148e+01 -4.1283752623e+01 1.1542437819e+02 0.0000000000e+00 0.0000e+00 -1.0000e+00
<rwgt>
<wgt id='SM'> +9.9579059e-06 </wgt>
<wgt id='morphing_basis_vector_1'> +9.4230211e-06 </wgt>
<wgt id='morphing_basis_vector_3'> +1.0808796e-05 </wgt>
<wgt id='morphing_basis_vector_4'> +9.2028408e-06 </wgt>
<wgt id='morphing_basis_vector_5'> +1.0296143e-05 </wgt>
</rwgt>
</event>
<event>
 7      1 +9.9549000e-06 1.88025700e+02 7.81860800e-03 1.28395300e-01
        2 -1    0    0  502    0 +0.0000000000e+00 +0.0000000000e+00 +9.1597234427e+02 9.1597234427e+02 0.0000000000e+00 0.0000e+00 -1.0000e+00
        1 -1    0    0  501    0 -0.0000000000e+00 -0.0000000000e+00 -8.7621887657e+01 8.7621887657e+01 0.0000000000e+00 0.0000e+00 -1.0000e+00
       25  2    1    2    0    0 +1.6111606033e+02 -3.9505822952e+01 +2.9450374675e+02 3.6038964603e+02 1.2501657960e+02 0.0000e+00 0.0000e+00
        2  1    1    2  501    0 -1.8325219592e+02 +8.5863388662e+01 +1.4013094020e+02 2.4615151680e+02 0.0000000000e+00 0.0000e+00 -1.0000e+00
        1  1    1    2  502    0 +2.2136135583e+01 -4.6357565710e+01 +3.9371576966e+02 3.9705306909e+02 0.0000000000e+00 0.0000e+00 -1.0000e+00
       22  1    3    3    0    0 +9.5075396445e+00 -4.1047565120e+01 +1.9649221537e+01 4.6490728317e+01 0.0000000000e+00 0.0000e+00 -1.0000e+00
       22  1    3    3    0    0 +1.5160852069e+02 +1.5417421685e+00 +2.7485452521e+02 3.1389891772e+02 0.0000000000e+00 0.0000e+00 -1.0000e+00
<rwgt>
<wgt id='SM'> +8.9649720e-06 </wgt>
<wgt id='morphing_basis_vector_1'> +8.5725783e-06 </wgt>
<wgt id='morphing_basis_vector_3'> +8.7862454e-06 </wgt>
<wgt id='morphing_basis_vector_4'> +9.5824576e-06 </wgt>
<wgt id='morphing_basis_vector_5'> +7.9982395e-06 </wgt>
</rwgt>
</event>
<event>
 7      1 +9.9549000e-06 1.10824400e+02 7.81860800e-03 1.32796800e-01
        2 -1    0    0  502    0 +0.0000000000e+00 +0.0000000000e+00 +1.0771424540e+03 1.0771424540e+03 0.0000000000e+00 0.0000e+00 -1.0000e+00
        1 -1    0    0  501    0 -0.0000000000e+00 -0.0000000000e+00 -8.6020980997e+02 8.6020980997e+02 0.0000000000e+00 0.0000e+00 -1.0000e+00
       25  2    1    2    0    0 +4.9244320599e+01 +2.2233794634e+01 -8.0235194632e+01 1.5805530076e+02 1.2499778760e+02 0.0000e+00 0.0000e+00
        2  1    1    2  501    0 +5.1447901060e+01 +2.7429574099e+01 -7.3687442227e+02 7.3917736860e+02 0.0000000000e+00 0.0000e+00 -1.0000e+00
        1  1    1    2  502    0 -1.0069222166e+02 -4.9663368733e+01 +1.0340422609e+03 1.0401195946e+03 0.0000000000e+00 0.0000e+00 -1.0000e+00
       22  1    3    3    0    0 +8.5183784064e+01 +3.4727041382e+01 -7.6829574666e+01 1.1985419481e+02 0.0000000000e+00 0.0000e+00 1.0000e+00
       22  1    3    3    0    0 -3.5939463465e+01 -1.2493246747e+01 -3.4056199656e+00 3.8201105949e+01 0.0000000000e+00 0.0000e+00 1.0000e+00
<rwgt>
<wgt id='SM'> +9.9091014e-06 </wgt>
<wgt id='morphing_basis_vector_1'> +9.8695622e-06 </wgt>
<wgt id='morphing_basis_vector_3'> +9.9319230e-06 </wgt>
<wgt id='morphing_basis_vector_4'> +9.9088611e-06 </wgt>
<wgt id='morphing_basis_vector_5'> +9.8734995e-06 </wgt>
</rwgt>
</event>
<event>
 7      1 +9.9549000e-06 1.97196900e+02 7.81860800e-03 1.21531000e-01
        2 -1    0    0  502    0 +0.0000000000e+00 +0.0000000000e+00 +1.3328573061e+03 1.3328573061e+03 0.0000000000e+00 0.0000e+00 -1.0000e+00
        1 -1    0    0  501    0 -0.0000000000e+00 -0.0000000000e+00 -5.0707211596e+02 5.0707211596e+02 0.0000000000e+00 0.0000e+00 -1.0000e+00
       25  2    1    2    0    0 +1.5157587225e+02 +1.9829550958e+02 -5.5619449497e+00 2.7919523506e+02 1.2499075918e+02 0.0000e+00 0.0000e+00
        2  1    1    2  501    0 -1.6064669308e+02 -1.0139141815e+02 -3.3779524127e+02 3.8754768055e+02 0.0000000000e+00 0.0000e+00 -1.0000e+00
        1  1    1    2  502    0 +9.0708208323e+00 -9.6904091426e+01 +1.1691423763e+03 1.1731865064e+03 0.0000000000e+00 0.0000e+00 -1.0000e+00
       22  1    3    3    0    0 +1.8381528834e+01 -1.3449020390e+01 -1.7552758133e+01 2.8755105108e+01 0.0000000000e+00 0.0000e+00 -1.0000e+00
       22  1    3    3    0    0 +1.3319434342e+02 +2.1174452997e+02 +1.1990813183e+01 2.5044012995e+02 0.0000000000e+00 0.0000e+00 -1.0000e+00
<rwgt>
<wgt id='SM'> +8.1817594e-06 </wgt>
<wgt id='morphing_basis_vector_1'> +7.2722738e-06 </wgt>
<wgt id='morphing_basis_vector_3'> +8.2238297e-06 </wgt>
<wgt id='morphing_basis_vector_4'> +8.9252717e-06 </wgt>
<wgt id='morphing_basis_vector_5'> +6.6302320e-06 </wgt>
</rwgt>
</event>
<event>
 7      1 +9.9549000e-06 2.78767700e+01 7.81860800e-03 1.64303000e-01
        2 -1    0    0  502    0 +0.0000000000e+00 +0.0000000000e+00 +2.4240394098e+02 2.4240394098e+02 0.0000000000e+00 0.0000e+00 -1.0000e+00
        1 -1    0    0  501    0 -0.0000000000e+00 -0.0000000000e+00 -3.7515946651e+02 3.7515946651e+02 0.0000000000e+00 0.0000e+00 -1.0000e+00
       25  2    1    2    0    0 -7.0820704398e+00 +1.0313496207e+01 +7.6158647195e+01 1.4691172287e+02 1.2500556327e+02 0.0000e+00 0.0000e+00
        2  1    1    2  501    0 +1.9007318103e+01 +1.5943077549e+01 -3.3773376754e+02 3.3864370303e+02 0.0000000000e+00 0.0000e+00 -1.0000e+00
        1  1    1    2  502    0 -1.1925247663e+01 -2.6256573756e+01 +1.2881959481e+02 1.3200798160e+02 0.0000000000e+00 0.0000e+00 -1.0000e+00
       22  1    3    3    0    0 +1.0996384267e+01 -3.3030242394e+01 +9.1184257190e+01 9.7603719903e+01 0.0000000000e+00 0.0000e+00 -1.0000e+00
       22  1    3    3    0    0 -1.8078454707e+01 +4.3343738601e+01 -1.5025609996e+01 4.9308002964e+01 0.0000000000e+00 0.0000e+00 -1.0000e+00
<rwgt>
<wgt id='SM'> +9.9708733e-06 </wgt>
<wgt id='morphing_basis_vector_1'> +9.9626528e-06 </wgt>
<wgt id='morphing_basis_vector_3'> +9.9966815e-06 </wgt>
<wgt id='morphing_basis_vector_4'> +9.9399039e-06 </wgt>
<wgt id='morphing_basis_vector_5'> +9.9967687e-06 </wgt>
</rwgt>
</event>
<event>
 7      1 +9.9549000e-06 6.19060200e+01 7.81860800e-03 1.41275500e-01
        2 -1    0    0  502    0 +0.0000000000e+00 +0.0000000000e+00 +7.3072592413e+02 7.3072592413e+02 0.0000000000e+00 0.0000e+00 -1.0000e+00
        1 -1    0    0  501    0 -0.0000000000e+00 -0.0000000000e+00 -4.3643419331e+02 4.3643419331e+02 0.0000000000e+00 0.0000e+00 -1.0000e+00
       25  2    1    2    0    0 -9.5475862239e+00 -4.1818318950e+01 +1.8964806889e+01 1.3350863081e+02 1.2499984959e+02 0.0000e+00 0.0000e+00
        2  1    1    2  501    0 -4.8561888593e+01 +1.7792564764e+01 -3.7587714728e+02 3.7941858446e+02 0.0000000000e+00 0.0000e+00 -1.0000e+00
        1  1    1    2  502    0 +5.8109474817e+01 +2.4025754187e+01 +6.5120407121e+02 6.5423290218e+02 0.0000000000e+00 0.0000e+00 -1.0000e+00
       22  1    3    3    0    0 -2.1860762414e+01 +3.4837342256e+01 -2.1009480257e+01 4.6183672542e+01 0.0000000000e+00 0.0000e+00 -1.0000e+00
       22  1    3    3    0    0 +1.2313176190e+01 -7.6655661207e+01 +3.9974287146e+01 8.7324958264e+01 0.0000000000e+00 0.0000e+00 -1.0000e+00
<rwgt>
<wgt id='SM'> +1.0031390e-05 </wgt>
<wgt id='morphing_basis_vector_1'> +9.9765168e-06 </wgt>
<wgt id='morphing_basis_vector_3'> +1.0179312e-05 </wgt>
<wgt id='morphing_basis_vector_4'> +9.8615627e-06 </wgt>
<wgt id='morphing_basis_vector_5'> +1.0165325e-05 </wgt>
</rwgt>
</event>
<event>
 7      1 +9.9549000e-06 1.09617600e+02 7.81860800e-03 1.33099400e-01
        2 -1    0    0  502    0 +0.0000000000e+00 +0.0000000000e+00 +4.3954184846e+02 4.3954184846e+02 0.0000000000e+00 0.0000e+00 -1.0000e+00
        1 -1    0    0  501    0 -0.0000000000e+00 -0.0000000000e+00 -6.7356226390e+02 6.7356226390e+02 0.0000000000e+00 0.0000e+00 -1.0000e+00
       25  2    1    2    0    0 -1.1757990850e+02 -4.5963476530e+00 +2.8281196640e+01 1.7398120166e+02 1.2499388447e+02 0.0000e+00 0.0000e+00
        2  1    1    2  501    0 +1.9095744725e+01 +5.4125893010e+01 -5.9030583197e+02 5.9308956745e+02 0.0000000000e+00 0.0000e+00 -1.0000e+00
        1  1    1    2  502    0 +9.8484163771e+01 -4.9529545357e+01 +3.2800421989e+02 3.4603334325e+02 0.0000000000e+00 0.0000e+00 -1.0000e+00
       22  1    3    3    0    0 -1.2273560382e+02 +2.7756508720e+01 +4.9199659511e+01 1.3511128272e+02 0.0000000000e+00 0.0000e+00 1.0000e+00
       22  1    3    3    0    0 +5.1556953277e+00 -3.2352856373e+01 -2.0918462871e+01 3.8869918944e+01 0.0000000000e+00 0.0000e+00 1.0000e+00
<rwgt>
<wgt id='SM'> +1.0032424e-05 </wgt>
<wgt id='morphing_basis_vector_1'> +9.6829940e-06 </wgt>
<wgt id='morphing_basis_vector_3'> +1.0645148e-05 </wgt>
<wgt id='morphing_basis_vector_4'> +9.4495639e-06 </wgt>
<wgt id='morphing_basis_vector_5'> +1.0350633e-05 </wgt>
</rwgt>
</event>
<event>
 7      1 +9.9549000e-06 5.68508400e+01 7.81860800e-03 1.42097000e-01
        2 -1    0    0  502    0 +0.0000000000e+00 +0.0000000000e+00 +6.7599434088e+02 6.7599434088e+02 0.0000000000e+00 0.0000e+00 -1.0000e+00
        1 -1    0    0  501    0 -0.0000000000e+00 -0.0000000000e+00 -1.7274841816e+02 1.7274841816e+02 0.0000000000e+00 0.0000e+00 -1.0000e+00
       25  2    1    2    0    0 +7.6206564585e+01 -4.9663802247e+01 +1.9486659870e+02 2.4874301657e+02 1.2500465296e+02 0.0000e+00 0.0000e+00
        2  1    1    2  501    0 -2.0732643971e+01 +4.8618282346e+01 -1.3925077370e+02 1.4894414349e+02 0.0000000000e+00 0.0000e+00 -1.0000e+00
        1  1    1    2  502    0 -5.5473920614e+01 +1.0455199014e+00 +4.4763009773e+02 4.5105559898e+02 0.0000000000e+00 0.0000e+00 -1.0000e+00
       22  1    3    3    0    0 +2.3982567217e+01 -4.5227032485e+00 +1.7530464298e+02 1.7699530001e+02 0.0000000000e+00 0.0000e+00 1.0000e+00
       22  1    3    3    0    0 +5.2223997368e+01 -4.5141098999e+01 +1.9561955724e+01 7.1747716561e+01 0.0000000000e+00 0.0000e+00 1.0000e+00
<rwgt>
<wgt id='SM'> +9.6472353e-06 </wgt>
<wgt id='morphing_basis_vector_1'> +9.5039981e-06 </wgt>
<wgt id='morphing_basis_vector_3'> +9.6152199e-06 </wgt>
<wgt id='morphing_basis_vector_4'> +9.8159118e-06 </wgt>
<wgt id='morphing_basis_vector_5'> +9.3384390e-06 </wgt>
</rwgt>
</event>
<event>
 7      1 +9.9549000e-06 1.12588400e+02 7.81860800e-03 1.32915800e-01
        2 -1    0    0  502    0 +0.0000000000e+00 +0.0000000000e+00 +4.8838395256e+02 4.8838395256e+02 0.0000000000e+00 0.0000e+00 -1.0000e+00
        1 -1    0    0  501    0 -0.0000000000e+00 -0.0000000000e+00 -5.4872258936e+02 5.4872258936e+02 0.0000000000e+00 0.0000e+00 -1.0000e+00
       25  2    1    2    0    0 +2.9682583675e+01 -1.4209473639e+02 +7.3005685780e+01 2.0500386465e+02 1.2499913793e+02 0.0000e+00 0.0000e+00
        2  1    1    2  501    0 -5.9912400718e+01 +9.4017988495e+01 -4.7390378944e+02 4.8684050732e+02 0.0000000000e+00 0.0000e+00 -1.0000e+00
        1  1    1    2  502    0 +3.0229817044e+01 +4.8076747892e+01 +3.4055946687e+02 3.4526216995e+02 0.0000000000e+00 0.0000e+00 -1.0000e+00
       22  1    3    3    0    0 +5.7150079298e+01 -1.3607959603e+01 +3.4315863091e+01 6.8035921307e+01 0.0000000000e+00 0.0000e+00 1.0000e+00
       22  1    3    3    0    0 -2.7467495623e+01 -1.2848677678e+02 +3.8689822689e+01 1.3696794334e+02 0.0000000000e+00 0.0000e+00 1.0000e+00
<rwgt>
<wgt id='SM'> +9.9057120e-06 </wgt>
<wgt id='morphing_basis_vector_1'> +9.4326082e-06 </wgt>
<wgt id='morphing_basis_vector_3'> +1.0610116e-05 </wgt>
<wgt id='morphing_basis_vector_4'> +9.2993072e-06 </wgt>
<wgt id='morphing_basis_vector_5'> +1.0134269e-05 </wgt>
</rwgt>
</event>
<event>
 7      1 +9.9549000e-06 7.04611700e+01 7.81860800e-03 1.51341900e-01
        2 -1    0    0  502    0 +0.0000000000e+00 +0.0000000000e+00 +9.7505456728e+02 9.7505456728e+02 0.0000000000e+00 0.0000e+00 -1.0000e+00
        1 -1    0    0  501    0 -0.0000000000e+00 -0.0000000000e+00 -5.6993053685e+02 5.6993053685e+02 0.0000000000e+00 0.0000e+00 -1.0000e+00
       25  2    1    2    0    0 +5.0627437370e+01 +1.7041867864e+01 -2.8390036692e+02 3.1476619045e+02 1.2499909455e+02 0.0000e+00 0.0000e+00
        2  1    1    2  501    0 +1.9552026284e+01 -9.9117010217e+00 -2.6885422676e+02 2.6974639719e+02 0.0000000000e+00 0.0000e+00 -1.0000e+00
        1  1    1    2  502    0 -7.0179463654e+01 -7.1301668420e+00 +9.5787862412e+02 9.6047251649e+02 0.0000000000e+00 0.0000e+00 -1.0000e+00
       22  1    3    3    0    0 +3.1880186999e+01 +6.5819021974e+01 -2.2211864602e+02 2.3384863242e+02 0.0000000000e+00 0.0000e+00 1.0000e+00
       22  1    3    3    0    0 +1.8747250370e+01 -4.8777154110e+01 -6.1781720900e+01 8.0917558026e+01 0.0000000000e+00 0.0000e+00 1.0000e+00
<rwgt>
<wgt id='SM'> +9.9816733e-06 </wgt>
<wgt id='morphing_basis_vector_1'> +9.9383206e-06 </wgt>
<wgt id='morphing_basis_vector_3'> +1.0070475e-05 </wgt>
<wgt id='morphing_basis_vector_4'> +9.8881950e-06 </wgt>
<wgt id='morphing_basis_vector_5'> +1.0043180e-05 </wgt>
</rwgt>
</event>
<event>
 7      1 +9.9549000e-06 1.06390200e+02 7.81860800e-03 1.27150600e-01
        2 -1    0    0  502    0 +0.0000000000e+00 +0.0000000000e+00 +6.0364073548e+01 6.0364073548e+01 0.0000000000e+00 0.0000e+00 -1.0000e+00
        1 -1    0    0  501    0 -0.0000000000e+00 -0.0000000000e+00 -1.9181708639e+03 1.9181708639e+03 0.0000000000e+00 0.0000e+00 -1.0000e+00
       25  2    1    2    0    0 -9.6933304180e+01 -9.8197742366e+01 -2.5525025713e+02 3.1592528012e+02 1.2496890329e+02 0.0000e+00 0.0000e+00
        2  1    1    2  501    0 +1.0192775175e+02 -8.1145300337e+00 -1.5308881995e+03 1.5342991207e+03 0.0000000000e+00 0.0000e+00 -1.0000e+00
        1  1    1    2  502    0 -4.9944475747e+00 +1.0631227240e+02 -7.1668333710e+01 1.2831053669e+02 0.0000000000e+00 0.0000e+00 -1.0000e+00
       22  1    3    3    0    0 -2.9941981615e+01 -1.4939129340e+01 -1.8508509826e+02 1.8808560138e+02 0.0000000000e+00 0.0000e+00 1.0000e+00
       22  1    3    3    0    0 -6.6991322565e+01 -8.3258613026e+01 -7.0165158873e+01 1.2783967874e+02 0.0000000000e+00 0.0000e+00 1.0000e+00
<rwgt>
<wgt id='SM'> +8.8293905e-06 </wgt>
<wgt id='morphing_basis_vector_1'> +8.5594264e-06 </wgt>
<wgt id='morphing_basis_vector_3'> +8.3550901e-06 </wgt>
<wgt id='morphing_basis_vector_4'> +9.7917246e-06 </wgt>
<wgt id='morphing_basis_vector_5'> +7.6185183e-06 </wgt>
</rwgt>
</event>
<event>
 7      1 +9.9549000e-06 5.40793700e+01 7.81860800e-03 1.43676600e-01
        2 -1    0    0  502    0 +0.0000000000e+00 +0.0000000000e+00 +9.9506172097e+01 9.9506172097e+01 0.0000000000e+00 0.0000e+00 -1.0000e+00
        1 -1    0    0  501    0 -0.0000000000e+00 -0.0000000000e+00 -5.2526886996e+02 5.2526886996e+02 0.0000000000e+00 0.0000e+00 -1.0000e+00
       25  2    1    2    0    0 +5.0672531538e+00 +3.4565604109e+01 -3.4082731810e+02 3.6470333196e+02 1.2499920614e+02 0.0000e+00 0.0000e+00
        2  1    1    2  501    0 +4.6675622357e+01 -1.5817394231e+01 -1.5975911145e+02 1.6718785056e+02 0.0000000000e+00 0.0000e+00 -1.0000e+00
        1  1    1    2  502    0 -5.1742875511e+01 -1.8748209878e+01 +7.4823731687e+01 9.2883859541e+01 0.0000000000e+00 0.0000e+00 -1.0000e+00
       22  1    3    3    0    0 +3.3756276203e+01 +4.7644965229e+01 -3.2349706099e+02 3.2872462239e+02 0.0000000000e+00 0.0000e+00 1.0000e+00
       22  1    3    3    0    0 -2.8689023049e+01 -1.3079361120e+01 -1.7330257110e+01 3.5978709570e+01 0.0000000000e+00 0.0000e+00 1.0000e+00
<rwgt>
<wgt id='SM'> +1.0098768e-05 </wgt>
<wgt id='morphing_basis_vector_1'> +1.0045479e-05 </wgt>
<wgt id='morphing_basis_vector_3'> +1.0302005e-05 </wgt>
<wgt id='morphing_basis_vector_4'> +9.8503586e-06 </wgt>
<wgt id='morphing_basis_vector_5'> +1.0321681e-05 </wgt>
</rwgt>
</event>
<event>
 7      1 +9.9549000e-06 1.15640500e+02 7.81860800e-03 1.40899700e-01
        2 -1    0    0  502    0 +0.0000000000e+00 +0.0000000000e+00 +1.9801514352e+02 1.9801514352e+02 0.0000000000e+00 0.0000e+00 -1.0000e+00
        1 -1    0    0  501    0 -0.0000000000e+00 -0.0000000000e+00 -4.8115844652e+02 4.8115844652e+02 0.0000000000e+00 0.0000e+00 -1.0000e+00
       25  2    1    2    0    0 +8.7901652317e+01 -4.3482375915e+01 +2.6157225604e+01 1.6101678039e+02 1.2499914248e+02 0.0000e+00 0.0000e+00
        2  1    1    2  501    0 -9.3057954835e+01 +7.1521680180e+01 -4.0324683685e+02 4.1997993419e+02 0.0000000000e+00 0.0000e+00 -1.0000e+00
        1  1    1    2  502    0 +5.1563025180e+00 -2.8039304265e+01 +9.3946308253e+01 9.8176875453e+01 0.0000000000e+00 0.0000e+00 -1.0000e+00
       22  1    3    3    0    0 +2.1272975175e+01 -4.9493036059e+01 -3.9870984985e+01 6.7020858953e+01 0.0000000000e+00 0.0000e+00 1.0000e+00
       22  1    3    3    0    0 +6.6628677142e+01 +6.0106601435e+00 +6.6028210589e+01 9.3995921436e+01 0.0000000000e+00 0.0000e+00 1.0000e+00
<rwgt>
<wgt id='SM'> +9.6755364e-06 </wgt>
<wgt id='morphing_basis_vector_1'> +9.5629641e-06 </wgt>
<wgt id='morphing_basis_vector_3'> +9.6195834e-06 </wgt>
<wgt id='morphing_basis_vector_4'> +9.8537794e-06 </wgt>
<wgt id='morphing_basis_vector_5'> +9.3848836e-06 </wgt>
</rwgt>
</event>
<event>
 7      1 +9.9549000e-06 1.01455300e+02 7.81860800e-03 1.41120400e-01
        2 -1    0    0  502    0 +0.0000000000e+00 +0.0000000000e+00 +9.0533946570e+02 9.0533946570e+02 0.0000000000e+00 0.0000e+00 -1.0000e+00
        1 -1    0    0  501    0 -0.0000000000e+00 -0.0000000000e+00 -1.2295224110e+03 1.2295224110e+03 0.0000000000e+00 0.0000e+00 -1.0000e+00
       25  2    1    2    0    0 +3.9838645080e+01 +1.0775474534e+02 -4.8258374940e+02 5.1157692535e+02 1.2500269028e+02 0.0000e+00 0.0000e+00
        2  1    1    2  501    0 -9.2286623701e+00 -9.8630963225e+01 -7.2880388008e+02 7.3550549334e+02 0.0000000000e+00 0.0000e+00 -1.0000e+00
        1  1    1    2  502    0 -3.0609982709e+01 -9.1237821107e+00 +8.8720468418e+02 8.8777945801e+02 0.0000000000e+00 0.0000e+00 -1.0000e+00
       22  1    3    3    0    0 -1.9541003387e+01 +6.8838339766e+00 -7.1047956268e+00 2.1902422343e+01 0.0000000000e+00 0.0000e+00 1.0000e+00
       22  1    3    3    0    0 +5.9379648466e+01 +1.0087091136e+02 -4.7547895377e+02 4.8967450300e+02 0.0000000000e+00 0.0000e+00 1.0000e+00
<rwgt>
<wgt id='SM'> +9.8299328e-06 </wgt>
<wgt id='morphing_basis_vector_1'> +9.4694400e-06 </wgt>
<wgt id='morphing_basis_vector_3'> +1.0289008e-05 </wgt>
<wgt id='morphing_basis_vector_4'> +9.4713330e-06 </wgt>
<wgt id='morphing_basis_vector_5'> +9.8885209e-06 </wgt>
</rwgt>
</event>
<event>
 7      1 +9.9549000e-06 1.01310700e+02 7.81860800e-03 1.36794700e-01
        2 -1    0    0  502    0 +0.0000000000e+00 +0.0000000000e+00 +6.5424724951e+02 6.5424724951e+02 0.0000000000e+00 0.0000e+00 -1.0000e+00
        1 -1    0    0  501    0 -0.0000000000e+00 -0.0000000000e+00 -1.8768035142e+02 1.8768035142e+02 0.0000000000e+00 0.0000e+00 -1.0000e+00
       25  2    1    2    0    0 -6.3355145387e+01 -1.2264353530e+02 +2.2804327335e+02 2.9442207333e+02 1.2500124618e+02 0.0000e+00 0.0000e+00
        2  1    1    2  501    0 +9.5901698578e+00 +4.4268316421e+01 -1.4524441838e+02 1.5214334118e+02 0.0000000000e+00 0.0000e+00 -1.0000e+00
        1  1    1    2  502    0 +5.3764975529e+01 +7.8375218882e+01 +3.8376804312e+02 3.9536218642e+02 0.0000000000e+00 0.0000e+00 -1.0000e+00
       22  1    3    3    0    0 -3.0516689304e+00 -1.1536048784e+02 +9.9993557922e+01 1.5269599361e+02 0.0000000000e+00 0.0000e+00 1.0000e+00
       22  1    3    3    0    0 -6.0303476457e+01 -7.2830474667e+00 +1.2804971543e+02 1.4172607972e+02 0.0000000000e+00 0.0000e+00 1.0000e+00
<rwgt>
<wgt id='SM'> +9.6447181e-06 </wgt>
<wgt id='morphing_basis_vector_1'> +9.1573403e-06 </wgt>
<wgt id='morphing_basis_vector_3'> +1.0152833e-05 </wgt>
<wgt id='morphing_basis_vector_4'> +9.3249122e-06 </wgt>
<wgt id='morphing_basis_vector_5'> +9.5440924e-06 </wgt>
</rwgt>
</event>
<event>
 7      1 +9.9549000e-06 9.72728100e+01 7.81860800e-03 1.34355200e-01
        2 -1    0    0  502    0 +0.0000000000e+00 +0.0000000000e+00 +1.1204057881e+03 1.1204057881e+03 0.0000000000e+00 0.0000e+00 -1.0000e+00
        1 -1    0    0  501    0 -0.0000000000e+00 -0.0000000000e+00 -3.7086835033e+01 3.7086835033e+01 0.0000000000e+00 0.0000e+00 -1.0000e+00
       25  2    1    2    0    0 -1.0400602926e+01 -6.7680967089e+01 +4.0539387359e+02 4.2973174213e+02 1.2504515826e+02 0.0000e+00 0.0000e+00
        2  1    1    2  501    0 +6.5478447357e+01 +8.5814139622e+01 +1.0066966203e+02 1.4760038781e+02 0.0000000000e+00 0.0000e+00 -1.0000e+00
        1  1    1    2  502    0 -5.5077844432e+01 -1.8133172533e+01 +5.7725541744e+02 5.8016049319e+02 0.0000000000e+00 0.0000e+00 -1.0000e+00
       22  1    3    3    0    0 +1.7319663696e+00 +2.0675656992e+00 -8.9683323956e+00 9.3651226038e+00 0.0000000000e+00 0.0000e+00 -1.0000e+00
       22  1    3    3    0    0 -1.2132569295e+01 -6.9748532788e+01 +4.1436220599e+02 4.2036661953e+02 0.0000000000e+00 0.0000e+00 -1.0000e+00
<rwgt>
<wgt id='SM'> +9.6432847e-06 </wgt>
<wgt id='morphing_basis_vector_1'> +9.6329923e-06 </wgt>
<wgt id='morphing_basis_vector_3'> +9.4071670e-06 </wgt>
<wgt id='morphing_basis_vector_4'> +1.0006986e-05 </wgt>
<wgt id='morphing_basis_vector_5'> +9.2544959e-06 </wgt>
</rwgt>
</event>
<event>
 7      1 +9.9549000e-06 1.43534900e+02 7.81860800e-03 1.21927100e-01
        2 -1    0    0  502    0 +0.0000000000e+00 +0.0000000000e+00 +9.9140667375e+02 9.9140667375e+02 0.0000000000e+00 0.0000e+00 -1.0000e+00
        1 -1    0    0  501    0 -0.0000000000e+00 -0.0000000000e+00 -4.6182965906e+02 4.6182965906e+02 0.0000000000e+00 0.0000e+00 -1.0000e+00
       25  2    1    2    0    0 +3.4231863295e+01 +3.4480833673e+01 +1.3738035166e+02 1.9198738463e+02 1.2500018592e+02 0.0000e+00 0.0000e+00
        2  1    1    2  501    0 +9.3954629934e+01 +8.7286627299e+01 -4.1528624796e+02 4.3463673975e+02 0.0000000000e+00 0.0000e+00 -1.0000e+00
        1  1    1    2  502    0 -1.2818649323e+02 -1.2176746097e+02 +8.0748291099e+02 8.2661220844e+02 0.0000000000e+00 0.0000e+00 -1.0000e+00
       22  1    3    3    0    0 +3.0135078496e+01 +2.0610667395e+01 -1.4600142767e+01 3.9320309450e+01 0.0000000000e+00 0.0000e+00 -1.0000e+00
       22  1    3    3    0    0 +4.0967847995e+00 +1.3870166278e+01 +1.5198049443e+02 1.5266707518e+02 0.0000000000e+00 0.0000e+00 -1.0000e+00
<rwgt>
<wgt id='SM'> +9.9194367e-06 </wgt>
<wgt id='morphing_basis_vector_1'> +9.8634020e-06 </wgt>
<wgt id='morphing_basis_vector_3'> +9.9770720e-06 </wgt>
<wgt id='morphing_basis_vector_4'> +9.8838194e-06 </wgt>
<wgt id='morphing_basis_vector_5'> +9.9087257e-06 </wgt>
</rwgt>
</event>
<event>
 7      1 +9.9549000e-06 4.98222700e+01 7.81860800e-03 1.54063900e-01
        2 -1    0    0  502    0 +0.0000000000e+00 +0.0000000000e+00 +6.9466188076e+02 6.9466188076e+02 0.0000000000e+00 0.0000e+00 -1.0000e+00
        1 -1    0    0  501    0 -0.0000000000e+00 -0.0000000000e+00 -8.9069387896e+02 8.9069387896e+02 0.0000000000e+00 0.0000e+00 -1.0000e+00
       25  2    1    2    0    0 +4.8397363082e+01 -4.8799496390e+01 -6.1185249048e+02 6.2826091681e+02 1.2499845553e+02 0.0000e+00 0.0000e+00
        2  1    1    2  501    0 -4.3774173808e+00 +2.5514077366e+01 -2.6911207766e+02 2.7035428658e+02 0.0000000000e+00 0.0000e+00 -1.0000e+00
        1  1    1    2  502    0 -4.4019945701e+01 +2.3285419024e+01 +6.8493256994e+02 6.8674055634e+02 0.0000000000e+00 0.0000e+00 -1.0000e+00
       22  1    3    3    0    0 +6.0463375133e+01 -4.4327356532e+01 -6.1076250601e+02 6.1534670960e+02 0.0000000000e+00 0.0000e+00 -1.0000e+00
       22  1    3    3    0    0 -1.2066012051e+01 -4.4721398583e+00 -1.0899844714e+00 1.2914207211e+01 0.0000000000e+00 0.0000e+00 -1.0000e+00
<rwgt>
<wgt id='SM'> +9.7514735e-06 </wgt>
<wgt id='morphing_basis_vector_1'> +9.6425771e-06 </wgt>
<wgt id='morphing_basis_vector_3'> +9.7516076e-06 </wgt>
<wgt id='morphing_basis_vector_4'> +9.8435147e-06 </wgt>
<wgt id='morphing_basis_vector_5'> +9.5545633e-06 </wgt>
</rwgt>
</event>
<event>
 7      1 +9.9549000e-06 1.77313700e+02 7.81860800e-03 1.26456800e-01
        2 -1    0    0  502    0 +0.0000000000e+00 +0.0000000000e+00 +1.0861298769e+03 1.0861298769e+03 0.0000000000e+00 0.0000e+00 -1.0000e+00
        1 -1    0    0  501    0 -0.0000000000e+00 -0.0000000000e+00 -3.4452992637e+02 3.4452992637e+02 0.0000000000e+00 0.0000e+00 -1.0000e+00
       25  2    1    2    0    0 -1.9242488521e+02 +2.8308835621e+01 +3.1242478676e+02 3.8866838300e+02 1.2500055176e+02 0.0000e+00 0.0000e+00
        2  1    1    2  501    0 +1.7342435454e+02 +3.4502203761e+01 -2.7925442393e+02 3.3052903367e+02 0.0000000000e+00 0.0000e+00 -1.0000e+00
        1  1    1    2  502    0 +1.9000530663e+01 -6.2811039382e+01 +7.0842958773e+02 7.1146238664e+02 0.0000000000e+00 0.0000e+00 -1.0000e+00
       22  1    3    3    0    0 -1.8877847555e+02 +5.5647775708e+01 +2.9908570212e+02 3.5803106706e+02 0.0000000000e+00 0.0000e+00 1.0000e+00
       22  1    3    3    0    0 -3.6464096546e+00 -2.7338940088e+01 +1.3339084644e+01 3.0637315934e+01 0.0000000000e+00 0.0000e+00 1.0000e+00
<rwgt>
<wgt id='SM'> +9.9822680e-06 </wgt>
<wgt id='morphing_basis_vector_1'> +9.1427343e-06 </wgt>
<wgt id='morphing_basis_vector_3'> +1.1363458e-05 </wgt>
<wgt id='morphing_basis_vector_4'> +8.7766661e-06 </wgt>
<wgt id='morphing_basis_vector_5'> +1.0548219e-05 </wgt>
</rwgt>
</event>
<event>
 7      1 +9.9549000e-06 6.35850300e+01 7.81860800e-03 1.41550900e-01
        2 -1    0    0  502    0 +0.0000000000e+00 +0.0000000000e+00 +1.2398488469e+03 1.2398488469e+03 0.0000000000e+00 0.0000e+00 -1.0000e+00
        1 -1    0    0  501    0 -0.0000000000e+00 -0.0000000000e+00 -1.4550414113e+02 1.4550414113e+02 0.0000000000e+00 0.0000e+00 -1.0000e+00
       25  2    1    2    0    0 +4.5681373552e+01 -8.0255217261e+01 +3.6523600482e+02 3.9692443086e+02 1.2499590716e+02 0.0000e+00 0.0000e+00
        2  1    1    2  501    0 +8.0205115209e+00 +4.8632163317e+01 -1.2379736541e+02 1.3324865327e+02 0.0000000000e+00 0.0000e+00 -1.0000e+00
        1  1    1    2  502    0 -5.3701885073e+01 +3.1623053944e+01 +8.5290606637e+02 8.5517990391e+02 0.0000000000e+00 0.0000e+00 -1.0000e+00
       22  1    3    3    0    0 -1.0825696882e+01 -4.9339336182e+01 +3.7480081264e+01 6.2899302853e+01 0.0000000000e+00 0.0000e+00 1.0000e+00
       22  1    3    3    0    0 +5.6507070435e+01 -3.0915881079e+01 +3.2775592356e+02 3.3402512801e+02 0.0000000000e+00 0.0000e+00 1.0000e+00
<rwgt>
<wgt id='SM'> +9.6462599e-06 </wgt>
<wgt id='morphing_basis_vector_1'> +9.5033375e-06 </wgt>
<wgt id='morphing_basis_vector_3'> +9.6129286e-06 </wgt>
<wgt id='morphing_basis_vector_4'> +9.8165617e-06 </wgt>
<wgt id='morphing_basis_vector_5'> +9.3360328e-06 </wgt>
</rwgt>
</event>
<event>
 7      1 +9.9549000e-06 6.12609200e+01 7.81860800e-03 1.51130100e-01
        2 -1    0    0  502    0 +0.0000000000e+00 +0.0000000000e+00 +5.4437234280e+02 5.4437234280e+02 0.0000000000e+00 0.0000e+00 -1.0000e+00
        1 -1    0    0  501    0 -0.0000000000e+00 -0.0000000000e+00 -1.6240128758e+02 1.6240128758e+02 0.0000000000e+00 0.0000e+00 -1.0000e+00
       25  2    1    2    0    0 -4.1694042983e+01 +3.9394520377e+01 -2.9637221465e+01 1.4069210666e+02 1.2500233007e+02 0.0000e+00 0.0000e+00
        2  1    1    2  501    0 +1.8591590274e+01 +1.7564171809e+01 -7.3123964457e+01 7.7467809690e+01 0.0000000000e+00 0.0000e+00 -1.0000e+00
        1  1    1    2  502    0 +2.3102452709e+01 -5.6958692186e+01 +4.8473224115e+02 4.8861371403e+02 0.0000000000e+00 0.0000e+00 -1.0000e+00
       22  1    3    3    0    0 -8.4421905376e+01 +3.0822955457e+01 -3.6373881356e+00 8.9946335572e+01 0.0000000000e+00 0.0000e+00 1.0000e+00
       22  1    3    3    0    0 +4.2727862393e+01 +8.5715649200e+00 -2.5999833329e+01 5.0745771085e+01 0.0000000000e+00 0.0000e+00 1.0000e+00
<rwgt>
<wgt id='SM'> +1.0006975e-05 </wgt>
<wgt id='morphing_basis_vector_1'> +9.9263143e-06 </wgt>
<wgt id='morphing_basis_vector_3'> +1.0174491e-05 </wgt>
<wgt id='morphing_basis_vector_4'> +9.8304384e-06 </wgt>
<wgt id='morphing_basis_vector_5'> +1.0124557e-05 </wgt>
</rwgt>
</event>
<event>
 7      1 +9.9549000e-06 7.90150600e+01 7.81860800e-03 1.40469500e-01
        2 -1    0    0  502    0 +0.0000000000e+00 +0.0000000000e+00 +7.8002659938e+02 7.8002659938e+02 0.0000000000e+00 0.0000e+00 -1.0000e+00
        1 -1    0    0  501    0 -0.0000000000e+00 -0.0000000000e+00 -1.4270924885e+03 1.4270924885e+03 0.0000000000e+00 0.0000e+00 -1.0000e+00
       25  2    1    2    0    0 +2.1318232179e+01 -3.0193033637e+01 +1.0908361132e+02 1.6997773012e+02 1.2500843242e+02 0.0000e+00 0.0000e+00
        2  1    1    2  501    0 -5.4878571083e+01 +5.7324356175e+01 -1.3947893225e+03 1.3970450936e+03 0.0000000000e+00 0.0000e+00 -1.0000e+00
        1  1    1    2  502    0 +3.3560338904e+01 -2.7131322538e+01 +6.3863982209e+02 6.4009626414e+02 0.0000000000e+00 0.0000e+00 -1.0000e+00
       22  1    3    3    0    0 -2.6353346357e+00 +2.2099814667e+01 +1.1022391689e+02 1.1244847110e+02 0.0000000000e+00 0.0000e+00 1.0000e+00
       22  1    3    3    0    0 +2.3953566815e+01 -5.2292848305e+01 -1.1403055759e+00 5.7529259023e+01 0.0000000000e+00 0.0000e+00 1.0000e+00
<rwgt>
<wgt id='SM'> +9.9599957e-06 </wgt>
<wgt id='morphing_basis_vector_1'> +9.9383724e-06 </wgt>
<wgt id='morphing_basis_vector_3'> +9.9973553e-06 </wgt>
<wgt id='morphing_basis_vector_4'> +9.9233392e-06 </wgt>
<wgt id='morphing_basis_vector_5'> +9.9798300e-06 </wgt>
</rwgt>
</event>
<event>
 7      1 +9.9549000e-06 7.11011600e+01 7.81860800e-03 1.43619200e-01
        2 -1    0    0  502    0 +0.0000000000e+00 +0.0000000000e+00 +8.0752388064e+02 8.0752388064e+02 0.0000000000e+00 0.0000e+00 -1.0000e+00
        1 -1    0    0  501    0 -0.0000000000e+00 -0.0000000000e+00 -2.5620052081e+03 2.5620052081e+03 0.0000000000e+00 0.0000e+00 -1.0000e+00
       25  2    1    2    0    0 -7.9209149030e+01 +2.0911059822e+01 -2.0005693819e+01 1.5078753502e+02 1.2500116487e+02 0.0000e+00 0.0000e+00
        2  1    1    2  501    0 +2.6493899217e+01 +2.6745729714e+01 -2.4747639022e+03 2.4750502282e+03 0.0000000000e+00 0.0000e+00 -1.0000e+00
        1  1    1    2  502    0 +5.2715249812e+01 -4.7656789535e+01 +7.4028826851e+02 7.4369132552e+02 0.0000000000e+00 0.0000e+00 -1.0000e+00
       22  1    3    3    0    0 -5.3188804784e+01 +6.8738514183e+01 +1.1830823582e+01 8.7715452875e+01 0.0000000000e+00 0.0000e+00 1.0000e+00
       22  1    3    3    0    0 -2.6020344246e+01 -4.7827454361e+01 -3.1836517401e+01 6.3072082141e+01 0.0000000000e+00 0.0000e+00 1.0000e+00
<rwgt>
<wgt id='SM'> +9.9712607e-06 </wgt>
<wgt id='morphing_basis_vector_1'> +9.8303567e-06 </wgt>
<wgt id='morphing_basis_vector_3'> +1.0202432e-05 </wgt>
<wgt id='morphing_basis_vector_4'> +9.7531731e-06 </wgt>
<wgt id='morphing_basis_vector_5'> +1.0078844e-05 </wgt>
</rwgt>
</event>
<event>
 7      1 +9.9549000e-06 5.97062400e+01 7.81860800e-03 1.39959000e-01
        2 -1    0    0  502    0 +0.0000000000e+00 +0.0000000000e+00 +3.8656846801e+02 3.8656846801e+02 0.0000000000e+00 0.0000e+00 -1.0000e+00
        1 -1    0    0  501    0 -0.0000000000e+00 -0.0000000000e+00 -3.4737203332e+02 3.4737203332e+02 0.0000000000e+00 0.0000e+00 -1.0000e+00
       25  2    1    2    0    0 +2.4170537736e+01 -4.7801962471e+01 +1.9556931343e+02 2.3820577366e+02 1.2500156693e+02 0.0000e+00 0.0000e+00
        2  1    1    2  501    0 +4.3498603070e+01 +4.0898743145e+01 -3.1633018425e+02 3.2191554968e+02 0.0000000000e+00 0.0000e+00 -1.0000e+00
        1  1    1    2  502    0 -6.7669140806e+01 +6.9032193262e+00 +1.5995730551e+02 1.7381917800e+02 0.0000000000e+00 0.0000e+00 -1.0000e+00
       22  1    3    3    0    0 +5.8599030821e+01 -6.4628365555e+01 +1.7295189381e+02 1.9370862041e+02 0.0000000000e+00 0.0000e+00 -1.0000e+00
       22  1    3    3    0    0 -3.4428493085e+01 +1.6826403084e+01 +2.2617419622e+01 4.4497153248e+01 0.0000000000e+00 0.0000e+00 -1.0000e+00
<rwgt>
<wgt id='SM'> +9.6685758e-06 </wgt>
<wgt id='morphing_basis_vector_1'> +9.6337600e-06 </wgt>
<wgt id='morphing_basis_vector_3'> +9.4885407e-06 </wgt>
<wgt id='morphing_basis_vector_4'> +9.9664008e-06 </wgt>
<wgt id='morphing_basis_vector_5'> +9.3229760e-06 </wgt>
</rwgt>
</event>
<event>
 7      1 +9.9549000e-06 1.39692500e+02 7.81860800e-03 1.40449300e-01
        2 -1    0    0  502    0 +0.0000000000e+00 +0.0000000000e+00 +1.2744187794e+03 1.2744187794e+03 0.0000000000e+00 0.0000e+00 -1.0000e+00
        1 -1    0    0  501    0 -0.0000000000e+00 -0.0000000000e+00 -4.0418120089e+02 4.0418120089e+02 0.0000000000e+00 0.0000e+00 -1.0000e+00
       25  2    1    2    0    0 +1.5461155242e+02 +2.6622472127e+01 +5.7384828531e+02 6.0789906686e+02 1.2500373101e+02 0.0000e+00 0.0000e+00
        2  1    1    2  501    0 -2.2551239410e+01 -9.4442971028e+00 -3.8027310148e+02 3.8105824339e+02 0.0000000000e+00 0.0000e+00 -1.0000e+00
        1  1    1    2  502    0 -1.3206031301e+02 -1.7178175024e+01 +6.7666239466e+02 6.8964267002e+02 0.0000000000e+00 0.0000e+00 -1.0000e+00
       22  1    3    3    0    0 +2.7790505494e+01 +6.0356849698e+01 +1.4671285031e+02 1.6105875309e+02 0.0000000000e+00 0.0000e+00 -1.0000e+00
       22  1    3    3    0    0 +1.2682104692e+02 -3.3734377571e+01 +4.2713543500e+02 4.4684031377e+02 0.0000000000e+00 0.0000e+00 -1.0000e+00
<rwgt>
<wgt id='SM'> +9.4244800e-06 </wgt>
<wgt id='morphing_basis_vector_1'> +8.7689131e-06 </wgt>
<wgt id='morphing_basis_vector_3'> +1.0022776e-05 </wgt>
<wgt id='morphing_basis_vector_4'> +9.1211955e-06 </wgt>
<wgt id='morphing_basis_vector_5'> +9.1491238e-06 </wgt>
</rwgt>
</event>
<event>
 7      1 +9.9549000e-06 5.08266000e+01 7.81860800e-03 1.46102300e-01
        2 -1    0    0  502    0 +0.0000000000e+00 +0.0000000000e+00 +3.0043429809e+03 3.0043429809e+03 0.0000000000e+00 0.0000e+00 -1.0000e+00
        1 -1    0    0  501    0 -0.0000000000e+00 -0.0000000000e+00 -5.9244829245e+01 5.9244829245e+01 0.0000000000e+00 0.0000e+00 -1.0000e+00
       25  2    1    2    0    0 -1.1100526853e+01 +8.7661555247e+01 +1.6040116326e+02 2.2174128571e+02 1.2503157462e+02 0.0000e+00 0.0000e+00
        2  1    1    2  501    0 +2.1564234092e+01 -3.8172981157e+01 -1.1393087458e+01 4.5298952793e+01 0.0000000000e+00 0.0000e+00 -1.0000e+00
        1  1    1    2  502    0 -1.0463707239e+01 -4.9488574090e+01 +2.7960900758e+03 2.7965475716e+03 0.0000000000e+00 0.0000e+00 -1.0000e+00
       22  1    3    3    0    0 -2.3648312434e+01 +7.0675964907e+01 +1.6542974716e+01 7.6341369577e+01 0.0000000000e+00 0.0000e+00 1.0000e+00
       22  1    3    3    0    0 +1.2547785581e+01 +1.6985590340e+01 +1.4385818854e+02 1.4539991614e+02 0.0000000000e+00 0.0000e+00 1.0000e+00
<rwgt>
<wgt id='SM'> +9.8837053e-06 </wgt>
<wgt id='morphing_basis_vector_1'> +9.6697386e-06 </wgt>
<wgt id='morphing_basis_vector_3'> +1.0156116e-05 </wgt>
<wgt id='morphing_basis_vector_4'> +9.6677280e-06 </wgt>
<wgt id='morphing_basis_vector_5'> +9.9219510e-06 </wgt>
</rwgt>
</event>
<event>
 7      1 +9.9549000e-06 1.11974200e+02 7.81860800e-03 1.37798100e-01
        2 -1    0    0  502    0 +0.0000000000e+00 +0.0000000000e+00 +5.6934073501e+01 5.6934073501e+01 0.0000000000e+00 0.0000e+00 -1.0000e+00
        1 -1    0    0  501    0 -0.0000000000e+00 -0.0000000000e+00 -1.1999252483e+03 1.1999252483e+03 0.0000000000e+00 0.0000e+00 -1.0000e+00
       25  2    1    2    0    0 -6.1815369678e+01 -5.0783939194e+01 -6.1250845817e+02 6.3023147200e+02 1.2499979424e+02 0.0000e+00 0.0000e+00
        2  1    1    2  501    0 -1.7485841018e+01 -3.3432266788e+01 -5.0723772309e+02 5.0863894741e+02 0.0000000000e+00 0.0000e+00 -1.0000e+00
        1  1    1    2  502    0 +7.9301210696e+01 +8.4216205982e+01 -2.3244993566e+01 1.1798890242e+02 0.0000000000e+00 0.0000e+00 -1.0000e+00
       22  1    3    3    0    0 -3.9713231132e+01 +1.2728475957e+01 -4.7832700908e+02 4.8014152334e+02 0.0000000000e+00 0.0000e+00 1.0000e+00
       22  1    3    3    0    0 -2.2102138546e+01 -6.3512415150e+01 -1.3418144909e+02 1.5008994866e+02 0.0000000000e+00 0.0000e+00 1.0000e+00
<rwgt>
<wgt id='SM'> +9.8171577e-06 </wgt>
<wgt id='morphing_basis_vector_1'> +9.7787924e-06 </wgt>
<wgt id='morphing_basis_vector_3'> +9.7637343e-06 </wgt>
<wgt id='morphing_basis_vector_4'> +9.9302247e-06 </wgt>
<wgt id='morphing_basis_vector_5'> +9.6640563e-06 </wgt>
</rwgt>
</event>
<event>
 7      1 +9.9549000e-06 5.61238900e+01 7.81860800e-03 1.50703200e-01
        2 -1    0    0  502    0 +0.0000000000e+00 +0.0000000000e+00 +1.6873594441e+02 1.6873594441e+02 0.0000000000e+00 0.0000e+00 -1.0000e+00
        1 -1    0    0  501    0 -0.0000000000e+00 -0.0000000000e+00 -5.1605696983e+02 5.1605696983e+02 0.0000000000e+00 0.0000e+00 -1.0000e+00
       25  2    1    2    0    0 +5.0955725439e+00 +5.2455067958e+01 -4.1566641535e+02 4.3724217526e+02 1.2499860784e+02 0.0000e+00 0.0000e+00
        2  1    1    2  501    0 +2.2985237296e+01 -5.8565563996e+01 -7.6975441711e+01 9.9415617718e+01 0.0000000000e+00 0.0000e+00 -1.0000e+00
        1  1    1    2  502    0 -2.8080809840e+01 +6.1104960373e+00 +1.4532083164e+02 1.4813512126e+02 0.0000000000e+00 0.0000e+00 -1.0000e+00
       22  1    3    3    0    0 -4.1936996122e+01 +4.4125092988e+01 -9.3608139150e+01 1.1166118032e+02 0.0000000000e+00 0.0000e+00 -1.0000e+00
       22  1    3    3    0    0 +4.7032568666e+01 +8.3299749707e+00 -3.2205827620e+02 3.2558099494e+02 0.0000000000e+00 0.0000e+00 -1.0000e+00
<rwgt>
<wgt id='SM'> +9.9609285e-06 </wgt>
<wgt id='morphing_basis_vector_1'> +9.6545883e-06 </wgt>
<wgt id='morphing_basis_vector_3'> +1.0446456e-05 </wgt>
<wgt id='morphing_basis_vector_4'> +9.5235827e-06 </wgt>
<wgt id='morphing_basis_vector_5'> +1.0158002e-05 </wgt>
</rwgt>
</event>
<event>
 7      1 +9.9549000e-06 1.10182400e+02 7.81860800e-03 1.33370000e-01
        2 -1    0    0  502    0 +0.0000000000e+00 +0.0000000000e+00 +2.6187667321e+03 2.6187667321e+03 0.0000000000e+00 0.0000e+00 -1.0000e+00
        1 -1    0    0  501    0 -0.0000000000e+00 -0.0000000000e+00 -1.1837328485e+02 1.1837328485e+02 0.0000000000e+00 0.0000e+00 -1.0000e+00
       25  2    1    2    0    0 +2.6603507455e+01 -6.3796498702e+01 +5.1534833802e+02 5.3477668608e+02 1.2499781846e+02 0.0000e+00 0.0000e+00
        2  1    1    2  501    0 +6.8027428494e-02 +1.1276741790e+02 -7.8923011164e+01 1.3764206065e+02 0.0000000000e+00 0.0000e+00 -1.0000e+00
        1  1    1    2  502    0 -2.6671534884e+01 -4.8970919198e+01 +2.0639681204e+03 2.0647212702e+03 0.0000000000e+00 0.0000e+00 -1.0000e+00
       22  1    3    3    0    0 -2.7670601794e+01 -1.1726275992e+01 +2.6170562247e+01 3.9850546804e+01 0.0000000000e+00 0.0000e+00 1.0000e+00
       22  1    3    3    0    0 +5.4274109249e+01 -5.2070222709e+01 +4.8917777577e+02 4.9492613927e+02 0.0000000000e+00 0.0000e+00 1.0000e+00
<rwgt>
<wgt id='SM'> +9.7451534e-06 </wgt>
<wgt id='morphing_basis_vector_1'> +9.7024850e-06 </wgt>
<wgt id='morphing_basis_vector_3'> +9.6385803e-06 </wgt>
<wgt id='morphing_basis_vector_4'> +9.9392233e-06 </wgt>
<wgt id='morphing_basis_vector_5'> +9.5004023e-06 </wgt>
</rwgt>
</event>
<event>
 7      1 +9.9549000e-06 9.46976200e+01 7.81860800e-03 1.46649100e-01
        2 -1    0    0  502    0 +0.0000000000e+00 +0.0000000000e+00 +2.8652996368e+02 2.8652996368e+02 0.0000000000e+00 0.0000e+00 -1.0000e+00
        1 -1    0    0  501    0 -0.0000000000e+00 -0.0000000000e+00 -1.2541058344e+03 1.2541058344e+03 0.0000000000e+00 0.0000e+00 -1.0000e+00
       25  2    1    2    0    0 -1.6575527102e+01 +7.7146816869e+01 -1.5848745272e+01 1.4866879898e+02 1.2499939844e+02 0.0000e+00 0.0000e+00
        2  1    1    2  501    0 +3.6456033085e+01 -8.7937018215e+01 -1.1693265600e+03 1.1731950244e+03 0.0000000000e+00 0.0000e+00 -1.0000e+00
        1  1    1    2  502    0 -1.9880505983e+01 +1.0790201346e+01 +2.1759943455e+02 2.1877197462e+02 0.0000000000e+00 0.0000e+00 -1.0000e+00
       22  1    3    3    0    0 +4.1798739008e+01 +7.1523151889e+01 -3.0404776462e+01 8.8244808745e+01 0.0000000000e+00 0.0000e+00 -1.0000e+00
       22  1    3    3    0    0 -5.8374266110e+01 +5.6236649799e+00 +1.4556031189e+01 6.0423990233e+01 0.0000000000e+00 0.0000e+00 -1.0000e+00
<rwgt>
<wgt id='SM'> +9.9332020e-06 </wgt>
<wgt id='morphing_basis_vector_1'> +9.8173840e-06 </wgt>
<wgt id='morphing_basis_vector_3'> +1.0093654e-05 </wgt>
<wgt id='morphing_basis_vector_4'> +9.7962143e-06 </wgt>
<wgt id='morphing_basis_vector_5'> +9.9755073e-06 </wgt>
</rwgt>
</event>
<event>
 7      1 +9.9549000e-06 5.89662300e+01 7.81860800e-03 1.45406600e-01
        2 -1    0    0  502    0 +0.0000000000e+00 +0.0000000000e+00 +4.8134249009e+01 4.8134249009e+01 0.0000000000e+00 0.0000e+00 -1.0000e+00
        1 -1    0    0  501    0 -0.0000000000e+00 -0.0000000000e+00 -1.4233865777e+03 1.4233865777e+03 0.0000000000e+00 0.0000e+00 -1.0000e+00
       25  2    1    2    0    0 +2.3218279130e+01 -1.2133059921e+01 -1.8796162866e+02 2.2724556517e+02 1.2499869364e+02 0.0000e+00 0.0000e+00
        2  1    1    2  501    0 +2.6751509565e+01 -2.9410112362e+01 -1.1779540449e+03 1.1786247621e+03 0.0000000000e+00 0.0000e+00 -1.0000e+00
        1  1    1    2  502    0 -4.9969788695e+01 +4.1543172283e+01 -9.3366551320e+00 6.5650499424e+01 0.0000000000e+00 0.0000e+00 -1.0000e+00
       22  1    3    3    0    0 -5.6267623044e+00 +4.4251790632e+01 -2.2262516153e+01 4.9854799705e+01 0.0000000000e+00 0.0000e+00 -1.0000e+00
       22  1    3    3    0    0 +2.8845041434e+01 -5.6384850553e+01 -1.6569911251e+02 1.7739076547e+02 0.0000000000e+00 0.0000e+00 -1.0000e+00
<rwgt>
<wgt id='SM'> +9.9582863e-06 </wgt>
<wgt id='morphing_basis_vector_1'> +9.9321337e-06 </wgt>
<wgt id='morphing_basis_vector_3'> +1.0001334e-05 </wgt>
<wgt id='morphing_basis_vector_4'> +9.9174008e-06 </wgt>
<wgt id='morphing_basis_vector_5'> +9.9788381e-06 </wgt>
</rwgt>
</event>
<event>
 7      1 +9.9549000e-06 1.07726700e+02 7.81860800e-03 1.45441800e-01
        2 -1    0    0  502    0 +0.0000000000e+00 +0.0000000000e+00 +4.5413818866e+01 4.5413818866e+01 0.0000000000e+00 0.0000e+00 -1.0000e+00
        1 -1    0    0  501    0 -0.0000000000e+00 -0.0000000000e+00 -1.1282432485e+03 1.1282432485e+03 0.0000000000e+00 0.0000e+00 -1.0000e+00
       25  2    1    2    0    0 -6.7783764193e+01 -7.2899123243e+01 -8.4459956306e+02 8.5958297808e+02 1.2500221365e+02 0.0000e+00 0.0000e+00
        2  1    1    2  501    0 +1.0145102814e+01 -1.9188834922e+01 -1.9650176654e+02 1.9769693663e+02 0.0000000000e+00 0.0000e+00 -1.0000e+00
        1  1    1    2  502    0 +5.7638661378e+01 +9.2087958165e+01 -4.1728099993e+01 1.1637715263e+02 0.0000000000e+00 0.0000e+00 -1.0000e+00
       22  1    3    3    0    0 -7.9887594328e+01 -9.9231909754e+01 -7.4649840083e+02 7.5729047404e+02 0.0000000000e+00 0.0000e+00 -1.0000e+00
       22  1    3    3    0    0 +1.2103830135e+01 +2.6332786511e+01 -9.8101162235e+01 1.0229250403e+02 0.0000000000e+00 0.0000e+00 -1.0000e+00
<rwgt>
<wgt id='SM'> +9.5545830e-06 </wgt>
<wgt id='morphing_basis_vector_1'> +9.5121910e-06 </wgt>
<wgt id='morphing_basis_vector_3'> +9.2966974e-06 </wgt>
<wgt id='morphing_basis_vector_4'> +9.9777277e-06 </wgt>
<wgt id='morphing_basis_vector_5'> +9.0747675e-06 </wgt>
</rwgt>
</event>
<event>
 7      1 +9.9549000e-06 1.82006700e+02 7.81860800e-03 1.22951200e-01
        2 -1    0    0  502    0 +0.0000000000e+00 +0.0000000000e+00 +1.6343545114e+03 1.6343545114e+03 0.0000000000e+00 0.0000e+00 -1.0000e+00
        1 -1    0    0  501    0 -0.0000000000e+00 -0.0000000000e+00 -9.9968304123e+02 9.9968304123e+02 0.0000000000e+00 0.0000e+00 -1.0000e+00
       25  2    1    2    0    0 +1.5807983441e+02 -2.9521044012e+01 +6.7381309710e+02 7.0392478213e+02 1.2500113193e+02 0.0000e+00 0.0000e+00
        2  1    1    2  501    0 -1.3893306191e+02 +1.1838034632e+02 -9.7394458965e+02 9.9090078504e+02 0.0000000000e+00 0.0000e+00 -1.0000e+00
        1  1    1    2  502    0 -1.9146772495e+01 -8.8859302310e+01 +9.3480296276e+02 9.3921198549e+02 0.0000000000e+00 0.0000e+00 -1.0000e+00
       22  1    3    3    0    0 -2.0993166641e+01 +1.4920235391e+00 +9.2543760878e+01 9.4906727145e+01 0.0000000000e+00 0.0000e+00 -1.0000e+00
       22  1    3    3    0    0 +1.7907300105e+02 -3.1013067551e+01 +5.8126933623e+02 6.0901805499e+02 0.0000000000e+00 0.0000e+00 -1.0000e+00
<rwgt>
<wgt id='SM'> +8.8459861e-06 </wgt>
<wgt id='morphing_basis_vector_1'> +8.6284089e-06 </wgt>
<wgt id='morphing_basis_vector_3'> +8.3028830e-06 </wgt>
<wgt id='morphing_basis_vector_4'> +9.8697723e-06 </wgt>
<wgt id='morphing_basis_vector_5'> +7.6232319e-06 </wgt>
</rwgt>
</event>
<event>
 7      1 +9.9549000e-06 7.55002700e+01 7.81860800e-03 1.43810900e-01
        2 -1    0    0  502    0 +0.0000000000e+00 +0.0000000000e+00 +1.0945411165e+03 1.0945411165e+03 0.0000000000e+00 0.0000e+00 -1.0000e+00
        1 -1    0    0  501    0 -0.0000000000e+00 -0.0000000000e+00 -8.6482682619e+02 8.6482682619e+02 0.0000000000e+00 0.0000e+00 -1.0000e+00
       25  2    1    2    0    0 +2.1702091564e+01 +8.6888897396e+01 +8.8765241055e+01 1.7755352607e+02 1.2500130132e+02 0.0000e+00 0.0000e+00
        2  1    1    2  501    0 -4.4793083758e+01 -6.0657725042e+01 -8.1838130115e+02 8.2184775599e+02 0.0000000000e+00 0.0000e+00 -1.0000e+00
        1  1    1    2  502    0 +2.3090992194e+01 -2.6231172353e+01 +9.5933035039e+02 9.5996666062e+02 0.0000000000e+00 0.0000e+00 -1.0000e+00
       22  1    3    3    0    0 +6.7944558904e+01 +4.4632684000e+01 +8.0435132945e+01 1.1436061463e+02 0.0000000000e+00 0.0000e+00 -1.0000e+00
       22  1    3    3    0    0 -4.6242467339e+01 +4.2256213396e+01 +8.3301081100e+00 6.3192911448e+01 0.0000000000e+00 0.0000e+00 -1.0000e+00
<rwgt>
<wgt id='SM'> +9.7203769e-06 </wgt>
<wgt id='morphing_basis_vector_1'> +9.6096440e-06 </wgt>
<wgt id='morphing_basis_vector_3'> +9.6977382e-06 </wgt>
<wgt id='morphing_basis_vector_4'> +9.8473002e-06 </wgt>
<wgt id='morphing_basis_vector_5'> +9.4848078e-06 </wgt>
</rwgt>
</event>
<event>
 7      1 +9.9549000e-06 3.58919800e+01 7.81860800e-03 1.62642000e-01
        2 -1    0    0  502    0 +0.0000000000e+00 +0.0000000000e+00 +6.0922115715e+01 6.0922115715e+01 0.0000000000e+00 0.0000e+00 -1.0000e+00
        1 -1    0    0  501    0 -0.0000000000e+00 -0.0000000000e+00 -8.3638868969e+02 8.3638868969e+02 0.0000000000e+00 0.0000e+00 -1.0000e+00
       25  2    1    2    0    0 +9.4363003896e+00 -1.4606962819e+01 -1.2479570557e+02 1.7748639643e+02 1.2500018264e+02 0.0000e+00 0.0000e+00
        2  1    1    2  501    0 +1.9088595841e+01 -9.2265612324e+00 -6.7504275220e+02 6.7537561491e+02 0.0000000000e+00 0.0000e+00 -1.0000e+00
        1  1    1    2  502    0 -2.8524896231e+01 +2.3833524051e+01 +2.4371883801e+01 4.4448794063e+01 0.0000000000e+00 0.0000e+00 -1.0000e+00
       22  1    3    3    0    0 +2.3748030600e+01 -1.2686251450e+01 -1.4785090896e+02 1.5028240487e+02 0.0000000000e+00 0.0000e+00 1.0000e+00
       22  1    3    3    0    0 -1.4311730211e+01 -1.9207113689e+00 +2.3055203382e+01 2.7203991560e+01 0.0000000000e+00 0.0000e+00 1.0000e+00
<rwgt>
<wgt id='SM'> +9.9343714e-06 </wgt>
<wgt id='morphing_basis_vector_1'> +9.9278909e-06 </wgt>
<wgt id='morphing_basis_vector_3'> +9.9273601e-06 </wgt>
<wgt id='morphing_basis_vector_4'> +9.9501590e-06 </wgt>
<wgt id='morphing_basis_vector_5'> +9.9115595e-06 </wgt>
</rwgt>
</event>
<event>
 7      1 +9.9549000e-06 1.34373200e+02 7.81860800e-03 1.31121300e-01
        2 -1    0    0  502    0 +0.0000000000e+00 +0.0000000000e+00 +1.9822145497e+03 1.9822145497e+03 0.0000000000e+00 0.0000e+00 -1.0000e+00
        1 -1    0    0  501    0 -0.0000000000e+00 -0.0000000000e+00 -1.9934016843e+02 1.9934016843e+02 0.0000000000e+00 0.0000e+00 -1.0000e+00
       25  2    1    2    0    0 -3.0484848842e+01 -1.7434640780e+02 +9.6982011155e+02 9.9373092776e+02 1.2499644836e+02 0.0000e+00 0.0000e+00
        2  1    1    2  501    0 +6.9059942905e+00 +5.5427136161e+01 -1.7945033064e+02 1.8794222875e+02 0.0000000000e+00 0.0000e+00 -1.0000e+00
        1  1    1    2  502    0 +2.3578854551e+01 +1.1891927163e+02 +9.9250460040e+02 9.9988156167e+02 0.0000000000e+00 0.0000e+00 -1.0000e+00
       22  1    3    3    0    0 +3.0367919944e+01 -9.7463835792e+01 +6.8363341031e+02 6.9121346163e+02 0.0000000000e+00 0.0000e+00 1.0000e+00
       22  1    3    3    0    0 -6.0852768786e+01 -7.6882572003e+01 +2.8618670125e+02 3.0251746614e+02 0.0000000000e+00 0.0000e+00 1.0000e+00
<rwgt>
<wgt id='SM'> +9.2646400e-06 </wgt>
<wgt id='morphing_basis_vector_1'> +8.4665954e-06 </wgt>
<wgt id='morphing_basis_vector_3'> +9.9673310e-06 </wgt>
<wgt id='morphing_basis_vector_4'> +8.9406012e-06 </wgt>
<wgt id='morphing_basis_vector_5'> +8.8814486e-06 </wgt>
</rwgt>
</event>
<event>
 7      1 +9.9549000e-06 7.68406200e+01 7.81860800e-03 1.43000100e-01
        2 -1    0    0  502    0 +0.0000000000e+00 +0.0000000000e+00 +6.5160577990e+02 6.5160577990e+02 0.0000000000e+00 0.0000e+00 -1.0000e+00
        1 -1    0    0  501    0 -0.0000000000e+00 -0.0000000000e+00 -1.4299977493e+03 1.4299977493e+03 0.0000000000e+00 0.0000e+00 -1.0000e+00
       25  2    1    2    0    0 -4.1907227360e+01 +4.7348304841e+01 +1.1431654720e+02 1.8079952234e+02 1.2498846603e+02 0.0000e+00 0.0000e+00
        2  1    1    2  501    0 +7.2140563257e+01 -2.6897032875e+01 -1.3950325808e+03 1.3971555435e+03 0.0000000000e+00 0.0000e+00 -1.0000e+00
        1  1    1    2  502    0 -3.0233335897e+01 -2.0451271966e+01 +5.0232406422e+02 5.0364846334e+02 0.0000000000e+00 0.0000e+00 -1.0000e+00
       22  1    3    3    0    0 -3.4346854962e+01 +7.3212337313e+01 +1.2735767505e+02 1.5086328306e+02 0.0000000000e+00 0.0000e+00 1.0000e+00
       22  1    3    3    0    0 -7.5603723973e+00 -2.5864032472e+01 -1.3041127858e+01 2.9936239281e+01 0.0000000000e+00 0.0000e+00 1.0000e+00
<rwgt>
<wgt id='SM'> +1.0009266e-05 </wgt>
<wgt id='morphing_basis_vector_1'> +9.9212736e-06 </wgt>
<wgt id='morphing_basis_vector_3'> +1.0189970e-05 </wgt>
<wgt id='morphing_basis_vector_4'> +9.8196969e-06 </wgt>
<wgt id='morphing_basis_vector_5'> +1.0134347e-05 </wgt>
</rwgt>
</event>
<event>
 7      1 +9.9549000e-06 4.51443800e+01 7.81860800e-03 1.59013700e-01
        2 -1    0    0  502    0 +0.0000000000e+00 +0.0000000000e+00 +2.1454968609e+03 2.1454968609e+03 0.0000000000e+00 0.0000e+00 -1.0000e+00
        1 -1    0    0  501    0 -0.0000000000e+00 -0.0000000000e+00 -6.8554636477e+01 6.8554636477e+01 0.0000000000e+00 0.0000e+00 -1.0000e+00
       25  2    1    2    0    0 +2.2843236485e+00 +3.4712333514e+01 +1.0608100299e+03 1.0687152581e+03 1.2499687655e+02 0.0000e+00 0.0000e+00
        2  1    1    2  501    0 +1.7411914813e+01 -4.1764199378e+01 -5.6564284723e+01 7.2435774541e+01 0.0000000000e+00 0.0000e+00 -1.0000e+00
        1  1    1    2  502    0 -1.9696238461e+01 +7.0518658637e+00 +1.0726964793e+03 1.0729004647e+03 0.0000000000e+00 0.0000e+00 -1.0000e+00
       22  1    3    3    0    0 -5.1587572338e+01 +5.0352533824e+01 +6.7705834304e+02 6.8088519970e+02 0.0000000000e+00 0.0000e+00 1.0000e+00
       22  1    3    3    0    0 +5.3871895986e+01 -1.5640200310e+01 +3.8375168684e+02 3.8783005840e+02 0.0000000000e+00 0.0000e+00 1.0000e+00
<rwgt>
<wgt id='SM'> +9.9853543e-06 </wgt>
<wgt id='morphing_basis_vector_1'> +9.9587469e-06 </wgt>
<wgt id='morphing_basis_vector_3'> +1.0051396e-05 </wgt>
<wgt id='morphing_basis_vector_4'> +9.9109413e-06 </wgt>
<wgt id='morphing_basis_vector_5'> +1.0041426e-05 </wgt>
</rwgt>
</event>
<event>
 7      1 +9.9549000e-06 8.75938100e+01 7.81860800e-03 1.39318800e-01
        2 -1    0    0  502    0 +0.0000000000e+00 +0.0000000000e+00 +1.2020628506e+03 1.2020628506e+03 0.0000000000e+00 0.0000e+00 -1.0000e+00
        1 -1    0    0  501    0 -0.0000000000e+00 -0.0000000000e+00 -5.8210072320e+02 5.8210072320e+02 0.0000000000e+00 0.0000e+00 -1.0000e+00
       25  2    1    2    0    0 -3.5317664330e+01 +1.2191460748e+02 +1.3234719463e+02 2.2190779389e+02 1.2496711621e+02 0.0000e+00 0.0000e+00
        2  1    1    2  501    0 +1.2398800901e+01 -8.5947824866e+01 -5.3336382904e+02 5.4038665138e+02 0.0000000000e+00 0.0000e+00 -1.0000e+00
        1  1    1    2  502    0 +2.2918863429e+01 -3.5966782619e+01 +1.0209787618e+03 1.0218691285e+03 0.0000000000e+00 0.0000e+00 -1.0000e+00
       22  1    3    3    0    0 +4.0167222420e+01 +1.6587111400e+01 +5.8121231489e+01 7.2571451490e+01 0.0000000000e+00 0.0000e+00 1.0000e+00
       22  1    3    3    0    0 -7.5484886750e+01 +1.0532749608e+02 +7.4225963138e+01 1.4933634240e+02 0.0000000000e+00 0.0000e+00 1.0000e+00
<rwgt>
<wgt id='SM'> +9.6375766e-06 </wgt>
<wgt id='morphing_basis_vector_1'> +9.3736527e-06 </wgt>
<wgt id='morphing_basis_vector_3'> +9.7847585e-06 </wgt>
<wgt id='morphing_basis_vector_4'> +9.6450703e-06 </wgt>
<wgt id='morphing_basis_vector_5'> +9.3895808e-06 </wgt>
</rwgt>
</event>
<event>
 7      1 +9.9549000e-06 1.03803200e+02 7.81860800e-03 1.37980600e-01
        2 -1    0    0  502    0 +0.0000000000e+00 +0.0000000000e+00 +3.3816334468e+03 3.3816334468e+03 0.0000000000e+00 0.0000e+00 -1.0000e+00
        1 -1    0    0  501    0 -0.0000000000e+00 -0.0000000000e+00 -1.4102766693e+02 1.4102766693e+02 0.0000000000e+00 0.0000e+00 -1.0000e+00
       25  2    1    2    0    0 -1.0513671688e+02 -8.9303885246e+01 +1.0401235980e+03 1.0566455116e+03 1.2495489116e+02 0.0000e+00 0.0000e+00
        2  1    1    2  501    0 +2.3441591400e+01 +3.2530641349e+01 -1.2865305224e+02 1.3475666471e+02 0.0000000000e+00 0.0000e+00 -1.0000e+00
        1  1    1    2  502    0 +8.1695125481e+01 +5.6773243897e+01 +2.3291352341e+03 2.3312589374e+03 0.0000000000e+00 0.0000e+00 -1.0000e+00
       22  1    3    3    0    0 -8.7425049478e+01 -3.6553867491e+01 +3.0410614363e+02 3.1852766143e+02 0.0000000000e+00 0.0000e+00 1.0000e+00
       22  1    3    3    0    0 -1.7711667403e+01 -5.2750017756e+01 +7.3601745440e+02 7.3811785015e+02 0.0000000000e+00 0.0000e+00 1.0000e+00
<rwgt>
<wgt id='SM'> +9.6703227e-06 </wgt>
<wgt id='morphing_basis_vector_1'> +9.2584714e-06 </wgt>
<wgt id='morphing_basis_vector_3'> +1.0078215e-05 </wgt>
<wgt id='morphing_basis_vector_4'> +9.4278470e-06 </wgt>
<wgt id='morphing_basis_vector_5'> +9.5548423e-06 </wgt>
</rwgt>
</event>
<event>
 7      1 +9.9549000e-06 7.00564700e+01 7.81860800e-03 1.43779700e-01
        2 -1    0    0  502    0 +0.0000000000e+00 +0.0000000000e+00 +1.2289716973e+03 1.2289716973e+03 0.0000000000e+00 0.0000e+00 -1.0000e+00
        1 -1    0    0  501    0 -0.0000000000e+00 -0.0000000000e+00 -7.9156204303e+02 7.9156204303e+02 0.0000000000e+00 0.0000e+00 -1.0000e+00
       25  2    1    2    0    0 -1.0467358666e+02 +5.2189781659e-01 -2.1948476661e+02 2.7341320273e+02 1.2499753808e+02 0.0000e+00 0.0000e+00
        2  1    1    2  501    0 +6.7203937106e+01 -5.1178896304e+00 -5.4273169674e+02 5.4690059116e+02 0.0000000000e+00 0.0000e+00 -1.0000e+00
        1  1    1    2  502    0 +3.7469649559e+01 +4.5959918138e+00 +1.1996261176e+03 1.2002199464e+03 0.0000000000e+00 0.0000e+00 -1.0000e+00
       22  1    3    3    0    0 +1.3638225449e+01 +3.5192140449e+01 -3.4661823959e+01 5.1243828730e+01 0.0000000000e+00 0.0000e+00 1.0000e+00
       22  1    3    3    0    0 -1.1831181211e+02 -3.4670242633e+01 -1.8482294265e+02 2.2216937400e+02 0.0000000000e+00 0.0000e+00 1.0000e+00
<rwgt>
<wgt id='SM'> +9.7322306e-06 </wgt>
<wgt id='morphing_basis_vector_1'> +9.5142669e-06 </wgt>
<wgt id='morphing_basis_vector_3'> +9.8853328e-06 </wgt>
<wgt id='morphing_basis_vector_4'> +9.6920669e-06 </wgt>
<wgt id='morphing_basis_vector_5'> +9.5768959e-06 </wgt>
</rwgt>
</event>
<event>
 7      1 +9.9549000e-06 4.35229900e+01 7.81860800e-03 1.59199700e-01
        2 -1    0    0  502    0 +0.0000000000e+00 +0.0000000000e+00 +4.2531390179e+01 4.2531390179e+01 0.0000000000e+00 0.0000e+00 -1.0000e+00
        1 -1    0    0  501    0 -0.0000000000e+00 -0.0000000000e+00 -3.8700412842e+02 3.8700412842e+02 0.0000000000e+00 0.0000e+00 -1.0000e+00
       25  2    1    2    0    0 +6.1009991799e+01 +1.5008597961e+01 -1.1317658855e+02 1.7994563881e+02 1.2499606241e+02 0.0000e+00 0.0000e+00
        2  1    1    2  501    0 -4.2114939441e+01 -4.8438288433e+00 -2.2233103364e+02 2.2633651787e+02 0.0000000000e+00 0.0000e+00 -1.0000e+00
        1  1    1    2  502    0 -1.8895052358e+01 -1.0164769118e+01 -8.9651160486e+00 2.3253361921e+01 0.0000000000e+00 0.0000e+00 -1.0000e+00
       22  1    3    3    0    0 +9.3920435507e+01 -7.8700299504e+00 -1.0079566202e+02 1.3799547478e+02 0.0000000000e+00 0.0000e+00 -1.0000e+00
       22  1    3    3    0    0 -3.2910443708e+01 +2.2878627911e+01 -1.2380926527e+01 4.1950164026e+01 0.0000000000e+00 0.0000e+00 -1.0000e+00
<rwgt>
<wgt id='SM'> +9.6319833e-06 </wgt>
<wgt id='morphing_basis_vector_1'> +9.4009560e-06 </wgt>
<wgt id='morphing_basis_vector_3'> +9.7257947e-06 </wgt>
<wgt id='morphing_basis_vector_4'> +9.6946414e-06 </wgt>
<wgt id='morphing_basis_vector_5'> +9.3588788e-06 </wgt>
</rwgt>
</event>
<event>
 7      1 +9.9549000e-06 1.94102800e+02 7.81860800e-03 1.26713700e-01
        2 -1    0    0  502    0 +0.0000000000e+00 +0.0000000000e+00 +2.2789622837e+03 2.2789622837e+03 0.0000000000e+00 0.0000e+00 -1.0000e+00
        1 -1    0    0  501    0 -0.0000000000e+00 -0.0000000000e+00 -1.2632678897e+03 1.2632678897e+03 0.0000000000e+00 0.0000e+00 -1.0000e+00
       25  2    1    2    0    0 +1.9780415987e+02 +9.5324304290e+01 +3.9901786237e+02 4.7228579679e+02 1.2500164281e+02 0.0000e+00 0.0000e+00
        2  1    1    2  501    0 -1.4769392117e+02 -1.2544418006e+02 -1.2185124784e+03 1.2338242973e+03 0.0000000000e+00 0.0000e+00 -1.0000e+00
        1  1    1    2  502    0 -5.0110238705e+01 +3.0119875770e+01 +1.8351890100e+03 1.8361200792e+03 0.0000000000e+00 0.0000e+00 -1.0000e+00
       22  1    3    3    0    0 +3.4547538772e+01 +4.2570469830e+01 +2.3926411898e+01 5.9818479779e+01 0.0000000000e+00 0.0000e+00 1.0000e+00
       22  1    3    3    0    0 +1.6325662110e+02 +5.2753834460e+01 +3.7509145047e+02 4.1246731701e+02 0.0000000000e+00 0.0000e+00 1.0000e+00
<rwgt>
<wgt id='SM'> +9.7464268e-06 </wgt>
<wgt id='morphing_basis_vector_1'> +8.8563493e-06 </wgt>
<wgt id='morphing_basis_vector_3'> +1.1007952e-05 </wgt>
<wgt id='morphing_basis_vector_4'> +8.7402289e-06 </wgt>
<wgt id='morphing_basis_vector_5'> +1.0031611e-05 </wgt>
</rwgt>
</event>
<event>
 7      1 +9.9549000e-06 1.21898100e+02 7.81860800e-03 1.30512500e-01
        2 -1    0    0  502    0 +0.0000000000e+00 +0.0000000000e+00 +2.2658292529e+03 2.2658292529e+03 0.0000000000e+00 0.0000e+00 -1.0000e+00
        1 -1    0    0  501    0 -0.0000000000e+00 -0.0000000000e+00 -2.0724409571e+02 2.0724409571e+02 0.0000000000e+00 0.0000e+00 -1.0000e+00
       25  2    1    2    0    0 +1.7859320983e+02 -2.9589148921e+01 +3.8563757195e+01 2.2334545295e+02 1.2499990261e+02 0.0000e+00 0.0000e+00
        2  1    1    2  501    0 -6.4340620785e+01 -9.7781351361e+00 -1.0377665169e+02 1.2249457476e+02 0.0000000000e+00 0.0000e+00 -1.0000e+00
        1  1    1    2  502    0 -1.1425258904e+02 +3.9367284057e+01 +2.1237980517e+03 2.1272333209e+03 0.0000000000e+00 0.0000e+00 -1.0000e+00
       22  1    3    3    0    0 -6.8869151974e+00 +2.5516060054e+01 +6.4638301335e+00 2.7208087430e+01 0.0000000000e+00 0.0000e+00 1.0000e+00
       22  1    3    3    0    0 +1.8548012502e+02 -5.5105208975e+01 +3.2099927062e+01 1.9613736552e+02 0.0000000000e+00 0.0000e+00 1.0000e+00
<rwgt>
<wgt id='SM'> +9.5736994e-06 </wgt>
<wgt id='morphing_basis_vector_1'> +8.8618479e-06 </wgt>
<wgt id='morphing_basis_vector_3'> +1.0389704e-05 </wgt>
<wgt id='morphing_basis_vector_4'> +9.0170496e-06 </wgt>
<wgt id='morphing_basis_vector_5'> +9.5240414e-06 </wgt>
</rwgt>
</event>
<event>
 7      1 +9.9549000e-06 1.47330100e+02 7.81860800e-03 1.35719500e-01
        2 -1    0    0  502    0 +0.0000000000e+00 +0.0000000000e+00 +7.3337742913e+02 7.3337742913e+02 0.0000000000e+00 0.0000e+00 -1.0000e+00
        1 -1    0    0  501    0 -0.0000000000e+00 -0.0000000000e+00 -1.9996816168e+02 1.9996816168e+02 0.0000000000e+00 0.0000e+00 -1.0000e+00
       25  2    1    2    0    0 -1.3124051788e+02 +4.8880930755e+01 +1.0563040289e+02 2.1539563810e+02 1.2499631984e+02 0.0000e+00 0.0000e+00
        2  1    1    2  501    0 +6.8061643245e+00 +3.3393655756e+01 -1.3319225950e+02 1.3748322846e+02 0.0000000000e+00 0.0000e+00 -1.0000e+00
        1  1    1    2  502    0 +1.2443435356e+02 -8.2274586511e+01 +5.6097112407e+02 5.8046672425e+02 0.0000000000e+00 0.0000e+00 -1.0000e+00
       22  1    3    3    0    0 +1.9900565437e+01 -1.1818787061e+01 +2.3504163006e+01 3.2987299237e+01 0.0000000000e+00 0.0000e+00 1.0000e+00
       22  1    3    3    0    0 -1.5114108332e+02 +6.0699717816e+01 +8.2126239880e+01 1.8240833886e+02 0.0000000000e+00 0.0000e+00 1.0000e+00
<rwgt>
<wgt id='SM'> +9.8903676e-06 </wgt>
<wgt id='morphing_basis_vector_1'> +9.4430324e-06 </wgt>
<wgt id='morphing_basis_vector_3'> +1.0540200e-05 </wgt>
<wgt id='morphing_basis_vector_4'> +9.3383358e-06 </wgt>
<wgt id='morphing_basis_vector_5'> +1.0082186e-05 </wgt>
</rwgt>
</event>
<event>
 7      1 +9.9549000e-06 1.72310000e+02 7.81860800e-03 1.26762200e-01
        2 -1    0    0  502    0 +0.0000000000e+00 +0.0000000000e+00 +1.9971711180e+03 1.9971711180e+03 0.0000000000e+00 0.0000e+00 -1.0000e+00
        1 -1    0    0  501    0 -0.0000000000e+00 -0.0000000000e+00 -1.4003501060e+03 1.4003501060e+03 0.0000000000e+00 0.0000e+00 -1.0000e+00
       25  2    1    2    0    0 -5.3225178381e+01 -9.5837591644e+01 -1.2397441303e+01 1.6672620031e+02 1.2500466285e+02 0.0000e+00 0.0000e+00
        2  1    1    2  501    0 -3.5103276172e+01 -5.5359018747e+01 -1.3059720748e+03 1.3076161215e+03 0.0000000000e+00 0.0000e+00 -1.0000e+00
        1  1    1    2  502    0 +8.8328454552e+01 +1.5119661039e+02 +1.9151905281e+03 1.9231789022e+03 0.0000000000e+00 0.0000e+00 -1.0000e+00
       22  1    3    3    0    0 -4.8513413300e+01 -1.2636780944e+02 -1.0898137443e+01 1.3579817353e+02 0.0000000000e+00 0.0000e+00 -1.0000e+00
       22  1    3    3    0    0 -4.7117650807e+00 +3.0530217798e+01 -1.4993038595e+00 3.0928026788e+01 0.0000000000e+00 0.0000e+00 -1.0000e+00
<rwgt>
<wgt id='SM'> +9.8026814e-06 </wgt>
<wgt id='morphing_basis_vector_1'> +9.6056413e-06 </wgt>
<wgt id='morphing_basis_vector_3'> +9.9812573e-06 </wgt>
<wgt id='morphing_basis_vector_4'> +9.7077998e-06 </wgt>
<wgt id='morphing_basis_vector_5'> +9.7251713e-06 </wgt>
</rwgt>
</event>
<event>
 7      1 +9.9549000e-06 1.14112800e+02 7.81860800e-03 1.25565600e-01
        2 -1    0    0  502    0 +0.0000000000e+00 +0.0000000000e+00 +2.7160750975e+02 2.7160750975e+02 0.0000000000e+00 0.0000e+00 -1.0000e+00
        1 -1    0    0  501    0 -0.0000000000e+00 -0.0000000000e+00 -1.0986754076e+03 1.0986754076e+03 0.0000000000e+00 0.0000e+00 -1.0000e+00
       25  2    1    2    0    0 +2.6092242916e+00 -8.6914250749e+01 -9.5968261105e+01 1.7997095557e+02 1.2497496819e+02 0.0000e+00 0.0000e+00
        2  1    1    2  501    0 -1.0923627171e+02 +3.3002472646e+01 -9.4148004472e+02 9.4837039223e+02 0.0000000000e+00 0.0000e+00 -1.0000e+00
        1  1    1    2  502    0 +1.0662704742e+02 +5.3911778103e+01 +2.1038040793e+02 2.4194156960e+02 0.0000000000e+00 0.0000e+00 -1.0000e+00
       22  1    3    3    0    0 -2.7738540117e+01 -1.0877012131e+02 -8.5588185666e+01 1.4115843377e+02 0.0000000000e+00 0.0000e+00 -1.0000e+00
       22  1    3    3    0    0 +3.0347764408e+01 +2.1855870561e+01 -1.0380075438e+01 3.8812521802e+01 0.0000000000e+00 0.0000e+00 -1.0000e+00
<rwgt>
<wgt id='SM'> +1.0306637e-05 </wgt>
<wgt id='morphing_basis_vector_1'> +1.0066537e-05 </wgt>
<wgt id='morphing_basis_vector_3'> +1.0980477e-05 </wgt>
<wgt id='morphing_basis_vector_4'> +9.5498702e-06 </wgt>
<wgt id='morphing_basis_vector_5'> +1.0926083e-05 </wgt>
</rwgt>
</event>
<event>
 7      1 +9.9549000e-06 1.86577600e+02 7.81860800e-03 1.21890600e-01
        2 -1    0    0  502    0 +0.0000000000e+00 +0.0000000000e+00 +3.8465186020e+02 3.8465186020e+02 0.0000000000e+00 0.0000e+00 -1.0000e+00
        1 -1    0    0  501    0 -0.0000000000e+00 -0.0000000000e+00 -4.3777752024e+02 4.3777752024e+02 0.0000000000e+00 0.0000e+00 -1.0000e+00
       25  2    1    2    0    0 -1.0522562115e+02 -5.7090150580e+01 +1.7236661516e+02 2.4426799855e+02 1.2499955382e+02 0.0000e+00 0.0000e+00
        2  1    1    2  501    0 +1.9508380183e+02 +1.5448112021e+01 -3.6081562317e+02 4.1046832743e+02 0.0000000000e+00 0.0000e+00 -1.0000e+00
        1  1    1    2  502    0 -8.9858180677e+01 +4.1642038560e+01 +1.3532334796e+02 1.6769305445e+02 0.0000000000e+00 0.0000e+00 -1.0000e+00
       22  1    3    3    0    0 -6.3670245054e+01 -1.5649233395e+01 +1.7359895266e+02 1.8556776384e+02 0.0000000000e+00 0.0000e+00 1.0000e+00
       22  1    3    3    0    0 -4.1555376099e+01 -4.1440917185e+01 -1.2323374979e+00 5.8700234715e+01 0.0000000000e+00 0.0000e+00 1.0000e+00
<rwgt>
<wgt id='SM'> +9.2397642e-06 </wgt>
<wgt id='morphing_basis_vector_1'> +9.3222320e-06 </wgt>
<wgt id='morphing_basis_vector_3'> +8.5641915e-06 </wgt>
<wgt id='morphing_basis_vector_4'> +1.0230346e-05 </wgt>
<wgt id='morphing_basis_vector_5'> +8.3364090e-06 </wgt>
</rwgt>
</event>
<event>
 7      1 +9.9549000e-06 4.34946400e+01 7.81860800e-03 1.58866600e-01
        2 -1    0    0  502    0 +0.0000000000e+00 +0.0000000000e+00 +7.5483099577e+02 7.5483099577e+02 0.0000000000e+00 0.0000e+00 -1.0000e+00
        1 -1    0    0  501    0 -0.0000000000e+00 -0.0000000000e+00 -1.7444696209e+02 1.7444696209e+02 0.0000000000e+00 0.0000e+00 -1.0000e+00
       25  2    1    2    0    0 -2.5734369168e+01 -1.9423870583e+01 -1.0798528698e+02 1.6830196389e+02 1.2500073736e+02 0.0000e+00 0.0000e+00
        2  1    1    2  501    0 +8.0314843892e+00 -2.0384735462e+01 -3.2278678030e+01 3.9012244702e+01 0.0000000000e+00 0.0000e+00 -1.0000e+00
        1  1    1    2  502    0 +1.7702884779e+01 +3.9808606045e+01 +7.2064799869e+02 7.2196374927e+02 0.0000000000e+00 0.0000e+00 -1.0000e+00
       22  1    3    3    0    0 -6.5579666599e+01 -4.2198918149e+01 -8.9801673294e+01 1.1893604118e+02 0.0000000000e+00 0.0000e+00 -1.0000e+00
       22  1    3    3    0    0 +3.9845297431e+01 +2.2775047566e+01 -1.8183613689e+01 4.9365922718e+01 0.0000000000e+00 0.0000e+00 -1.0000e+00
<rwgt>
<wgt id='SM'> +9.8665750e-06 </wgt>
<wgt id='morphing_basis_vector_1'> +9.8808645e-06 </wgt>
<wgt id='morphing_basis_vector_3'> +9.7724103e-06 </wgt>
<wgt id='morphing_basis_vector_4'> +9.9939660e-06 </wgt>
<wgt id='morphing_basis_vector_5'> +9.7437671e-06 </wgt>
</rwgt>
</event>
<event>
 7      1 +9.9549000e-06 1.15118600e+02 7.81860800e-03 1.28379300e-01
        2 -1    0    0  502    0 +0.0000000000e+00 +0.0000000000e+00 +1.8872419390e+03 1.8872419390e+03 0.0000000000e+00 0.0000e+00 -1.0000e+00
        1 -1    0    0  501    0 -0.0000000000e+00 -0.0000000000e+00 -4.3034160471e+03 4.3034160471e+03 0.0000000000e+00 0.0000e+00 -1.0000e+00
       25  2    1    2    0    0 +1.2456650466e+01 -9.3255653517e+01 -7.8961108614e+02 8.0496113672e+02 1.2499991688e+02 0.0000e+00 0.0000e+00
        2  1    1    2  501    0 +7.1444451723e+01 +9.7969631705e+01 -3.5041415368e+03 3.5062387637e+03 0.0000000000e+00 0.0000e+00 -1.0000e+00
        1  1    1    2  502    0 -8.3901102189e+01 -4.7139781876e+00 +1.8775785148e+03 1.8794580856e+03 0.0000000000e+00 0.0000e+00 -1.0000e+00
       22  1    3    3    0    0 +4.5692037716e+00 -7.2501436737e+01 -1.6898715878e+02 1.8394019622e+02 0.0000000000e+00 0.0000e+00 -1.0000e+00
       22  1    3    3    0    0 +7.8874466940e+00 -2.0754216780e+01 -6.2062392736e+02 6.2102094050e+02 0.0000000000e+00 0.0000e+00 -1.0000e+00
<rwgt>
<wgt id='SM'> +9.4584368e-06 </wgt>
<wgt id='morphing_basis_vector_1'> +9.3680339e-06 </wgt>
<wgt id='morphing_basis_vector_3'> +9.1942263e-06 </wgt>
<wgt id='morphing_basis_vector_4'> +9.9315584e-06 </wgt>
<wgt id='morphing_basis_vector_5'> +8.8825899e-06 </wgt>
</rwgt>
</event>
<event>
 7      1 +9.9549000e-06 6.36371900e+01 7.81860800e-03 1.39525100e-01
        2 -1    0    0  502    0 +0.0000000000e+00 +0.0000000000e+00 +2.9704247587e+02 2.9704247587e+02 0.0000000000e+00 0.0000e+00 -1.0000e+00
        1 -1    0    0  501    0 -0.0000000000e+00 -0.0000000000e+00 -5.9961030365e+02 5.9961030365e+02 0.0000000000e+00 0.0000e+00 -1.0000e+00
       25  2    1    2    0    0 -8.4188533068e-01 +1.0319414747e+02 +4.8617659266e+01 1.6922682642e+02 1.2499720455e+02 0.0000e+00 0.0000e+00
        2  1    1    2  501    0 +3.0042597250e+01 -4.9314305162e+01 -5.3271258341e+02 5.3583314088e+02 0.0000000000e+00 0.0000e+00 -1.0000e+00
        1  1    1    2  502    0 -2.9200711920e+01 -5.3879842303e+01 +1.8152709636e+02 1.9159281222e+02 0.0000000000e+00 0.0000e+00 -1.0000e+00
       22  1    3    3    0    0 -4.8753544521e+01 +4.1167419950e+01 -1.8069822199e+01 6.6318798564e+01 0.0000000000e+00 0.0000e+00 -1.0000e+00
       22  1    3    3    0    0 +4.7911659190e+01 +6.2026727515e+01 +6.6687481465e+01 1.0290802785e+02 0.0000000000e+00 0.0000e+00 -1.0000e+00
<rwgt>
<wgt id='SM'> +9.9270492e-06 </wgt>
<wgt id='morphing_basis_vector_1'> +9.6566956e-06 </wgt>
<wgt id='morphing_basis_vector_3'> +1.0324541e-05 </wgt>
<wgt id='morphing_basis_vector_4'> +9.5799060e-06 </wgt>
<wgt id='morphing_basis_vector_5'> +1.0056764e-05 </wgt>
</rwgt>
</event>
<event>
 7      1 +9.9549000e-06 7.88169900e+01 7.81860800e-03 1.34371100e-01
        2 -1    0    0  502    0 +0.0000000000e+00 +0.0000000000e+00 +1.9287629364e+03 1.9287629364e+03 0.0000000000e+00 0.0000e+00 -1.0000e+00
        1 -1    0    0  501    0 -0.0000000000e+00 -0.0000000000e+00 -2.3381666743e+02 2.3381666743e+02 0.0000000000e+00 0.0000e+00 -1.0000e+00
       25  2    1    2    0    0 +4.0347018151e+00 +2.7451619782e+00 +2.9003278819e+01 1.2841203344e+02 1.2499858166e+02 0.0000e+00 0.0000e+00
        2  1    1    2  501    0 -5.1089381413e+01 +6.0484380952e+01 -1.7471800413e+02 1.9181987957e+02 0.0000000000e+00 0.0000e+00 -1.0000e+00
        1  1    1    2  502    0 +4.7054679597e+01 -6.3229542931e+01 +1.8406609943e+03 1.8423476908e+03 0.0000000000e+00 0.0000e+00 -1.0000e+00
       22  1    3    3    0    0 +5.2814911512e+01 +1.6920886185e+01 -1.8898222836e+01 5.8590733855e+01 0.0000000000e+00 0.0000e+00 1.0000e+00
       22  1    3    3    0    0 -4.8780209697e+01 -1.4175724207e+01 +4.7901501655e+01 6.9821299585e+01 0.0000000000e+00 0.0000e+00 1.0000e+00
<rwgt>
<wgt id='SM'> +9.9368905e-06 </wgt>
<wgt id='morphing_basis_vector_1'> +9.9414141e-06 </wgt>
<wgt id='morphing_basis_vector_3'> +9.9152111e-06 </wgt>
<wgt id='morphing_basis_vector_4'> +9.9651901e-06 </wgt>
<wgt id='morphing_basis_vector_5'> +9.9108057e-06 </wgt>
</rwgt>
</event>
<event>
 7      1 +9.9549000e-06 2.62673500e+02 7.81860800e-03 1.26937100e-01
        2 -1    0    0  502    0 +0.0000000000e+00 +0.0000000000e+00 +4.5395307658e+02 4.5395307658e+02 0.0000000000e+00 0.0000e+00 -1.0000e+00
        1 -1    0    0  501    0 -0.0000000000e+00 -0.0000000000e+00 -2.6524510324e+03 2.6524510324e+03 0.0000000000e+00 0.0000e+00 -1.0000e+00
       25  2    1    2    0    0 -8.7436131586e+01 +2.1455273439e+02 -6.0587876131e+02 6.6060008145e+02 1.2500176504e+02 0.0000e+00 0.0000e+00
        2  1    1    2  501    0 +9.4876890192e+01 -2.5616995283e+02 -2.0088967135e+03 2.0273851816e+03 0.0000000000e+00 0.0000e+00 -1.0000e+00
        1  1    1    2  502    0 -7.4407586065e+00 +4.1617218441e+01 +4.1627751903e+02 4.1841884590e+02 0.0000000000e+00 0.0000e+00 -1.0000e+00
       22  1    3    3    0    0 -9.7837269851e+01 +9.3733997458e+01 -2.4608321298e+02 2.8091838915e+02 0.0000000000e+00 0.0000e+00 1.0000e+00
       22  1    3    3    0    0 +1.0401138265e+01 +1.2081873693e+02 -3.5979554832e+02 3.7968169230e+02 0.0000000000e+00 0.0000e+00 1.0000e+00
<rwgt>
<wgt id='SM'> +8.9218900e-06 </wgt>
<wgt id='morphing_basis_vector_1'> +7.9258885e-06 </wgt>
<wgt id='morphing_basis_vector_3'> +9.6766195e-06 </wgt>
<wgt id='morphing_basis_vector_4'> +8.6975241e-06 </wgt>
<wgt id='morphing_basis_vector_5'> +8.2468157e-06 </wgt>
</rwgt>
</event>
<event>
 7      1 +9.9549000e-06 1.03479400e+02 7.81860800e-03 1.30002600e-01
        2 -1    0    0  502    0 +0.0000000000e+00 +0.0000000000e+00 +5.6919088157e+02 5.6919088157e+02 0.0000000000e+00 0.0000e+00 -1.0000e+00
        1 -1    0    0  501    0 -0.0000000000e+00 -0.0000000000e+00 -5.1520062707e+02 5.1520062707e+02 0.0000000000e+00 0.0000e+00 -1.0000e+00
       25  2    1    2    0    0 +8.1479546404e+01 +4.3977866659e+01 -1.6608676989e+02 2.2755916614e+02 1.2500155888e+02 0.0000e+00 0.0000e+00
        2  1    1    2  501    0 -5.6162919439e+01 +5.7443726143e+01 -3.0810442167e+02 3.1840601415e+02 0.0000000000e+00 0.0000e+00 -1.0000e+00
        1  1    1    2  502    0 -2.5316626965e+01 -1.0142159280e+02 +5.2818144607e+02 5.3842632835e+02 0.0000000000e+00 0.0000e+00 -1.0000e+00
       22  1    3    3    0    0 -1.2664628985e+01 +2.1219710244e+01 -1.1583801211e+02 1.1844456079e+02 0.0000000000e+00 0.0000e+00 1.0000e+00
       22  1    3    3    0    0 +9.4144175389e+01 +2.2758156414e+01 -5.0248757781e+01 1.0911460535e+02 0.0000000000e+00 0.0000e+00 1.0000e+00
<rwgt>
<wgt id='SM'> +9.4309049e-06 </wgt>
<wgt id='morphing_basis_vector_1'> +9.3604938e-06 </wgt>
<wgt id='morphing_basis_vector_3'> +9.1151456e-06 </wgt>
<wgt id='morphing_basis_vector_4'> +9.9659659e-06 </wgt>
<wgt id='morphing_basis_vector_5'> +8.8103640e-06 </wgt>
</rwgt>
</event>
<event>
 7      1 +9.9549000e-06 1.11298300e+02 7.81860800e-03 1.26931300e-01
        2 -1    0    0  502    0 +0.0000000000e+00 +0.0000000000e+00 +1.3525954250e+03 1.3525954250e+03 0.0000000000e+00 0.0000e+00 -1.0000e+00
        1 -1    0    0  501    0 -0.0000000000e+00 -0.0000000000e+00 -5.4597306789e+02 5.4597306789e+02 0.0000000000e+00 0.0000e+00 -1.0000e+00
       25  2    1    2    0    0 +7.8044105211e+01 +4.1972744864e+00 -1.3232190864e+02 1.9809510572e+02 1.2499633568e+02 0.0000e+00 0.0000e+00
        2  1    1    2  501    0 -5.3171445341e+01 +1.0428623861e+02 -3.6934865958e+02 3.8745484188e+02 0.0000000000e+00 0.0000e+00 -1.0000e+00
        1  1    1    2  502    0 -2.4872659870e+01 -1.0848351310e+02 +1.3082929253e+03 1.3130185453e+03 0.0000000000e+00 0.0000e+00 -1.0000e+00
       22  1    3    3    0    0 -2.5016663560e+01 -2.0208558192e+01 -6.5216190106e+01 7.2714308990e+01 0.0000000000e+00 0.0000e+00 1.0000e+00
       22  1    3    3    0    0 +1.0306076877e+02 +2.4405832678e+01 -6.7105718531e+01 1.2538079673e+02 0.0000000000e+00 0.0000e+00 1.0000e+00
<rwgt>
<wgt id='SM'> +9.4390166e-06 </wgt>
<wgt id='morphing_basis_vector_1'> +9.4087385e-06 </wgt>
<wgt id='morphing_basis_vector_3'> +9.0692723e-06 </wgt>
<wgt id='morphing_basis_vector_4'> +1.0022865e-05 </wgt>
<wgt id='morphing_basis_vector_5'> +8.8051220e-06 </wgt>
</rwgt>
</event>
<event>
 7      1 +9.9549000e-06 6.67473100e+01 7.81860800e-03 1.42237200e-01
        2 -1    0    0  502    0 +0.0000000000e+00 +0.0000000000e+00 +4.9750909562e+02 4.9750909562e+02 0.0000000000e+00 0.0000e+00 -1.0000e+00
        1 -1    0    0  501    0 -0.0000000000e+00 -0.0000000000e+00 -6.6762969547e+02 6.6762969547e+02 0.0000000000e+00 0.0000e+00 -1.0000e+00
       25  2    1    2    0    0 +6.9588009294e+01 +7.7967409009e+01 +9.7147905459e+01 1.8968994171e+02 1.2499260196e+02 0.0000e+00 0.0000e+00
        2  1    1    2  501    0 -1.6443248483e+01 -4.1389649067e+01 -6.1761143610e+02 6.1921512375e+02 0.0000000000e+00 0.0000e+00 -1.0000e+00
        1  1    1    2  502    0 -5.3144760811e+01 -3.6577759943e+01 +3.5034293079e+02 3.5623372564e+02 0.0000000000e+00 0.0000e+00 -1.0000e+00
       22  1    3    3    0    0 -1.7197571246e+01 -2.2057163121e+01 +3.0691948924e+01 4.1524337809e+01 0.0000000000e+00 0.0000e+00 1.0000e+00
       22  1    3    3    0    0 +8.6785580541e+01 +1.0002457213e+02 +6.6455956535e+01 1.4816560390e+02 0.0000000000e+00 0.0000e+00 1.0000e+00
<rwgt>
<wgt id='SM'> +9.8425491e-06 </wgt>
<wgt id='morphing_basis_vector_1'> +9.6033871e-06 </wgt>
<wgt id='morphing_basis_vector_3'> +1.0120116e-05 </wgt>
<wgt id='morphing_basis_vector_4'> +9.6402941e-06 </wgt>
<wgt id='morphing_basis_vector_5'> +9.8425245e-06 </wgt>
</rwgt>
</event>
<event>
 7      1 +9.9549000e-06 7.70558200e+01 7.81860800e-03 1.44977700e-01
        2 -1    0    0  502    0 +0.0000000000e+00 +0.0000000000e+00 +9.1277729172e+02 9.1277729172e+02 0.0000000000e+00 0.0000e+00 -1.0000e+00
        1 -1    0    0  501    0 -0.0000000000e+00 -0.0000000000e+00 -1.0883521377e+03 1.0883521377e+03 0.0000000000e+00 0.0000e+00 -1.0000e+00
       25  2    1    2    0    0 +1.7590318817e+01 +4.9438462453e+01 +9.4280726365e+01 1.6512601915e+02 1.2499666376e+02 0.0000e+00 0.0000e+00
        2  1    1    2  501    0 -4.6420168299e+01 -6.1873534551e+01 -1.0511931753e+03 1.0540352262e+03 0.0000000000e+00 0.0000e+00 -1.0000e+00
        1  1    1    2  502    0 +2.8829849482e+01 +1.2435072099e+01 +7.8133760290e+02 7.8196818410e+02 0.0000000000e+00 0.0000e+00 -1.0000e+00
       22  1    3    3    0    0 -1.3641283032e+01 -3.7398584818e+01 +4.6482411525e+01 6.1199291910e+01 0.0000000000e+00 0.0000e+00 1.0000e+00
       22  1    3    3    0    0 +3.1231601849e+01 +8.6837047271e+01 +4.7798314841e+01 1.0392672724e+02 0.0000000000e+00 0.0000e+00 1.0000e+00
<rwgt>
<wgt id='SM'> +9.8626057e-06 </wgt>
<wgt id='morphing_basis_vector_1'> +9.8313832e-06 </wgt>
<wgt id='morphing_basis_vector_3'> +9.8343822e-06 </wgt>
<wgt id='morphing_basis_vector_4'> +9.9304815e-06 </wgt>
<wgt id='morphing_basis_vector_5'> +9.7615956e-06 </wgt>
</rwgt>
</event>
<event>
 7      1 +9.9549000e-06 1.76353200e+02 7.81860800e-03 1.30684400e-01
        2 -1    0    0  502    0 +0.0000000000e+00 +0.0000000000e+00 +6.1252613384e+02 6.1252613384e+02 0.0000000000e+00 0.0000e+00 -1.0000e+00
        1 -1    0    0  501    0 -0.0000000000e+00 -0.0000000000e+00 -4.8825958179e+02 4.8825958179e+02 0.0000000000e+00 0.0000e+00 -1.0000e+00
       25  2    1    2    0    0 +1.4554839201e+02 -1.3354186957e+02 -2.7791050453e+02 3.6314772301e+02 1.2499701938e+02 0.0000e+00 0.0000e+00
        2  1    1    2  501    0 -1.0346713609e+02 +1.1975058337e+02 -1.2927328256e+02 2.0434586380e+02 0.0000000000e+00 0.0000e+00 -1.0000e+00
        1  1    1    2  502    0 -4.2081255923e+01 +1.3791286208e+01 +5.3145033915e+02 5.3329212881e+02 0.0000000000e+00 0.0000e+00 -1.0000e+00
       22  1    3    3    0    0 +7.2603462105e+01 -1.4266103953e+02 -1.9681168882e+02 2.5368932923e+02 0.0000000000e+00 0.0000e+00 -1.0000e+00
       22  1    3    3    0    0 +7.2944929905e+01 +9.1191699551e+00 -8.1098815710e+01 1.0945839378e+02 0.0000000000e+00 0.0000e+00 -1.0000e+00
<rwgt>
<wgt id='SM'> +8.3964828e-06 </wgt>
<wgt id='morphing_basis_vector_1'> +7.1261340e-06 </wgt>
<wgt id='morphing_basis_vector_3'> +9.2124663e-06 </wgt>
<wgt id='morphing_basis_vector_4'> +8.3470996e-06 </wgt>
<wgt id='morphing_basis_vector_5'> +7.2941347e-06 </wgt>
</rwgt>
</event>
<event>
 7      1 +9.9549000e-06 7.26978000e+01 7.81860800e-03 1.40115300e-01
        2 -1    0    0  502    0 +0.0000000000e+00 +0.0000000000e+00 +1.3335593347e+03 1.3335593347e+03 0.0000000000e+00 0.0000e+00 -1.0000e+00
        1 -1    0    0  501    0 -0.0000000000e+00 -0.0000000000e+00 -3.5589770044e+02 3.5589770044e+02 0.0000000000e+00 0.0000e+00 -1.0000e+00
       25  2    1    2    0    0 -9.0919472307e+01 +7.3896962045e+01 -1.8985525790e+02 2.5572896492e+02 1.2500069242e+02 0.0000e+00 0.0000e+00
        2  1    1    2  501    0 +2.6754865858e+01 -4.0133173169e+01 -1.2768847954e+02 1.3649484329e+02 0.0000000000e+00 0.0000e+00 -1.0000e+00
        1  1    1    2  502    0 +6.4164606450e+01 -3.3763788876e+01 +1.2952053717e+03 1.2972332269e+03 0.0000000000e+00 0.0000e+00 -1.0000e+00
       22  1    3    3    0    0 -8.5500126696e+01 +1.0355482701e+02 -1.2181576720e+02 1.8130900419e+02 0.0000000000e+00 0.0000e+00 -1.0000e+00
       22  1    3    3    0    0 -5.4193456113e+00 -2.9657864965e+01 -6.8039490696e+01 7.4419960732e+01 0.0000000000e+00 0.0000e+00 -1.0000e+00
<rwgt>
<wgt id='SM'> +9.5113102e-06 </wgt>
<wgt id='morphing_basis_vector_1'> +9.1829581e-06 </wgt>
<wgt id='morphing_basis_vector_3'> +9.6573850e-06 </wgt>
<wgt id='morphing_basis_vector_4'> +9.5774149e-06 </wgt>
<wgt id='morphing_basis_vector_5'> +9.1440997e-06 </wgt>
</rwgt>
</event>
<event>
 7      1 +9.9549000e-06 6.80392400e+01 7.81860800e-03 1.48309200e-01
        2 -1    0    0  502    0 +0.0000000000e+00 +0.0000000000e+00 +1.2526430213e+03 1.2526430213e+03 0.0000000000e+00 0.0000e+00 -1.0000e+00
        1 -1    0    0  501    0 -0.0000000000e+00 -0.0000000000e+00 -7.1370800222e+01 7.1370800222e+01 0.0000000000e+00 0.0000e+00 -1.0000e+00
       25  2    1    2    0    0 +9.5282855409e+00 +4.9962427520e+01 +6.2598066503e+02 6.4036198831e+02 1.2499860278e+02 0.0000e+00 0.0000e+00
        2  1    1    2  501    0 -1.5043321265e+01 +2.3586270590e+01 -5.8816496396e+01 6.5130591302e+01 0.0000000000e+00 0.0000e+00 -1.0000e+00
        1  1    1    2  502    0 +5.5150357243e+00 -7.3548698110e+01 +6.1410805242e+02 6.1852124189e+02 0.0000000000e+00 0.0000e+00 -1.0000e+00
       22  1    3    3    0    0 +4.6373935197e+01 -2.0564190719e+01 +1.6699890941e+02 1.7453384643e+02 0.0000000000e+00 0.0000e+00 1.0000e+00
       22  1    3    3    0    0 -3.6845649656e+01 +7.0526618239e+01 +4.5898175562e+02 4.6582814188e+02 0.0000000000e+00 0.0000e+00 1.0000e+00
<rwgt>
<wgt id='SM'> +9.8070623e-06 </wgt>
<wgt id='morphing_basis_vector_1'> +9.7276217e-06 </wgt>
<wgt id='morphing_basis_vector_3'> +9.8073276e-06 </wgt>
<wgt id='morphing_basis_vector_4'> +9.8737639e-06 </wgt>
<wgt id='morphing_basis_vector_5'> +9.6638932e-06 </wgt>
</rwgt>
</event>
</LesHouchesEvents>
