<event>
 7    1  0.7961130E-006  0.6231928E+02  0.7818608E-02  0.1518838E+00
          2   -1    0    0  502    0  0.00000000000E+00  0.00000000000E+00  0.81462947089E+03  0.81462947089E+03  0.00000000000E+00 0. -1.
          1   -1    0    0  501    0 -0.00000000000E+00 -0.00000000000E+00 -0.39156118841E+03  0.39156118841E+03  0.00000000000E+00 0. -1.
         25    2    1    2    0    0  0.66422567418E+02  0.14654059307E+01 -0.77599826023E+02  0.16143716913E+03  0.12500448672E+03 0.  0.
          2    1    1    2  501    0 -0.57637666829E+02 -0.23690517694E+02 -0.26828592730E+03  0.27542817585E+03  0.00000000000E+00 0. -1.
          1    1    1    2  502    0 -0.87849005899E+01  0.22225111764E+02  0.76895403580E+03  0.76932531432E+03  0.00000000000E+00 0. -1.
         22    1    3    3    0    0 -0.28017607138E+01  0.22920958752E+02 -0.85473353528E+02  0.88537643838E+02  0.00000000000E+00 0. -1.
         22    1    3    3    0    0  0.69224328132E+02 -0.21455552821E+02  0.78735275043E+01  0.72899525290E+02  0.00000000000E+00 0. -1.
</event>
<event>
 7    1  0.7961130E-006  0.1304374E+03  0.7818608E-02  0.1319621E+00
          2   -1    0    0  502    0  0.00000000000E+00  0.00000000000E+00  0.53841052512E+03  0.53841052512E+03  0.00000000000E+00 0. -1.
          1   -1    0    0  501    0 -0.00000000000E+00 -0.00000000000E+00 -0.37767351833E+03  0.37767351833E+03  0.00000000000E+00 0. -1.
         25    2    1    2    0    0 -0.51173191178E+01 -0.10548611744E+03  0.26875399268E+03  0.31465355166E+03  0.12499856426E+03 0.  0.
          2    1    1    2  501    0  0.56727220723E+02  0.11899473182E+03 -0.33933456551E+03  0.36404075476E+03  0.00000000000E+00 0. -1.
          1    1    1    2  502    0 -0.51609901605E+02 -0.13508614379E+02  0.23131757963E+03  0.23738973704E+03  0.00000000000E+00 0. -1.
         22    1    3    3    0    0 -0.40868971905E+02 -0.28355341297E+01  0.14141922472E+03  0.14723352281E+03  0.00000000000E+00 0.  1.
         22    1    3    3    0    0  0.35751652787E+02 -0.10265058331E+03  0.12733476795E+03  0.16742002885E+03  0.00000000000E+00 0.  1.
</event>
<event>
 7    1  0.7961130E-006  0.3777087E+02  0.7818608E-02  0.1528687E+00
          2   -1    0    0  502    0  0.00000000000E+00  0.00000000000E+00  0.86418359210E+03  0.86418359210E+03  0.00000000000E+00 0. -1.
          1   -1    0    0  501    0 -0.00000000000E+00 -0.00000000000E+00 -0.73730327305E+02  0.73730327305E+02  0.00000000000E+00 0. -1.
         25    2    1    2    0    0 -0.17192697731E+02  0.19031773949E+02  0.12021247030E+03  0.17530872143E+03  0.12499725005E+03 0.  0.
          2    1    1    2  501    0 -0.15564039773E+02 -0.36084848792E+02 -0.37252391065E+02  0.54148834581E+02  0.00000000000E+00 0. -1.
          1    1    1    2  502    0  0.32756737504E+02  0.17053074843E+02  0.70749318556E+03  0.70845636339E+03  0.00000000000E+00 0. -1.
         22    1    3    3    0    0 -0.53233686719E+02  0.51525350971E+02  0.47895165532E+02  0.88219238694E+02  0.00000000000E+00 0.  1.
         22    1    3    3    0    0  0.36040988988E+02 -0.32493577022E+02  0.72317304767E+02  0.87089482739E+02  0.00000000000E+00 0.  1.
</event>
<event>
 7    1  0.7961130E-006  0.5542078E+02  0.7818608E-02  0.1430500E+00
          2   -1    0    0  502    0  0.00000000000E+00  0.00000000000E+00  0.57936481169E+03  0.57936481169E+03  0.00000000000E+00 0. -1.
          1   -1    0    0  501    0 -0.00000000000E+00 -0.00000000000E+00 -0.98822614724E+03  0.98822614724E+03  0.00000000000E+00 0. -1.
         25    2    1    2    0    0 -0.47023026858E+02  0.40026448092E+02  0.20260206862E+02  0.14088612048E+03  0.12500056544E+03 0.  0.
          2    1    1    2  501    0 -0.79423967114E+01 -0.49787740591E+02 -0.92566302422E+03  0.92703502371E+03  0.00000000000E+00 0. -1.
          1    1    1    2  502    0  0.54965423569E+02  0.97612924990E+01  0.49654148180E+03  0.49966981475E+03  0.00000000000E+00 0. -1.
         22    1    3    3    0    0  0.39714966632E+02  0.19466692622E+02 -0.12424965951E+02  0.45941380858E+02  0.00000000000E+00 0.  1.
         22    1    3    3    0    0 -0.86737993490E+02  0.20559755469E+02  0.32685172813E+02  0.94944739620E+02  0.00000000000E+00 0.  1.
</event>
<event>
 7    1  0.7961130E-006  0.8218947E+02  0.7818608E-02  0.1368404E+00
          2   -1    0    0  502    0  0.00000000000E+00  0.00000000000E+00  0.16865325232E+03  0.16865325232E+03  0.00000000000E+00 0. -1.
          1   -1    0    0  501    0 -0.00000000000E+00 -0.00000000000E+00 -0.28658167415E+03  0.28658167415E+03  0.00000000000E+00 0. -1.
         25    2    1    2    0    0 -0.33026649389E+00 -0.33529623563E+02 -0.85019352140E+02  0.15484640825E+03  0.12499910070E+03 0.  0.
          2    1    1    2  501    0 -0.15201274161E+02 -0.53504152993E+02 -0.14635144288E+03  0.15656474046E+03  0.00000000000E+00 0. -1.
          1    1    1    2  502    0  0.15531540655E+02  0.87033776556E+02  0.11344237319E+03  0.14382377777E+03  0.00000000000E+00 0. -1.
         22    1    3    3    0    0  0.52361112306E+02 -0.23892858646E+02 -0.39644929969E+01  0.57691177670E+02  0.00000000000E+00 0. -1.
         22    1    3    3    0    0 -0.52691378800E+02 -0.96367649169E+01 -0.81054859143E+02  0.97155230577E+02  0.00000000000E+00 0. -1.
</event>
<event>
 7    1  0.7961130E-006  0.9543492E+02  0.7818608E-02  0.1307168E+00
          2   -1    0    0  502    0  0.00000000000E+00  0.00000000000E+00  0.10358361461E+03  0.10358361461E+03  0.00000000000E+00 0. -1.
          1   -1    0    0  501    0 -0.00000000000E+00 -0.00000000000E+00 -0.40131994954E+03  0.40131994954E+03  0.00000000000E+00 0. -1.
         25    2    1    2    0    0  0.52832578208E+02  0.17768409212E+02 -0.16391767427E+03  0.21354533971E+03  0.12500244194E+03 0.  0.
          2    1    1    2  501    0 -0.13294895463E+03 -0.33203322703E+02 -0.15517511370E+03  0.20701980844E+03  0.00000000000E+00 0. -1.
          1    1    1    2  502    0  0.80116376425E+02  0.15434913491E+02  0.21356453029E+02  0.84338415991E+02  0.00000000000E+00 0. -1.
         22    1    3    3    0    0  0.42931925892E+02  0.39613427770E+02 -0.11859392759E+02  0.59607206923E+02  0.00000000000E+00 0.  1.
         22    1    3    3    0    0  0.99006523154E+01 -0.21845018558E+02 -0.15205828151E+03  0.15393813279E+03  0.00000000000E+00 0.  1.
</event>
<event>
 7    1  0.7961130E-006  0.9221150E+02  0.7818608E-02  0.1386352E+00
          2   -1    0    0  502    0  0.00000000000E+00  0.00000000000E+00  0.87158488866E+02  0.87158488866E+02  0.00000000000E+00 0. -1.
          1   -1    0    0  501    0 -0.00000000000E+00 -0.00000000000E+00 -0.55402471518E+03  0.55402471518E+03  0.00000000000E+00 0. -1.
         25    2    1    2    0    0  0.50254329855E+02 -0.10547332363E+03 -0.16847892059E+03  0.24012492489E+03  0.12499885281E+03 0.  0.
          2    1    1    2  501    0 -0.38912986727E+02  0.17824420411E+02 -0.30908426087E+03  0.31203366937E+03  0.00000000000E+00 0. -1.
          1    1    1    2  502    0 -0.11341343128E+02  0.87648903221E+02  0.10696955141E+02  0.89024609794E+02  0.00000000000E+00 0. -1.
         22    1    3    3    0    0 -0.45528514296E+01  0.25258661086E+02 -0.10123915419E+02  0.27590253341E+02  0.00000000000E+00 0. -1.
         22    1    3    3    0    0  0.54807181285E+02 -0.13073198472E+03 -0.15835500517E+03  0.21253467155E+03  0.00000000000E+00 0. -1.
</event>
<event>
 7    1  0.7961130E-006  0.8790385E+02  0.7818608E-02  0.1354501E+00
          2   -1    0    0  502    0  0.00000000000E+00  0.00000000000E+00  0.50446599829E+03  0.50446599829E+03  0.00000000000E+00 0. -1.
          1   -1    0    0  501    0 -0.00000000000E+00 -0.00000000000E+00 -0.20860668718E+03  0.20860668718E+03  0.00000000000E+00 0. -1.
         25    2    1    2    0    0 -0.35353318022E+02  0.27380443003E+02  0.63022217032E+02  0.14695392458E+03  0.12499644137E+03 0.  0.
          2    1    1    2  501    0  0.92685092768E+02 -0.16075411664E+02 -0.15097533061E+03  0.17788337678E+03  0.00000000000E+00 0. -1.
          1    1    1    2  502    0 -0.57331774747E+02 -0.11305031339E+02  0.38381242470E+03  0.38823538412E+03  0.00000000000E+00 0. -1.
         22    1    3    3    0    0 -0.65983712940E+02  0.32122729365E+00  0.79122854312E+02  0.10302611142E+03  0.00000000000E+00 0.  1.
         22    1    3    3    0    0  0.30630394918E+02  0.27059215709E+02 -0.16100637280E+02  0.43927813154E+02  0.00000000000E+00 0.  1.
</event>
<event>
 7    1  0.7961130E-006  0.5006158E+02  0.7818608E-02  0.1512548E+00
          2   -1    0    0  502    0  0.00000000000E+00  0.00000000000E+00  0.85335203300E+03  0.85335203300E+03  0.00000000000E+00 0. -1.
          1   -1    0    0  501    0 -0.00000000000E+00 -0.00000000000E+00 -0.49883228627E+02  0.49883228627E+02  0.00000000000E+00 0. -1.
         25    2    1    2    0    0  0.27419624238E+02  0.23973775132E+02  0.24056048373E+03  0.27353311548E+03  0.12499776495E+03 0.  0.
          2    1    1    2  501    0 -0.51480184118E+02 -0.43704937380E+01 -0.12743925853E+02  0.53213891218E+02  0.00000000000E+00 0. -1.
          1    1    1    2  502    0  0.24060559880E+02 -0.19603281394E+02  0.57565224649E+03  0.57648825493E+03  0.00000000000E+00 0. -1.
         22    1    3    3    0    0  0.18735651749E+02 -0.92031649092E+01  0.23824793407E+03  0.23916061754E+03  0.00000000000E+00 0.  1.
         22    1    3    3    0    0  0.86839724897E+01  0.33176940041E+02  0.23125496599E+01  0.34372497940E+02  0.00000000000E+00 0.  1.
</event>
<event>
 7    1  0.7961130E-006  0.7633407E+02  0.7818608E-02  0.1358821E+00
          2   -1    0    0  502    0  0.00000000000E+00  0.00000000000E+00  0.19866268829E+04  0.19866268829E+04  0.00000000000E+00 0. -1.
          1   -1    0    0  501    0 -0.00000000000E+00 -0.00000000000E+00 -0.31805412308E+03  0.31805412308E+03  0.00000000000E+00 0. -1.
         25    2    1    2    0    0 -0.15662836171E+02 -0.58393924346E+01  0.32003829611E+03  0.34398956217E+03  0.12499953986E+03 0.  0.
          2    1    1    2  501    0 -0.64065587399E+02 -0.10260919931E+02 -0.30162710235E+03  0.30852648968E+03  0.00000000000E+00 0. -1.
          1    1    1    2  502    0  0.79728423570E+02  0.16100312365E+02  0.16501615661E+04  0.16521649542E+04  0.00000000000E+00 0. -1.
         22    1    3    3    0    0  0.32992556309E+02  0.20642071443E+02  0.31180535299E+02  0.49868122752E+02  0.00000000000E+00 0. -1.
         22    1    3    3    0    0 -0.48655392480E+02 -0.26481463878E+02  0.28885776081E+03  0.29412143942E+03  0.00000000000E+00 0. -1.
</event>
<event>
 7    1  0.7961130E-006  0.1097113E+03  0.7818608E-02  0.1280973E+00
          2   -1    0    0  502    0  0.00000000000E+00  0.00000000000E+00  0.24013044942E+03  0.24013044942E+03  0.00000000000E+00 0. -1.
          1   -1    0    0  501    0 -0.00000000000E+00 -0.00000000000E+00 -0.10032639632E+04  0.10032639632E+04  0.00000000000E+00 0. -1.
         25    2    1    2    0    0 -0.93735246114E+02 -0.67371141598E+02 -0.40496944810E+02  0.17490443095E+03  0.12500556125E+03 0.  0.
          2    1    1    2  501    0  0.14024137054E+02  0.11035841472E+03 -0.87995885727E+03  0.88696293418E+03  0.00000000000E+00 0. -1.
          1    1    1    2  502    0  0.79711109060E+02 -0.42987273123E+02  0.15732228833E+03  0.18152704747E+03  0.00000000000E+00 0. -1.
         22    1    3    3    0    0 -0.92300837162E+02 -0.86028337875E+01 -0.62865392054E+02  0.11200674448E+03  0.00000000000E+00 0. -1.
         22    1    3    3    0    0 -0.14344089513E+01 -0.58768307810E+02  0.22368447244E+02  0.62897686476E+02  0.00000000000E+00 0. -1.
</event>
<event>
 7    1  0.7961130E-006  0.8405878E+02  0.7818608E-02  0.1342178E+00
          2   -1    0    0  502    0  0.00000000000E+00  0.00000000000E+00  0.10991794384E+04  0.10991794384E+04  0.00000000000E+00 0. -1.
          1   -1    0    0  501    0 -0.00000000000E+00 -0.00000000000E+00 -0.26109715203E+04  0.26109715203E+04  0.00000000000E+00 0. -1.
         25    2    1    2    0    0  0.59514146898E+02 -0.15201946209E+02  0.30657294209E+03  0.33672913161E+03  0.12500602548E+03 0.  0.
          2    1    1    2  501    0  0.16536998807E+02  0.65856958972E+02 -0.25927627054E+04  0.25936516840E+04  0.00000000000E+00 0. -1.
          1    1    1    2  502    0 -0.76051145705E+02 -0.50655012763E+02  0.77439768144E+03  0.77977014312E+03  0.00000000000E+00 0. -1.
         22    1    3    3    0    0  0.27045766457E+02 -0.78535529719E+01 -0.19161142212E+00  0.28163602263E+02  0.00000000000E+00 0. -1.
         22    1    3    3    0    0  0.32468380441E+02 -0.73483932372E+01  0.30676455351E+03  0.30856552935E+03  0.00000000000E+00 0. -1.
</event>
<event>
 7    1  0.7961130E-006  0.1034124E+03  0.7818608E-02  0.1429863E+00
          2   -1    0    0  502    0  0.00000000000E+00  0.00000000000E+00  0.59096426043E+03  0.59096426043E+03  0.00000000000E+00 0. -1.
          1   -1    0    0  501    0 -0.00000000000E+00 -0.00000000000E+00 -0.12840827662E+04  0.12840827662E+04  0.00000000000E+00 0. -1.
         25    2    1    2    0    0 -0.63178039887E+02  0.91774072641E+02  0.41979690886E+03  0.45196060196E+03  0.12499998362E+03 0.  0.
          2    1    1    2  501    0  0.77342348720E+02 -0.68611325128E+02 -0.12646867276E+04  0.12689057774E+04  0.00000000000E+00 0. -1.
          1    1    1    2  502    0 -0.14164308832E+02 -0.23162747513E+02  0.15177131304E+03  0.15418064723E+03  0.00000000000E+00 0. -1.
         22    1    3    3    0    0 -0.65655752718E+02 -0.50919215203E+01  0.11984441791E+03  0.13674534740E+03  0.00000000000E+00 0.  1.
         22    1    3    3    0    0  0.24777128305E+01  0.96865994162E+02  0.29995249095E+03  0.31521525457E+03  0.00000000000E+00 0.  1.
</event>
<event>
 7    1  0.7961130E-006  0.6207155E+02  0.7818608E-02  0.1419960E+00
          2   -1    0    0  502    0  0.00000000000E+00  0.00000000000E+00  0.57391624980E+02  0.57391624980E+02  0.00000000000E+00 0. -1.
          1   -1    0    0  501    0 -0.00000000000E+00 -0.00000000000E+00 -0.66314517173E+03  0.66314517173E+03  0.00000000000E+00 0. -1.
         25    2    1    2    0    0 -0.46701541982E+02 -0.42633664608E+02 -0.42460765862E+03  0.44711803430E+03  0.12499683778E+03 0.  0.
          2    1    1    2  501    0  0.44369166735E+02 -0.20284621965E+02 -0.20144304836E+03  0.20726647239E+03  0.00000000000E+00 0. -1.
          1    1    1    2  502    0  0.23323752476E+01  0.62918286573E+02  0.20297160240E+02  0.66152290009E+02  0.00000000000E+00 0. -1.
         22    1    3    3    0    0 -0.83172701786E+01  0.12642682034E+00 -0.36216355646E+03  0.36225907110E+03  0.00000000000E+00 0.  1.
         22    1    3    3    0    0 -0.38384271804E+02 -0.42760091428E+02 -0.62444102168E+02  0.84858963206E+02  0.00000000000E+00 0.  1.
</event>
<event>
 7    1  0.7961130E-006  0.1370768E+03  0.7818608E-02  0.1220750E+00
          2   -1    0    0  502    0  0.00000000000E+00  0.00000000000E+00  0.43325696770E+03  0.43325696770E+03  0.00000000000E+00 0. -1.
          1   -1    0    0  501    0 -0.00000000000E+00 -0.00000000000E+00 -0.70226246813E+03  0.70226246813E+03  0.00000000000E+00 0. -1.
         25    2    1    2    0    0  0.15147696234E+03 -0.25875048865E+02  0.17179137418E+03  0.26220763581E+03  0.12500311900E+03 0.  0.
          2    1    1    2  501    0 -0.89177855187E+02 -0.10410270023E+03 -0.62475215162E+03  0.63961340903E+03  0.00000000000E+00 0. -1.
          1    1    1    2  502    0 -0.62299107155E+02  0.12997774910E+03  0.18395527701E+03  0.23369839099E+03  0.00000000000E+00 0. -1.
         22    1    3    3    0    0  0.17026016384E+03 -0.39353462766E+02  0.15558615213E+03  0.23397493276E+03  0.00000000000E+00 0.  1.
         22    1    3    3    0    0 -0.18783201501E+02  0.13478413900E+02  0.16205222050E+02  0.28232703051E+02  0.00000000000E+00 0.  1.
</event>
<event>
 7    1  0.7961130E-006  0.6112813E+02  0.7818608E-02  0.1432362E+00
          2   -1    0    0  502    0  0.00000000000E+00  0.00000000000E+00  0.85047264912E+02  0.85047264912E+02  0.00000000000E+00 0. -1.
          1   -1    0    0  501    0 -0.00000000000E+00 -0.00000000000E+00 -0.17734493888E+04  0.17734493888E+04  0.00000000000E+00 0. -1.
         25    2    1    2    0    0  0.74786944735E+02 -0.59868702663E+02 -0.65985396131E+03  0.67838479083E+03  0.12498530113E+03 0.  0.
          2    1    1    2  501    0 -0.55381545134E+02  0.19189606653E+02 -0.10967762600E+04  0.10983412589E+04  0.00000000000E+00 0. -1.
          1    1    1    2  502    0 -0.19405399600E+02  0.40679096011E+02  0.68228097456E+02  0.81770603938E+02  0.00000000000E+00 0. -1.
         22    1    3    3    0    0 -0.24500745201E+02  0.15656362018E+02 -0.76447752052E+02  0.81790384404E+02  0.00000000000E+00 0. -1.
         22    1    3    3    0    0  0.99287689936E+02 -0.75525064681E+02 -0.58340620926E+03  0.59659440642E+03  0.00000000000E+00 0. -1.
</event>
<event>
 7    1  0.7961130E-006  0.1546910E+03  0.7818608E-02  0.1381863E+00
          2   -1    0    0  502    0  0.00000000000E+00  0.00000000000E+00  0.90228140415E+03  0.90228140415E+03  0.00000000000E+00 0. -1.
          1   -1    0    0  501    0 -0.00000000000E+00 -0.00000000000E+00 -0.59198592028E+03  0.59198592028E+03  0.00000000000E+00 0. -1.
         25    2    1    2    0    0  0.11786598716E+03 -0.70025071649E+02  0.38089374756E+03  0.42367517629E+03  0.12499882597E+03 0.  0.
          2    1    1    2  501    0 -0.12177278648E+03  0.96194215057E+02 -0.55967975663E+03  0.58079546186E+03  0.00000000000E+00 0. -1.
          1    1    1    2  502    0  0.39067993214E+01 -0.26169143408E+02  0.48908149294E+03  0.48979668627E+03  0.00000000000E+00 0. -1.
         22    1    3    3    0    0  0.12751498979E+03 -0.61754358510E+02  0.21617697919E+03  0.25846887578E+03  0.00000000000E+00 0. -1.
         22    1    3    3    0    0 -0.96490026334E+01 -0.82707131391E+01  0.16471676837E+03  0.16520630051E+03  0.00000000000E+00 0. -1.
</event>
<event>
 7    1  0.8240709E-006  0.7056843E+02  0.7818608E-02  0.1373909E+00
          2   -1    0    0  502    0  0.00000000000E+00  0.00000000000E+00  0.71212513921E+03  0.71212513921E+03  0.00000000000E+00 0. -1.
          1   -1    0    0  501    0 -0.00000000000E+00 -0.00000000000E+00 -0.18288828366E+04  0.18288828366E+04  0.00000000000E+00 0. -1.
         25    2    1    2    0    0 -0.14325947945E+02  0.13157873571E+03 -0.13021766047E+04  0.13148410207E+04  0.12499921330E+03 0.  0.
          2    1    1    2  501    0  0.80743341415E+01 -0.61371374338E+02 -0.51676255460E+03  0.52045670166E+03  0.00000000000E+00 0. -1.
          1    1    1    2  502    0  0.62516138038E+01 -0.70207361374E+02  0.70218146197E+03  0.70571025344E+03  0.00000000000E+00 0. -1.
         22    1    3    3    0    0 -0.19360380735E+02  0.15046193617E+03 -0.94222107362E+03  0.95435536891E+03  0.00000000000E+00 0. -1.
         22    1    3    3    0    0  0.50344327896E+01 -0.18883200462E+02 -0.35995553111E+03  0.36048565179E+03  0.00000000000E+00 0. -1.
</event>
<event>
 7    1  0.7961130E-006  0.1960350E+03  0.7818608E-02  0.1243380E+00
          2   -1    0    0  502    0  0.00000000000E+00  0.00000000000E+00  0.10498419404E+04  0.10498419404E+04  0.00000000000E+00 0. -1.
          1   -1    0    0  501    0 -0.00000000000E+00 -0.00000000000E+00 -0.76647439152E+03  0.76647439152E+03  0.00000000000E+00 0. -1.
         25    2    1    2    0    0  0.81832663387E+02 -0.17703475620E+03  0.53946574333E+02  0.23785203943E+03  0.12500188030E+03 0.  0.
          2    1    1    2  501    0 -0.14272148836E+03  0.13632025696E+03 -0.65854422954E+03  0.68748319104E+03  0.00000000000E+00 0. -1.
          1    1    1    2  502    0  0.60888824969E+02  0.40714499248E+02  0.88796520414E+03  0.89098110149E+03  0.00000000000E+00 0. -1.
         22    1    3    3    0    0  0.34304441143E+02 -0.91454357421E+02  0.90694050384E+02  0.13328955304E+03  0.00000000000E+00 0. -1.
         22    1    3    3    0    0  0.47528222243E+02 -0.85580398784E+02 -0.36747476051E+02  0.10456248640E+03  0.00000000000E+00 0. -1.
</event>
<event>
 7    1  0.7961130E-006  0.8425279E+02  0.7818608E-02  0.1410476E+00
          2   -1    0    0  502    0  0.00000000000E+00  0.00000000000E+00  0.49072133431E+03  0.49072133431E+03  0.00000000000E+00 0. -1.
          1   -1    0    0  501    0 -0.00000000000E+00 -0.00000000000E+00 -0.11919242386E+03  0.11919242386E+03  0.00000000000E+00 0. -1.
         25    2    1    2    0    0 -0.44780688915E+02 -0.27990144961E+02  0.78061158090E+02  0.15654972694E+03  0.12500205713E+03 0.  0.
          2    1    1    2  501    0  0.75134875188E+02  0.51966750164E+02 -0.52415768028E+02  0.10532428652E+03  0.00000000000E+00 0. -1.
          1    1    1    2  502    0 -0.30354186273E+02 -0.23976605203E+02  0.34588352039E+03  0.34803974471E+03  0.00000000000E+00 0. -1.
         22    1    3    3    0    0  0.37569323821E+02  0.17599128199E+02  0.26452251039E+02  0.49202692921E+02  0.00000000000E+00 0.  1.
         22    1    3    3    0    0 -0.82350012736E+02 -0.45589273160E+02  0.51608907051E+02  0.10734703401E+03  0.00000000000E+00 0.  1.
</event>
<event>
 7    1  0.1267401E-005  0.5218513E+02  0.7818608E-02  0.1445099E+00
          2   -1    0    0  502    0  0.00000000000E+00  0.00000000000E+00  0.23253044369E+04  0.23253044369E+04  0.00000000000E+00 0. -1.
          1   -1    0    0  501    0 -0.00000000000E+00 -0.00000000000E+00 -0.77458686470E+03  0.77458686470E+03  0.00000000000E+00 0. -1.
         25    2    1    2    0    0  0.29709751760E+02 -0.63496603106E+01 -0.18277280480E+02  0.12993345204E+03  0.12500262174E+03 0.  0.
          2    1    1    2  501    0 -0.17716827753E+02 -0.44602660889E+02 -0.69935717043E+03  0.70100195090E+03  0.00000000000E+00 0. -1.
          1    1    1    2  502    0 -0.11992924007E+02  0.50952321199E+02  0.22683520231E+04  0.22689558986E+04  0.00000000000E+00 0. -1.
         22    1    3    3    0    0  0.51296093519E+02 -0.40256642555E+02  0.25940355898E+02  0.70176837662E+02  0.00000000000E+00 0. -1.
         22    1    3    3    0    0 -0.21586341759E+02  0.33906982244E+02 -0.44217636378E+02  0.59756614381E+02  0.00000000000E+00 0. -1.
</event>
<event>
 7    1  0.7961130E-006  0.1428081E+03  0.7818608E-02  0.1363448E+00
          2   -1    0    0  502    0  0.00000000000E+00  0.00000000000E+00  0.25827132171E+03  0.25827132171E+03  0.00000000000E+00 0. -1.
          1   -1    0    0  501    0 -0.00000000000E+00 -0.00000000000E+00 -0.78505488797E+03  0.78505488797E+03  0.00000000000E+00 0. -1.
         25    2    1    2    0    0  0.48138852925E+00 -0.13832476166E+03 -0.21388606216E+03  0.28373597421E+03  0.12499953621E+03 0.  0.
          2    1    1    2  501    0 -0.33742172691E+02  0.14090302948E+03 -0.52513037294E+03  0.54475141718E+03  0.00000000000E+00 0. -1.
          1    1    1    2  502    0  0.33260784162E+02 -0.25782678186E+01  0.21223286884E+03  0.21483881829E+03  0.00000000000E+00 0. -1.
         22    1    3    3    0    0 -0.53415229632E+00 -0.12330203238E+03 -0.75603281729E+02  0.14463586249E+03  0.00000000000E+00 0. -1.
         22    1    3    3    0    0  0.10155408256E+01 -0.15022729273E+02 -0.13828278044E+03  0.13910011173E+03  0.00000000000E+00 0. -1.
</event>
<event>
 7    1  0.7961130E-006  0.5723162E+02  0.7818608E-02  0.1464636E+00
          2   -1    0    0  502    0  0.00000000000E+00  0.00000000000E+00  0.17842162249E+03  0.17842162249E+03  0.00000000000E+00 0. -1.
          1   -1    0    0  501    0 -0.00000000000E+00 -0.00000000000E+00 -0.24596462000E+03  0.24596462000E+03  0.00000000000E+00 0. -1.
         25    2    1    2    0    0  0.51518761668E+02 -0.17531238426E+02  0.27227055112E+02  0.13902034990E+03  0.12499527204E+03 0.  0.
          2    1    1    2  501    0 -0.19456494307E+02 -0.32561564459E+02 -0.17859854069E+03  0.18258217160E+03  0.00000000000E+00 0. -1.
          1    1    1    2  502    0 -0.32062267361E+02  0.50092802885E+02  0.83828488061E+02  0.10278372099E+03  0.00000000000E+00 0. -1.
         22    1    3    3    0    0  0.44397921049E+02 -0.10511088819E+00  0.75288058664E+02  0.87404108709E+02  0.00000000000E+00 0. -1.
         22    1    3    3    0    0  0.71208406192E+01 -0.17426127538E+02 -0.48061003552E+02  0.51616241190E+02  0.00000000000E+00 0. -1.
</event>
<event>
 7    1  0.7961130E-006  0.3448260E+02  0.7818608E-02  0.1577054E+00
          2   -1    0    0  502    0  0.00000000000E+00  0.00000000000E+00  0.14227658751E+03  0.14227658751E+03  0.00000000000E+00 0. -1.
          1   -1    0    0  501    0 -0.00000000000E+00 -0.00000000000E+00 -0.38058647147E+03  0.38058647147E+03  0.00000000000E+00 0. -1.
         25    2    1    2    0    0 -0.37751596086E+02  0.71582790653E+01  0.49866702367E+02  0.13995677371E+03  0.12499914614E+03 0.  0.
          2    1    1    2  501    0  0.18869202558E+02  0.22912664401E+02 -0.32812129967E+03  0.32946111195E+03  0.00000000000E+00 0. -1.
          1    1    1    2  502    0  0.18882393528E+02 -0.30070943466E+02  0.39944713337E+02  0.53445173307E+02  0.00000000000E+00 0. -1.
         22    1    3    3    0    0 -0.57202828513E+02 -0.45230842179E+02  0.16155769628E+02  0.74692714279E+02  0.00000000000E+00 0. -1.
         22    1    3    3    0    0  0.19451232426E+02  0.52389121244E+02  0.33710932739E+02  0.65264059434E+02  0.00000000000E+00 0. -1.
</event>
<event>
 7    1  0.7961130E-006  0.1322054E+03  0.7818608E-02  0.1285117E+00
          2   -1    0    0  502    0  0.00000000000E+00  0.00000000000E+00  0.13460051460E+04  0.13460051460E+04  0.00000000000E+00 0. -1.
          1   -1    0    0  501    0 -0.00000000000E+00 -0.00000000000E+00 -0.65269279526E+03  0.65269279526E+03  0.00000000000E+00 0. -1.
         25    2    1    2    0    0 -0.58343505968E+02  0.39857356319E+02  0.54243541502E+02  0.15350042189E+03  0.12500977636E+03 0.  0.
          2    1    1    2  501    0  0.86203184389E+02 -0.10653376061E+03 -0.59420762375E+03  0.60980581439E+03  0.00000000000E+00 0. -1.
          1    1    1    2  502    0 -0.27859678420E+02  0.66676404290E+02  0.12332764330E+04  0.12353917050E+04  0.00000000000E+00 0. -1.
         22    1    3    3    0    0 -0.96361951844E+02  0.41372672499E+02  0.46285812679E+02  0.11462853156E+03  0.00000000000E+00 0. -1.
         22    1    3    3    0    0  0.38018445875E+02 -0.15153161806E+01  0.79577288227E+01  0.38871890331E+02  0.00000000000E+00 0. -1.
</event>
<event>
 7    1  0.7961130E-006  0.1325251E+03  0.7818608E-02  0.1335337E+00
          2   -1    0    0  502    0  0.00000000000E+00  0.00000000000E+00  0.21228386071E+03  0.21228386071E+03  0.00000000000E+00 0. -1.
          1   -1    0    0  501    0 -0.00000000000E+00 -0.00000000000E+00 -0.26091085468E+04  0.26091085468E+04  0.00000000000E+00 0. -1.
         25    2    1    2    0    0 -0.89616326663E+02  0.70459976740E+02 -0.11509073243E+04  0.11632729873E+04  0.12498271706E+03 0.  0.
          2    1    1    2  501    0  0.86821008146E+02 -0.11607777339E+03 -0.14458151856E+04  0.14530634838E+04  0.00000000000E+00 0. -1.
          1    1    1    2  502    0  0.27953185177E+01  0.45617796652E+02  0.19989782372E+03  0.20505593652E+03  0.00000000000E+00 0. -1.
         22    1    3    3    0    0 -0.43367565966E+02 -0.19432811281E+02 -0.67890334479E+03  0.68056456821E+03  0.00000000000E+00 0.  1.
         22    1    3    3    0    0 -0.46248760697E+02  0.89892788021E+02 -0.47200397947E+03  0.48270841907E+03  0.00000000000E+00 0.  1.
</event>
<event>
 7    1  0.7961130E-006  0.3291273E+02  0.7818608E-02  0.1629005E+00
          2   -1    0    0  502    0  0.00000000000E+00  0.00000000000E+00  0.27460765556E+04  0.27460765556E+04  0.00000000000E+00 0. -1.
          1   -1    0    0  501    0 -0.00000000000E+00 -0.00000000000E+00 -0.36063764740E+01  0.36063764740E+01  0.00000000000E+00 0. -1.
         25    2    1    2    0    0  0.10765033611E+01 -0.34545758897E+01  0.20072622840E+04  0.20111548023E+04  0.12501467556E+03 0.  0.
          2    1    1    2  501    0 -0.25744812913E+02 -0.20504939141E+02  0.46078720545E+03  0.46196114190E+03  0.00000000000E+00 0. -1.
          1    1    1    2  502    0  0.24668309552E+02  0.23959515030E+02  0.27442068973E+03  0.27656698793E+03  0.00000000000E+00 0. -1.
         22    1    3    3    0    0  0.50467350425E+01 -0.61944051841E+02  0.76982865437E+03  0.77233327792E+03  0.00000000000E+00 0. -1.
         22    1    3    3    0    0 -0.39702316814E+01  0.58489475952E+02  0.12374336296E+04  0.12388215243E+04  0.00000000000E+00 0. -1.
</event>
<event>
 7    1  0.7961130E-006  0.1145052E+03  0.7818608E-02  0.1388202E+00
          2   -1    0    0  502    0  0.00000000000E+00  0.00000000000E+00  0.31452492928E+03  0.31452492928E+03  0.00000000000E+00 0. -1.
          1   -1    0    0  501    0 -0.00000000000E+00 -0.00000000000E+00 -0.11757270678E+04  0.11757270678E+04  0.00000000000E+00 0. -1.
         25    2    1    2    0    0 -0.92545189751E+02  0.10960365953E+03 -0.59802858978E+02  0.19944644743E+03  0.12499971649E+03 0.  0.
          2    1    1    2  501    0  0.28937171101E+02 -0.17768841235E+02 -0.10330591415E+04  0.10336170865E+04  0.00000000000E+00 0. -1.
          1    1    1    2  502    0  0.63608018650E+02 -0.91834818291E+02  0.23165986202E+03  0.25718846312E+03  0.00000000000E+00 0. -1.
         22    1    3    3    0    0 -0.68867909262E+02  0.11345343003E+03  0.24390793275E+01  0.13274192563E+03  0.00000000000E+00 0. -1.
         22    1    3    3    0    0 -0.23677280489E+02 -0.38497705053E+01 -0.62241938306E+02  0.66704521799E+02  0.00000000000E+00 0. -1.
</event>
<event>
 7    1  0.7961130E-006  0.6538002E+02  0.7818608E-02  0.1398372E+00
          2   -1    0    0  502    0  0.00000000000E+00  0.00000000000E+00  0.49199139279E+03  0.49199139279E+03  0.00000000000E+00 0. -1.
          1   -1    0    0  501    0 -0.00000000000E+00 -0.00000000000E+00 -0.12136911370E+03  0.12136911370E+03  0.00000000000E+00 0. -1.
         25    2    1    2    0    0  0.71814423617E+02  0.51954805208E+02  0.28169694057E+03  0.32067956492E+03  0.12500241520E+03 0.  0.
          2    1    1    2  501    0 -0.18040016756E+02 -0.62646005284E+02 -0.86826244035E+02  0.10857606014E+03  0.00000000000E+00 0. -1.
          1    1    1    2  502    0 -0.53774406862E+02  0.10691200075E+02  0.17575158256E+03  0.18410488142E+03  0.00000000000E+00 0. -1.
         22    1    3    3    0    0  0.19955958202E+02  0.86357936376E+02  0.13705166712E+03  0.16321486728E+03  0.00000000000E+00 0. -1.
         22    1    3    3    0    0  0.51858465415E+02 -0.34403131168E+02  0.14464527345E+03  0.15746469763E+03  0.00000000000E+00 0. -1.
</event>
<event>
 7    1  0.7961130E-006  0.5487820E+02  0.7818608E-02  0.1510849E+00
          2   -1    0    0  502    0  0.00000000000E+00  0.00000000000E+00  0.18199440936E+03  0.18199440936E+03  0.00000000000E+00 0. -1.
          1   -1    0    0  501    0 -0.00000000000E+00 -0.00000000000E+00 -0.37959818660E+03  0.37959818660E+03  0.00000000000E+00 0. -1.
         25    2    1    2    0    0  0.75950889614E+02 -0.10353451301E+02 -0.12370567176E+03  0.19184668553E+03  0.12500530362E+03 0.  0.
          2    1    1    2  501    0 -0.49052671116E+02  0.20184562805E+02 -0.21721394563E+03  0.22359668892E+03  0.00000000000E+00 0. -1.
          1    1    1    2  502    0 -0.26898218498E+02 -0.98311115037E+01  0.14331584015E+03  0.14614922152E+03  0.00000000000E+00 0. -1.
         22    1    3    3    0    0  0.22371681324E+02  0.21173027849E+02  0.18998061665E+02  0.36189992824E+02  0.00000000000E+00 0.  1.
         22    1    3    3    0    0  0.53579208290E+02 -0.31526479150E+02 -0.14270373343E+03  0.15565669270E+03  0.00000000000E+00 0.  1.
</event>
<event>
 7    1  0.7961130E-006  0.4456328E+02  0.7818608E-02  0.1508166E+00
          2   -1    0    0  502    0  0.00000000000E+00  0.00000000000E+00  0.16820389732E+04  0.16820389732E+04  0.00000000000E+00 0. -1.
          1   -1    0    0  501    0 -0.00000000000E+00 -0.00000000000E+00 -0.19862445050E+02  0.19862445050E+02  0.00000000000E+00 0. -1.
         25    2    1    2    0    0 -0.67336423331E+02  0.98216859004E+01  0.73510496975E+03  0.74875575777E+03  0.12500083527E+03 0.  0.
          2    1    1    2  501    0  0.41173590289E+02  0.14783051924E+02  0.25053936208E+02  0.50413320472E+02  0.00000000000E+00 0. -1.
          1    1    1    2  502    0  0.26162833042E+02 -0.24604737824E+02  0.90201762220E+03  0.90273234002E+03  0.00000000000E+00 0. -1.
         22    1    3    3    0    0  0.27133197265E+02  0.52748708139E+01  0.49814034590E+02  0.56969050353E+02  0.00000000000E+00 0. -1.
         22    1    3    3    0    0 -0.94469620596E+02  0.45468150865E+01  0.68529093516E+03  0.69178670742E+03  0.00000000000E+00 0. -1.
</event>
<event>
 7    1  0.7961130E-006  0.7410688E+02  0.7818608E-02  0.1373582E+00
          2   -1    0    0  502    0  0.00000000000E+00  0.00000000000E+00  0.54201920124E+03  0.54201920124E+03  0.00000000000E+00 0. -1.
          1   -1    0    0  501    0 -0.00000000000E+00 -0.00000000000E+00 -0.52399043089E+03  0.52399043089E+03  0.00000000000E+00 0. -1.
         25    2    1    2    0    0 -0.11998342183E+03 -0.54466294977E+01 -0.81039413149E+02  0.19135286811E+03  0.12499138516E+03 0.  0.
          2    1    1    2  501    0  0.68056736400E+02 -0.22781382903E+02 -0.38265212880E+03  0.38932423820E+03  0.00000000000E+00 0. -1.
          1    1    1    2  502    0  0.51926685425E+02  0.28228012401E+02  0.48172031230E+03  0.48533252583E+03  0.00000000000E+00 0. -1.
         22    1    3    3    0    0 -0.11418402545E+03 -0.10050280843E+02 -0.11155698055E+03  0.15994986628E+03  0.00000000000E+00 0. -1.
         22    1    3    3    0    0 -0.57993963768E+01  0.46036513450E+01  0.30517567401E+02  0.31403001833E+02  0.00000000000E+00 0. -1.
</event>
<event>
 7    1  0.7961130E-006  0.1606288E+03  0.7818608E-02  0.1209883E+00
          2   -1    0    0  502    0  0.00000000000E+00  0.00000000000E+00  0.51151121112E+03  0.51151121112E+03  0.00000000000E+00 0. -1.
          1   -1    0    0  501    0 -0.00000000000E+00 -0.00000000000E+00 -0.10685880744E+04  0.10685880744E+04  0.00000000000E+00 0. -1.
         25    2    1    2    0    0  0.12054910483E+03 -0.88825284010E+02 -0.20698893369E+03  0.28441436206E+03  0.12500037170E+03 0.  0.
          2    1    1    2  501    0 -0.23860691428E+02  0.17052006071E+03 -0.80514546066E+03  0.82335025143E+03  0.00000000000E+00 0. -1.
          1    1    1    2  502    0 -0.96688413399E+02 -0.81694776704E+02  0.45505753106E+03  0.47233467203E+03  0.00000000000E+00 0. -1.
         22    1    3    3    0    0  0.52900529173E+02 -0.48663020189E+01 -0.24305258504E+01  0.53179454096E+02  0.00000000000E+00 0.  1.
         22    1    3    3    0    0  0.67648575654E+02 -0.83958981991E+02 -0.20455840784E+03  0.23123490796E+03  0.00000000000E+00 0.  1.
</event>
<event>
 7    1  0.9630306E-006  0.8139526E+02  0.7818608E-02  0.1388843E+00
          2   -1    0    0  502    0  0.00000000000E+00  0.00000000000E+00  0.15826372085E+04  0.15826372085E+04  0.00000000000E+00 0. -1.
          1   -1    0    0  501    0 -0.00000000000E+00 -0.00000000000E+00 -0.47257661219E+03  0.47257661219E+03  0.00000000000E+00 0. -1.
         25    2    1    2    0    0  0.57628521314E+02  0.31051134753E+02 -0.91379875722E+02  0.16810832983E+03  0.12499963773E+03 0.  0.
          2    1    1    2  501    0  0.23342284430E+02 -0.41396911181E+02 -0.34010044767E+03  0.34340483544E+03  0.00000000000E+00 0. -1.
          1    1    1    2  502    0 -0.80970805744E+02  0.10345776428E+02  0.15415409197E+04  0.15437006554E+04  0.00000000000E+00 0. -1.
         22    1    3    3    0    0  0.51206962116E+02 -0.18461819002E+02 -0.10331185645E+03  0.11677470366E+03  0.00000000000E+00 0.  1.
         22    1    3    3    0    0  0.64215591977E+01  0.49512953755E+02  0.11931980731E+02  0.51333626175E+02  0.00000000000E+00 0.  1.
</event>
<event>
 7    1  0.7961130E-006  0.8222427E+02  0.7818608E-02  0.1498935E+00
          2   -1    0    0  502    0  0.00000000000E+00  0.00000000000E+00  0.13745321708E+04  0.13745321708E+04  0.00000000000E+00 0. -1.
          1   -1    0    0  501    0 -0.00000000000E+00 -0.00000000000E+00 -0.90803474023E+03  0.90803474023E+03  0.00000000000E+00 0. -1.
         25    2    1    2    0    0  0.30099961875E+02 -0.78901853967E+02 -0.38934037287E+03  0.41754373327E+03  0.12500133190E+03 0.  0.
          2    1    1    2  501    0 -0.47250150318E+02  0.67251226548E+02 -0.50116606301E+03  0.50786093262E+03  0.00000000000E+00 0. -1.
          1    1    1    2  502    0  0.17150188443E+02  0.11650627420E+02  0.13570038665E+04  0.13571622452E+04  0.00000000000E+00 0. -1.
         22    1    3    3    0    0 -0.34976485716E+02 -0.78290246186E+02 -0.22520682150E+03  0.24097889876E+03  0.00000000000E+00 0. -1.
         22    1    3    3    0    0  0.65076447592E+02 -0.61160778083E+00 -0.16413355138E+03  0.17656483450E+03  0.00000000000E+00 0. -1.
</event>
<event>
 7    1  0.7961130E-006  0.7896061E+02  0.7818608E-02  0.1399583E+00
          2   -1    0    0  502    0  0.00000000000E+00  0.00000000000E+00  0.27289217811E+03  0.27289217811E+03  0.00000000000E+00 0. -1.
          1   -1    0    0  501    0 -0.00000000000E+00 -0.00000000000E+00 -0.12625876708E+04  0.12625876708E+04  0.00000000000E+00 0. -1.
         25    2    1    2    0    0 -0.86632863877E+02  0.56935964211E+02 -0.64323299447E+03  0.66341539266E+03  0.12499736363E+03 0.  0.
          2    1    1    2  501    0  0.41937166587E+02 -0.61834850707E+02 -0.60502538394E+03  0.60962118559E+03  0.00000000000E+00 0. -1.
          1    1    1    2  502    0  0.44695697290E+02  0.48988864969E+01  0.25856288572E+03  0.26244327066E+03  0.00000000000E+00 0. -1.
         22    1    3    3    0    0  0.19489085399E+02 -0.13359337613E+02 -0.22507813874E+03  0.22631496833E+03  0.00000000000E+00 0. -1.
         22    1    3    3    0    0 -0.10612194928E+03  0.70295301823E+02 -0.41815485574E+03  0.43710042433E+03  0.00000000000E+00 0. -1.
</event>
<event>
 7    1  0.7961130E-006  0.7112534E+02  0.7818608E-02  0.1444489E+00
          2   -1    0    0  502    0  0.00000000000E+00  0.00000000000E+00  0.29110771067E+03  0.29110771067E+03  0.00000000000E+00 0. -1.
          1   -1    0    0  501    0 -0.00000000000E+00 -0.00000000000E+00 -0.46090089064E+03  0.46090089064E+03  0.00000000000E+00 0. -1.
         25    2    1    2    0    0  0.15005160447E+02  0.89917371081E+02  0.34864111385E+02  0.15858921248E+03  0.12499897436E+03 0.  0.
          2    1    1    2  501    0  0.19536489926E+02 -0.29487607128E+02 -0.39198517357E+03  0.39357790806E+03  0.00000000000E+00 0. -1.
          1    1    1    2  502    0 -0.34541650373E+02 -0.60429763953E+02  0.18732788221E+03  0.19984148077E+03  0.00000000000E+00 0. -1.
         22    1    3    3    0    0  0.52394556214E+02 -0.10298068420E+01 -0.46576767781E+01  0.52611253321E+02  0.00000000000E+00 0.  1.
         22    1    3    3    0    0 -0.37389395767E+02  0.90947177923E+02  0.39521788163E+02  0.10597795916E+03  0.00000000000E+00 0.  1.
</event>
<event>
 7    1  0.7961130E-006  0.2845453E+02  0.7818608E-02  0.1623925E+00
          2   -1    0    0  502    0  0.00000000000E+00  0.00000000000E+00  0.40934004831E+02  0.40934004831E+02  0.00000000000E+00 0. -1.
          1   -1    0    0  501    0 -0.00000000000E+00 -0.00000000000E+00 -0.38746368548E+03  0.38746368548E+03  0.00000000000E+00 0. -1.
         25    2    1    2    0    0 -0.50821142716E+02 -0.12898824809E+02 -0.13175947297E+03  0.18903915150E+03  0.12500429534E+03 0.  0.
          2    1    1    2  501    0  0.23728219653E+02  0.14405898851E+02 -0.20997665909E+03  0.21180357809E+03  0.00000000000E+00 0. -1.
          1    1    1    2  502    0  0.27092923063E+02 -0.15070740421E+01 -0.47935485853E+01  0.27554960721E+02  0.00000000000E+00 0. -1.
         22    1    3    3    0    0  0.18068092143E+02 -0.43199568087E+02 -0.93598824259E+02  0.10465848527E+03  0.00000000000E+00 0.  1.
         22    1    3    3    0    0 -0.68889234859E+02  0.30300743279E+02 -0.38160648714E+02  0.84380666227E+02  0.00000000000E+00 0.  1.
</event>
<event>
 7    1  0.7961130E-006  0.1524540E+03  0.7818608E-02  0.1342622E+00
          2   -1    0    0  502    0  0.00000000000E+00  0.00000000000E+00  0.39278283520E+03  0.39278283520E+03  0.00000000000E+00 0. -1.
          1   -1    0    0  501    0 -0.00000000000E+00 -0.00000000000E+00 -0.11694312345E+04  0.11694312345E+04  0.00000000000E+00 0. -1.
         25    2    1    2    0    0 -0.23299187075E+02 -0.12910869119E+03 -0.21266453051E+03  0.27939824481E+03  0.12500108163E+03 0.  0.
          2    1    1    2  501    0 -0.34724603182E+02 -0.13608133289E+02 -0.90648944056E+03  0.90725635033E+03  0.00000000000E+00 0. -1.
          1    1    1    2  502    0  0.58023790258E+02  0.14271682448E+03  0.34250557177E+03  0.37555947455E+03  0.00000000000E+00 0. -1.
         22    1    3    3    0    0 -0.21443166284E+02 -0.92616638447E+02 -0.40389129957E+02  0.10329052675E+03  0.00000000000E+00 0.  1.
         22    1    3    3    0    0 -0.18560207911E+01 -0.36492052746E+02 -0.17227540055E+03  0.17610771806E+03  0.00000000000E+00 0.  1.
</event>
<event>
 7    1  0.7961130E-006  0.4312117E+02  0.7818608E-02  0.1549785E+00
          2   -1    0    0  502    0  0.00000000000E+00  0.00000000000E+00  0.18696270071E+03  0.18696270071E+03  0.00000000000E+00 0. -1.
          1   -1    0    0  501    0 -0.00000000000E+00 -0.00000000000E+00 -0.24611400287E+03  0.24611400287E+03  0.00000000000E+00 0. -1.
         25    2    1    2    0    0  0.15971298818E+02 -0.33089589241E+02  0.26944043145E+02  0.13304806403E+03  0.12500321027E+03 0.  0.
          2    1    1    2  501    0 -0.26343100536E+02 -0.10043512911E+02 -0.18736191654E+03  0.18947115576E+03  0.00000000000E+00 0. -1.
          1    1    1    2  502    0  0.10371801718E+02  0.43133102152E+02  0.10126657123E+03  0.11055748379E+03  0.00000000000E+00 0. -1.
         22    1    3    3    0    0  0.35217924412E+02 -0.49098831216E+02 -0.32455639811E+02  0.68588380811E+02  0.00000000000E+00 0.  1.
         22    1    3    3    0    0 -0.19246625595E+02  0.16009241975E+02  0.59399682956E+02  0.64459683219E+02  0.00000000000E+00 0.  1.
</event>
<event>
 7    1  0.7961130E-006  0.9688892E+02  0.7818608E-02  0.1377854E+00
          2   -1    0    0  502    0  0.00000000000E+00  0.00000000000E+00  0.99144065073E+03  0.99144065073E+03  0.00000000000E+00 0. -1.
          1   -1    0    0  501    0 -0.00000000000E+00 -0.00000000000E+00 -0.51172808010E+02  0.51172808010E+02  0.00000000000E+00 0. -1.
         25    2    1    2    0    0 -0.67422637803E+02 -0.14913998680E+02  0.43548681878E+03  0.45830226496E+03  0.12499582907E+03 0.  0.
          2    1    1    2  501    0 -0.37526468151E+02 -0.22292734987E+02 -0.19881278133E+02  0.47963184478E+02  0.00000000000E+00 0. -1.
          1    1    1    2  502    0  0.10494910595E+03  0.37206733667E+02  0.52466230207E+03  0.53634800931E+03  0.00000000000E+00 0. -1.
         22    1    3    3    0    0 -0.85426936616E+02 -0.23387289535E+01  0.42581455170E+03  0.43430549569E+03  0.00000000000E+00 0. -1.
         22    1    3    3    0    0  0.18004298813E+02 -0.12575269726E+02  0.96722670839E+01  0.23996769262E+02  0.00000000000E+00 0. -1.
</event>
<event>
 7    1  0.7961130E-006  0.6509602E+02  0.7818608E-02  0.1428838E+00
          2   -1    0    0  502    0  0.00000000000E+00  0.00000000000E+00  0.19554177710E+04  0.19554177710E+04  0.00000000000E+00 0. -1.
          1   -1    0    0  501    0 -0.00000000000E+00 -0.00000000000E+00 -0.11163534290E+04  0.11163534290E+04  0.00000000000E+00 0. -1.
         25    2    1    2    0    0  0.22704487046E+02  0.55255767226E+01  0.86569302932E+02  0.15383373443E+03  0.12499819162E+03 0.  0.
          2    1    1    2  501    0 -0.56850231561E+02 -0.32424483180E+02 -0.10814744349E+04  0.10834529290E+04  0.00000000000E+00 0. -1.
          1    1    1    2  502    0  0.34145744515E+02  0.26898906458E+02  0.18339694741E+04  0.18344845366E+04  0.00000000000E+00 0. -1.
         22    1    3    3    0    0  0.36817919388E+01  0.61079674037E+02  0.18477992794E+02  0.63919624451E+02  0.00000000000E+00 0. -1.
         22    1    3    3    0    0  0.19022695107E+02 -0.55554097314E+02  0.68091310138E+02  0.89914109982E+02  0.00000000000E+00 0. -1.
</event>
<event>
 7    1  0.7961130E-006  0.2096768E+03  0.7818608E-02  0.1164266E+00
          2   -1    0    0  502    0  0.00000000000E+00  0.00000000000E+00  0.93535365700E+03  0.93535365700E+03  0.00000000000E+00 0. -1.
          1   -1    0    0  501    0 -0.00000000000E+00 -0.00000000000E+00 -0.13345224567E+04  0.13345224567E+04  0.00000000000E+00 0. -1.
         25    2    1    2    0    0 -0.33769040401E+03 -0.12639640430E+03 -0.37023207521E+02  0.38341267802E+03  0.12499481507E+03 0.  0.
          2    1    1    2  501    0  0.14689894038E+03  0.65764616652E+02 -0.11052283792E+04  0.11168858732E+04  0.00000000000E+00 0. -1.
          1    1    1    2  502    0  0.19079146363E+03  0.60631787647E+02  0.74308278705E+03  0.76957756248E+03  0.00000000000E+00 0. -1.
         22    1    3    3    0    0 -0.17539924379E+03 -0.12605064203E+03 -0.46130719404E+02  0.22086580168E+03  0.00000000000E+00 0.  1.
         22    1    3    3    0    0 -0.16229116021E+03 -0.34576226916E+00  0.91075118836E+01  0.16254687634E+03  0.00000000000E+00 0.  1.
</event>
<event>
 7    1  0.7961130E-006  0.1748719E+03  0.7818608E-02  0.1288261E+00
          2   -1    0    0  502    0  0.00000000000E+00  0.00000000000E+00  0.13643927565E+04  0.13643927565E+04  0.00000000000E+00 0. -1.
          1   -1    0    0  501    0 -0.00000000000E+00 -0.00000000000E+00 -0.33350190884E+03  0.33350190884E+03  0.00000000000E+00 0. -1.
         25    2    1    2    0    0  0.83946170736E+02 -0.97588678759E+02  0.16068326453E+03  0.24086130752E+03  0.12499819262E+03 0.  0.
          2    1    1    2  501    0 -0.12416142099E+03  0.13216856719E+03 -0.26471526715E+03  0.32087187673E+03  0.00000000000E+00 0. -1.
          1    1    1    2  502    0  0.40215250249E+02 -0.34579888436E+02  0.11349228502E+04  0.11361614810E+04  0.00000000000E+00 0. -1.
         22    1    3    3    0    0  0.89395165288E+02 -0.92956213739E+02  0.17933104026E+03  0.22088905643E+03  0.00000000000E+00 0. -1.
         22    1    3    3    0    0 -0.54489945520E+01 -0.46324650195E+01 -0.18647775733E+02  0.19972251090E+02  0.00000000000E+00 0. -1.
</event>
<event>
 7    1  0.7961130E-006  0.9642019E+02  0.7818608E-02  0.1469027E+00
          2   -1    0    0  502    0  0.00000000000E+00  0.00000000000E+00  0.11594871288E+04  0.11594871288E+04  0.00000000000E+00 0. -1.
          1   -1    0    0  501    0 -0.00000000000E+00 -0.00000000000E+00 -0.56336458918E+03  0.56336458918E+03  0.00000000000E+00 0. -1.
         25    2    1    2    0    0  0.87612993274E+02 -0.64473188336E+02  0.42765329537E+03  0.45863467527E+03  0.12500238284E+03 0.  0.
          2    1    1    2  501    0 -0.38241663143E+01  0.21477000923E+02 -0.54455925183E+03  0.54499602253E+03  0.00000000000E+00 0. -1.
          1    1    1    2  502    0 -0.83788826960E+02  0.42996187413E+02  0.71302849606E+03  0.71922102017E+03  0.00000000000E+00 0. -1.
         22    1    3    3    0    0 -0.15158371367E+02  0.43701418734E+01  0.26512075104E+01  0.15996976707E+02  0.00000000000E+00 0. -1.
         22    1    3    3    0    0  0.10277136464E+03 -0.68843330209E+02  0.42500208786E+03  0.44263769856E+03  0.00000000000E+00 0. -1.
</event>
<event>
 7    1  0.7961130E-006  0.5709399E+02  0.7818608E-02  0.1411363E+00
          2   -1    0    0  502    0  0.00000000000E+00  0.00000000000E+00  0.44858229325E+03  0.44858229325E+03  0.00000000000E+00 0. -1.
          1   -1    0    0  501    0 -0.00000000000E+00 -0.00000000000E+00 -0.12170372822E+03  0.12170372822E+03  0.00000000000E+00 0. -1.
         25    2    1    2    0    0  0.33789204176E+01  0.56824120142E+02  0.25584531954E+03  0.29038251156E+03  0.12499911102E+03 0.  0.
          2    1    1    2  501    0 -0.53945342861E+02 -0.17420150912E+02 -0.90120476568E+02  0.10646718730E+03  0.00000000000E+00 0. -1.
          1    1    1    2  502    0  0.50566422444E+02 -0.39403969230E+02  0.16115372206E+03  0.17343632262E+03  0.00000000000E+00 0. -1.
         22    1    3    3    0    0  0.59690405476E+02  0.79522209055E+01  0.87005120822E+02  0.10581149924E+03  0.00000000000E+00 0. -1.
         22    1    3    3    0    0 -0.56311485058E+02  0.48871899236E+02  0.16884019871E+03  0.18457101231E+03  0.00000000000E+00 0. -1.
</event>
<event>
 7    1  0.7961130E-006  0.6658524E+02  0.7818608E-02  0.1407153E+00
          2   -1    0    0  502    0  0.00000000000E+00  0.00000000000E+00  0.36284796473E+02  0.36284796473E+02  0.00000000000E+00 0. -1.
          1   -1    0    0  501    0 -0.00000000000E+00 -0.00000000000E+00 -0.22740384954E+04  0.22740384954E+04  0.00000000000E+00 0. -1.
         25    2    1    2    0    0 -0.37635281252E+02 -0.50109401419E+02 -0.22355106297E+03  0.26368137715E+03  0.12500169756E+03 0.  0.
          2    1    1    2  501    0 -0.33633697917E+02  0.37311173285E+02 -0.19476385389E+04  0.19482862283E+04  0.00000000000E+00 0. -1.
          1    1    1    2  502    0  0.71268979170E+02  0.12798228135E+02 -0.66564097131E+02  0.98355686476E+02  0.00000000000E+00 0. -1.
         22    1    3    3    0    0 -0.68839497964E+02  0.12342540678E+02 -0.11634461911E+03  0.13574713694E+03  0.00000000000E+00 0. -1.
         22    1    3    3    0    0  0.31204216712E+02 -0.62451942098E+02 -0.10720644386E+03  0.12793424021E+03  0.00000000000E+00 0. -1.
</event>
<event>
 7    1  0.7961130E-006  0.2721147E+02  0.7818608E-02  0.1637108E+00
          2   -1    0    0  502    0  0.00000000000E+00  0.00000000000E+00  0.47640469125E+03  0.47640469125E+03  0.00000000000E+00 0. -1.
          1   -1    0    0  501    0 -0.00000000000E+00 -0.00000000000E+00 -0.26655049117E+02  0.26655049117E+02  0.00000000000E+00 0. -1.
         25    2    1    2    0    0  0.24012723496E+01  0.34765812660E+01  0.16131444825E+03  0.20412077761E+03  0.12500035165E+03 0.  0.
          2    1    1    2  501    0 -0.14616456227E+02  0.21852692367E+02  0.34120364292E+02  0.43074124666E+02  0.00000000000E+00 0. -1.
          1    1    1    2  502    0  0.12215183877E+02 -0.25329273633E+02  0.25431482959E+03  0.25586483809E+03  0.00000000000E+00 0. -1.
         22    1    3    3    0    0 -0.23131291822E+02  0.36074799102E+02  0.58677464490E+01  0.43253650019E+02  0.00000000000E+00 0.  1.
         22    1    3    3    0    0  0.25532564171E+02 -0.32598217836E+02  0.15544670180E+03  0.16086712759E+03  0.00000000000E+00 0.  1.
</event>
<event>
 7    1  0.7961130E-006  0.1355229E+03  0.7818608E-02  0.1294217E+00
          2   -1    0    0  502    0  0.00000000000E+00  0.00000000000E+00  0.24718426730E+04  0.24718426730E+04  0.00000000000E+00 0. -1.
          1   -1    0    0  501    0 -0.00000000000E+00 -0.00000000000E+00 -0.38528134074E+03  0.38528134074E+03  0.00000000000E+00 0. -1.
         25    2    1    2    0    0 -0.31568834276E+02 -0.17060869245E+03  0.22262912548E+03  0.30869621628E+03  0.12500283675E+03 0.  0.
          2    1    1    2  501    0  0.52355624066E+02  0.38067558229E+02 -0.33712609853E+03  0.34328451272E+03  0.00000000000E+00 0. -1.
          1    1    1    2  502    0 -0.20786789790E+02  0.13254113422E+03  0.22010583053E+04  0.22051432848E+04  0.00000000000E+00 0. -1.
         22    1    3    3    0    0 -0.23867990352E+02 -0.11523726786E+03  0.51121181935E+02  0.12830699166E+03  0.00000000000E+00 0. -1.
         22    1    3    3    0    0 -0.77008439238E+01 -0.55371424589E+02  0.17150794355E+03  0.18038922462E+03  0.00000000000E+00 0. -1.
</event>
<event>
 7    1  0.7961130E-006  0.9151413E+02  0.7818608E-02  0.1455705E+00
          2   -1    0    0  502    0  0.00000000000E+00  0.00000000000E+00  0.57671705942E+03  0.57671705942E+03  0.00000000000E+00 0. -1.
          1   -1    0    0  501    0 -0.00000000000E+00 -0.00000000000E+00 -0.54678965552E+03  0.54678965552E+03  0.00000000000E+00 0. -1.
         25    2    1    2    0    0 -0.70690756604E+02  0.20179167511E+02  0.52635388002E+02  0.15427376869E+03  0.12500211904E+03 0.  0.
          2    1    1    2  501    0  0.81720069182E+02 -0.42961392664E+02 -0.49132941428E+03  0.49992843919E+03  0.00000000000E+00 0. -1.
          1    1    1    2  502    0 -0.11029312578E+02  0.22782225153E+02  0.46862143019E+03  0.46930450707E+03  0.00000000000E+00 0. -1.
         22    1    3    3    0    0 -0.35915848266E+02 -0.32090193097E+02 -0.25133415338E+02  0.54326947422E+02  0.00000000000E+00 0. -1.
         22    1    3    3    0    0 -0.34774908338E+02  0.52269360608E+02  0.77768803340E+02  0.99946821266E+02  0.00000000000E+00 0. -1.
</event>
<event>
 7    1  0.7961130E-006  0.7991425E+02  0.7818608E-02  0.1506279E+00
          2   -1    0    0  502    0  0.00000000000E+00  0.00000000000E+00  0.23244383483E+03  0.23244383483E+03  0.00000000000E+00 0. -1.
          1   -1    0    0  501    0 -0.00000000000E+00 -0.00000000000E+00 -0.83773250408E+03  0.83773250408E+03  0.00000000000E+00 0. -1.
         25    2    1    2    0    0  0.19852008105E+02  0.93319666047E+02  0.39657866031E+02  0.16217538188E+03  0.12500178340E+03 0.  0.
          2    1    1    2  501    0 -0.50370700281E+01 -0.79461221959E+02 -0.77363597565E+03  0.77772236736E+03  0.00000000000E+00 0. -1.
          1    1    1    2  502    0 -0.14814938077E+02 -0.13858444088E+02  0.12868944037E+03  0.13027858967E+03  0.00000000000E+00 0. -1.
         22    1    3    3    0    0  0.63215043450E+02  0.64605368956E+02  0.57574769915E+02  0.10716739032E+03  0.00000000000E+00 0.  1.
         22    1    3    3    0    0 -0.43363035344E+02  0.28714297092E+02 -0.17916903883E+02  0.55007991569E+02  0.00000000000E+00 0.  1.
</event>
<event>
 7    1  0.7961130E-006  0.1866585E+03  0.7818608E-02  0.1214251E+00
          2   -1    0    0  502    0  0.00000000000E+00  0.00000000000E+00  0.12267008201E+04  0.12267008201E+04  0.00000000000E+00 0. -1.
          1   -1    0    0  501    0 -0.00000000000E+00 -0.00000000000E+00 -0.15040962006E+04  0.15040962006E+04  0.00000000000E+00 0. -1.
         25    2    1    2    0    0 -0.10885679504E+03 -0.20324597764E+03  0.31753754593E+03  0.41184253816E+03  0.12500181564E+03 0.  0.
          2    1    1    2  501    0  0.15152669517E+03  0.10842209745E+03 -0.14478161847E+04  0.14597559369E+04  0.00000000000E+00 0. -1.
          1    1    1    2  502    0 -0.42669900133E+02  0.94823880195E+02  0.85288325825E+03  0.85919854565E+03  0.00000000000E+00 0. -1.
         22    1    3    3    0    0 -0.12471050632E+03 -0.20806145866E+03  0.27787793615E+03  0.36886098786E+03  0.00000000000E+00 0.  1.
         22    1    3    3    0    0  0.15853711283E+02  0.48154810156E+01  0.39659609775E+02  0.42981550302E+02  0.00000000000E+00 0.  1.
</event>
<event>
 7    1  0.7961130E-006  0.1012258E+03  0.7818608E-02  0.1330906E+00
          2   -1    0    0  502    0  0.00000000000E+00  0.00000000000E+00  0.47716832635E+03  0.47716832635E+03  0.00000000000E+00 0. -1.
          1   -1    0    0  501    0 -0.00000000000E+00 -0.00000000000E+00 -0.27810590493E+03  0.27810590493E+03  0.00000000000E+00 0. -1.
         25    2    1    2    0    0 -0.42587634643E+01 -0.15740676861E+03  0.84136105980E+02  0.21794494348E+03  0.12500434469E+03 0.  0.
          2    1    1    2  501    0  0.24462306964E+00  0.62201136983E+02 -0.19939996928E+03  0.20887649229E+03  0.00000000000E+00 0. -1.
          1    1    1    2  502    0  0.40141403947E+01  0.95205631622E+02  0.31432628471E+03  0.32845279551E+03  0.00000000000E+00 0. -1.
         22    1    3    3    0    0  0.41610176398E+02 -0.14392121487E+03  0.80305567853E+02  0.16998149046E+03  0.00000000000E+00 0.  1.
         22    1    3    3    0    0 -0.45868939863E+02 -0.13485553736E+02  0.38305381273E+01  0.47963453024E+02  0.00000000000E+00 0.  1.
</event>
<event>
 7    1  0.7961130E-006  0.1252038E+03  0.7818608E-02  0.1311762E+00
          2   -1    0    0  502    0  0.00000000000E+00  0.00000000000E+00  0.19770119610E+04  0.19770119610E+04  0.00000000000E+00 0. -1.
          1   -1    0    0  501    0 -0.00000000000E+00 -0.00000000000E+00 -0.37795380875E+02  0.37795380875E+02  0.00000000000E+00 0. -1.
         25    2    1    2    0    0  0.36666306030E+02  0.75417130816E+02  0.55117651470E+03  0.57136071093E+03  0.12500140009E+03 0.  0.
          2    1    1    2  501    0  0.46308352401E+02  0.37597170783E+02  0.12709251769E+02  0.60987997455E+02  0.00000000000E+00 0. -1.
          1    1    1    2  502    0 -0.82974658431E+02 -0.11301430160E+03  0.13753308137E+04  0.13824586335E+04  0.00000000000E+00 0. -1.
         22    1    3    3    0    0 -0.24614866513E+02  0.63558511519E+02  0.14269018108E+03  0.15813305732E+03  0.00000000000E+00 0.  1.
         22    1    3    3    0    0  0.61281172544E+02  0.11858619297E+02  0.40848633362E+03  0.41322765362E+03  0.00000000000E+00 0.  1.
</event>
<event>
 7    1  0.7961130E-006  0.2600301E+03  0.7818608E-02  0.1197632E+00
          2   -1    0    0  502    0  0.00000000000E+00  0.00000000000E+00  0.30058825439E+03  0.30058825439E+03  0.00000000000E+00 0. -1.
          1   -1    0    0  501    0 -0.00000000000E+00 -0.00000000000E+00 -0.18221089487E+04  0.18221089487E+04  0.00000000000E+00 0. -1.
         25    2    1    2    0    0  0.28762379636E+03  0.74459358917E+02 -0.23826331758E+03  0.40083185026E+03  0.12500047724E+03 0.  0.
          2    1    1    2  501    0 -0.69834808157E+02  0.55566505556E+02 -0.14273544020E+04  0.14301416454E+04  0.00000000000E+00 0. -1.
          1    1    1    2  502    0 -0.21778898821E+03 -0.13002586447E+03  0.14409702524E+03  0.29172370747E+03  0.00000000000E+00 0. -1.
         22    1    3    3    0    0  0.24602762053E+03  0.28547189950E+02 -0.23059530087E+03  0.33840615376E+03  0.00000000000E+00 0. -1.
         22    1    3    3    0    0  0.41596175830E+02  0.45912168967E+02 -0.76680167127E+01  0.62425696498E+02  0.00000000000E+00 0. -1.
</event>
<event>
 7    1  0.7961130E-006  0.7482573E+02  0.7818608E-02  0.1380862E+00
          2   -1    0    0  502    0  0.00000000000E+00  0.00000000000E+00  0.28350712872E+03  0.28350712872E+03  0.00000000000E+00 0. -1.
          1   -1    0    0  501    0 -0.00000000000E+00 -0.00000000000E+00 -0.11670240356E+04  0.11670240356E+04  0.00000000000E+00 0. -1.
         25    2    1    2    0    0  0.10045852214E+03 -0.52350352300E+02 -0.36527438825E+03  0.40234520987E+03  0.12499526047E+03 0.  0.
          2    1    1    2  501    0 -0.45431395525E+02  0.55996107655E+02 -0.77866081490E+03  0.78199248106E+03  0.00000000000E+00 0. -1.
          1    1    1    2  502    0 -0.55027126619E+02 -0.36457553556E+01  0.26041829632E+03  0.26619347335E+03  0.00000000000E+00 0. -1.
         22    1    3    3    0    0 -0.29017974130E+02 -0.96118265636E+01 -0.46651812195E+02  0.55774739924E+02  0.00000000000E+00 0.  1.
         22    1    3    3    0    0  0.12947649628E+03 -0.42738525736E+02 -0.31862257605E+03  0.34657046995E+03  0.00000000000E+00 0.  1.
</event>
<event>
 7    1  0.7961130E-006  0.7970615E+02  0.7818608E-02  0.1353825E+00
          2   -1    0    0  502    0  0.00000000000E+00  0.00000000000E+00  0.17902816159E+03  0.17902816159E+03  0.00000000000E+00 0. -1.
          1   -1    0    0  501    0 -0.00000000000E+00 -0.00000000000E+00 -0.89992692666E+03  0.89992692666E+03  0.00000000000E+00 0. -1.
         25    2    1    2    0    0 -0.65035614152E+02 -0.84746496961E+02 -0.29466190151E+03  0.33743492319E+03  0.12500036532E+03 0.  0.
          2    1    1    2  501    0  0.75847001714E+02  0.20838043095E+02 -0.57442053281E+03  0.57978094159E+03  0.00000000000E+00 0. -1.
          1    1    1    2  502    0 -0.10811387562E+02  0.63908453866E+02  0.14818366926E+03  0.16173922348E+03  0.00000000000E+00 0. -1.
         22    1    3    3    0    0 -0.59296870385E+02 -0.19171467927E+02 -0.25057797281E+03  0.25821112385E+03  0.00000000000E+00 0.  1.
         22    1    3    3    0    0 -0.57387437674E+01 -0.65575029034E+02 -0.44083928704E+02  0.79223799346E+02  0.00000000000E+00 0.  1.
</event>
<event>
 7    1  0.7961130E-006  0.6661772E+03  0.7818608E-02  0.1165415E+00
          2   -1    0    0  502    0  0.00000000000E+00  0.00000000000E+00  0.33634396250E+04  0.33634396250E+04  0.00000000000E+00 0. -1.
          1   -1    0    0  501    0 -0.00000000000E+00 -0.00000000000E+00 -0.35169102317E+03  0.35169102317E+03  0.00000000000E+00 0. -1.
         25    2    1    2    0    0 -0.51884211650E+03 -0.44895885068E+03  0.46682746524E+03  0.83923479494E+03  0.12500386906E+03 0.  0.
          2    1    1    2  501    0  0.46893744492E+03  0.44602882370E+03  0.46870925385E+03  0.79908222572E+03  0.00000000000E+00 0. -1.
          1    1    1    2  502    0  0.49904671579E+02  0.29300269855E+01  0.20762118828E+04  0.20768136275E+04  0.00000000000E+00 0. -1.
         22    1    3    3    0    0 -0.19663773775E+02 -0.42161738470E+02  0.49712378478E+01  0.46786636934E+02  0.00000000000E+00 0.  1.
         22    1    3    3    0    0 -0.49917834273E+03 -0.40679711222E+03  0.46185622739E+03  0.79244815801E+03  0.00000000000E+00 0.  1.
</event>
<event>
 7    1  0.7961130E-006  0.1353386E+03  0.7818608E-02  0.1355103E+00
          2   -1    0    0  502    0  0.00000000000E+00  0.00000000000E+00  0.89780796662E+03  0.89780796662E+03  0.00000000000E+00 0. -1.
          1   -1    0    0  501    0 -0.00000000000E+00 -0.00000000000E+00 -0.15548906521E+03  0.15548906521E+03  0.00000000000E+00 0. -1.
         25    2    1    2    0    0 -0.12348190093E+03 -0.53947432066E+02  0.12154204549E+03  0.22035377740E+03  0.12500085244E+03 0.  0.
          2    1    1    2  501    0  0.18716165539E+02 -0.32796977793E+02 -0.96112621233E+02  0.10326457556E+03  0.00000000000E+00 0. -1.
          1    1    1    2  502    0  0.10476573539E+03  0.86744409859E+02  0.71688947715E+03  0.72967867887E+03  0.00000000000E+00 0. -1.
         22    1    3    3    0    0  0.70149744420E+01 -0.40965660544E+02  0.16091004948E-01  0.41561947369E+02  0.00000000000E+00 0. -1.
         22    1    3    3    0    0 -0.13049687537E+03 -0.12981771523E+02  0.12152595449E+03  0.17879183004E+03  0.00000000000E+00 0. -1.
</event>
<event>
 7    1  0.7961130E-006  0.4052895E+02  0.7818608E-02  0.1558403E+00
          2   -1    0    0  502    0  0.00000000000E+00  0.00000000000E+00  0.15253887952E+03  0.15253887952E+03  0.00000000000E+00 0. -1.
          1   -1    0    0  501    0 -0.00000000000E+00 -0.00000000000E+00 -0.66643443114E+03  0.66643443114E+03  0.00000000000E+00 0. -1.
         25    2    1    2    0    0 -0.16943644414E+02 -0.84948095931E+01 -0.17414502396E+03  0.21519895591E+03  0.12499940951E+03 0.  0.
          2    1    1    2  501    0  0.41173262543E+02 -0.62995738356E+01 -0.46930303402E+03  0.47114781112E+03  0.00000000000E+00 0. -1.
          1    1    1    2  502    0 -0.24229618129E+02  0.14794383429E+02  0.12955250635E+03  0.13262654364E+03  0.00000000000E+00 0. -1.
         22    1    3    3    0    0 -0.26547769996E+02  0.79635501817E+01  0.10451462060E+02  0.29621534100E+02  0.00000000000E+00 0. -1.
         22    1    3    3    0    0  0.96041255818E+01 -0.16458359775E+02 -0.18459648602E+03  0.18557742181E+03  0.00000000000E+00 0. -1.
</event>
<event>
 7    1  0.7961130E-006  0.4609882E+02  0.7818608E-02  0.1558167E+00
          2   -1    0    0  502    0  0.00000000000E+00  0.00000000000E+00  0.12108629483E+04  0.12108629483E+04  0.00000000000E+00 0. -1.
          1   -1    0    0  501    0 -0.00000000000E+00 -0.00000000000E+00 -0.44524302049E+03  0.44524302049E+03  0.00000000000E+00 0. -1.
         25    2    1    2    0    0 -0.47919498204E+02  0.33637733400E+02 -0.18360362968E+03  0.22970533564E+03  0.12500589175E+03 0.  0.
          2    1    1    2  501    0  0.44472909430E+02 -0.88799741356E+01 -0.23630053702E+03  0.24061304497E+03  0.00000000000E+00 0. -1.
          1    1    1    2  502    0  0.34465887750E+01 -0.24757759264E+02  0.11855240945E+04  0.11857875882E+04  0.00000000000E+00 0. -1.
         22    1    3    3    0    0 -0.29154705206E+01 -0.20033325646E+02 -0.15116733611E+03  0.15251687648E+03  0.00000000000E+00 0. -1.
         22    1    3    3    0    0 -0.45004027684E+02  0.53671059046E+02 -0.32436293570E+02  0.77188459159E+02  0.00000000000E+00 0. -1.
</event>
<event>
 7    1  0.7961130E-006  0.8835167E+02  0.7818608E-02  0.1475651E+00
          2   -1    0    0  502    0  0.00000000000E+00  0.00000000000E+00  0.13906108082E+04  0.13906108082E+04  0.00000000000E+00 0. -1.
          1   -1    0    0  501    0 -0.00000000000E+00 -0.00000000000E+00 -0.25694632941E+04  0.25694632941E+04  0.00000000000E+00 0. -1.
         25    2    1    2    0    0 -0.33298034425E+00  0.84948057369E+02  0.24189124140E+03  0.28522560704E+03  0.12500396360E+03 0.  0.
          2    1    1    2  501    0 -0.22367791337E+02 -0.85492157434E+02 -0.25469153524E+04  0.25484479668E+04  0.00000000000E+00 0. -1.
          1    1    1    2  502    0  0.22700771681E+02  0.54410006511E+00  0.11261716252E+04  0.11264005284E+04  0.00000000000E+00 0. -1.
         22    1    3    3    0    0  0.41131064152E+02 -0.27452064061E+00  0.14067319947E+03  0.14656325886E+03  0.00000000000E+00 0. -1.
         22    1    3    3    0    0 -0.41464044496E+02  0.85222578009E+02  0.10121804193E+03  0.13866234817E+03  0.00000000000E+00 0. -1.
</event>
<event>
 7    1  0.7961130E-006  0.2437220E+02  0.7818608E-02  0.1691477E+00
          2   -1    0    0  502    0  0.00000000000E+00  0.00000000000E+00  0.52767626362E+03  0.52767626362E+03  0.00000000000E+00 0. -1.
          1   -1    0    0  501    0 -0.00000000000E+00 -0.00000000000E+00 -0.10022541574E+04  0.10022541574E+04  0.00000000000E+00 0. -1.
         25    2    1    2    0    0 -0.24263891640E+02 -0.25495143023E+02  0.30401846409E+03  0.33059258244E+03  0.12500196121E+03 0.  0.
          2    1    1    2  501    0  0.21658729519E+02  0.14756853588E+01 -0.98815380572E+03  0.98839224095E+03  0.00000000000E+00 0. -1.
          1    1    1    2  502    0  0.26051621208E+01  0.24019457664E+02  0.20955744784E+03  0.21094559764E+03  0.00000000000E+00 0. -1.
         22    1    3    3    0    0 -0.51432805758E+02 -0.21649743732E+02  0.29709840729E+03  0.30229374543E+03  0.00000000000E+00 0. -1.
         22    1    3    3    0    0  0.27168914119E+02 -0.38453992913E+01  0.69200567939E+01  0.28298837010E+02  0.00000000000E+00 0. -1.
</event>
<event>
 7    1  0.7961130E-006  0.1020795E+03  0.7818608E-02  0.1336055E+00
          2   -1    0    0  502    0  0.00000000000E+00  0.00000000000E+00  0.21417842280E+04  0.21417842280E+04  0.00000000000E+00 0. -1.
          1   -1    0    0  501    0 -0.00000000000E+00 -0.00000000000E+00 -0.54716132953E+03  0.54716132953E+03  0.00000000000E+00 0. -1.
         25    2    1    2    0    0  0.35311381497E+02 -0.30017059733E+02  0.13686089693E+03  0.19105894134E+03  0.12499878567E+03 0.  0.
          2    1    1    2  501    0  0.50598965090E+02 -0.30274726690E+02 -0.51699289119E+03  0.52034456265E+03  0.00000000000E+00 0. -1.
          1    1    1    2  502    0 -0.85910346586E+02  0.60291786423E+02  0.19747548927E+04  0.19775420535E+04  0.00000000000E+00 0. -1.
         22    1    3    3    0    0  0.46092078992E+02  0.28678433427E+02  0.16536748963E+02  0.56748536157E+02  0.00000000000E+00 0. -1.
         22    1    3    3    0    0 -0.10780697496E+02 -0.58695493160E+02  0.12032414797E+03  0.13431040518E+03  0.00000000000E+00 0. -1.
</event>
<event>
 7    1  0.7961130E-006  0.4256142E+02  0.7818608E-02  0.1565283E+00
          2   -1    0    0  502    0  0.00000000000E+00  0.00000000000E+00  0.19895824433E+04  0.19895824433E+04  0.00000000000E+00 0. -1.
          1   -1    0    0  501    0 -0.00000000000E+00 -0.00000000000E+00 -0.41342306264E+02  0.41342306264E+02  0.00000000000E+00 0. -1.
         25    2    1    2    0    0 -0.14186073731E+02 -0.12976504802E+02  0.95697768098E+03  0.96529834590E+03  0.12499992139E+03 0.  0.
          2    1    1    2  501    0  0.39933578012E+02  0.15619116320E+02 -0.24599593825E+02  0.49434678757E+02  0.00000000000E+00 0. -1.
          1    1    1    2  502    0 -0.25747504281E+02 -0.26426115185E+01  0.10158620498E+04  0.10161917249E+04  0.00000000000E+00 0. -1.
         22    1    3    3    0    0 -0.35614648484E+02  0.48737782262E+02  0.40642654200E+03  0.41088478756E+03  0.00000000000E+00 0. -1.
         22    1    3    3    0    0  0.21428574754E+02 -0.61714287063E+02  0.55055113898E+03  0.55441355835E+03  0.00000000000E+00 0. -1.
</event>
<event>
 7    1  0.7961130E-006  0.6467746E+02  0.7818608E-02  0.1385085E+00
          2   -1    0    0  502    0  0.00000000000E+00  0.00000000000E+00  0.44096306787E+03  0.44096306787E+03  0.00000000000E+00 0. -1.
          1   -1    0    0  501    0 -0.00000000000E+00 -0.00000000000E+00 -0.29324366319E+03  0.29324366319E+03  0.00000000000E+00 0. -1.
         25    2    1    2    0    0 -0.10083404086E+02  0.80443314018E+02  0.32705795949E+03  0.35939479367E+03  0.12499962816E+03 0.  0.
          2    1    1    2  501    0  0.52450337835E+02 -0.32399764719E+02 -0.26261226800E+03  0.26975171175E+03  0.00000000000E+00 0. -1.
          1    1    1    2  502    0 -0.42366933749E+02 -0.48043549299E+02  0.83273713184E+02  0.10506022564E+03  0.00000000000E+00 0. -1.
         22    1    3    3    0    0  0.61716850365E+01 -0.22820540858E+02  0.10215580722E+02  0.25753152636E+02  0.00000000000E+00 0.  1.
         22    1    3    3    0    0 -0.16255089122E+02  0.10326385488E+03  0.31684237877E+03  0.33364164103E+03  0.00000000000E+00 0.  1.
</event>
<event>
 7    1  0.7961130E-006  0.1100279E+03  0.7818608E-02  0.1327156E+00
          2   -1    0    0  502    0  0.00000000000E+00  0.00000000000E+00  0.55050587182E+03  0.55050587182E+03  0.00000000000E+00 0. -1.
          1   -1    0    0  501    0 -0.00000000000E+00 -0.00000000000E+00 -0.38303018541E+03  0.38303018541E+03  0.00000000000E+00 0. -1.
         25    2    1    2    0    0  0.19694126840E+02  0.65717521830E+02 -0.13721818933E+02  0.14324972204E+03  0.12500217295E+03 0.  0.
          2    1    1    2  501    0  0.82974305661E+01 -0.11782248109E+03 -0.29117797631E+03  0.31422221164E+03  0.00000000000E+00 0. -1.
          1    1    1    2  502    0 -0.27991557406E+02  0.52104959263E+02  0.47237548165E+03  0.47606412355E+03  0.00000000000E+00 0. -1.
         22    1    3    3    0    0 -0.28489723806E+02  0.15136127168E+01  0.38177607629E+02  0.47660099772E+02  0.00000000000E+00 0. -1.
         22    1    3    3    0    0  0.48183850646E+02  0.64203909113E+02 -0.51899426563E+02  0.95589622272E+02  0.00000000000E+00 0. -1.
</event>
<event>
 7    1  0.7961130E-006  0.1120067E+03  0.7818608E-02  0.1418645E+00
          2   -1    0    0  502    0  0.00000000000E+00  0.00000000000E+00  0.91260500195E+03  0.91260500195E+03  0.00000000000E+00 0. -1.
          1   -1    0    0  501    0 -0.00000000000E+00 -0.00000000000E+00 -0.79845410227E+03  0.79845410227E+03  0.00000000000E+00 0. -1.
         25    2    1    2    0    0  0.32897915149E+01  0.13051472490E+03  0.11110985589E+02  0.18108767681E+03  0.12499750616E+03 0.  0.
          2    1    1    2  501    0 -0.20527716531E+02 -0.10933091402E+03 -0.70889865921E+03  0.71757365123E+03  0.00000000000E+00 0. -1.
          1    1    1    2  502    0  0.17237925016E+02 -0.21183810886E+02  0.81193857331E+03  0.81239777618E+03  0.00000000000E+00 0. -1.
         22    1    3    3    0    0  0.23872275569E+02  0.56702143618E+02  0.63380648482E+02  0.88329639611E+02  0.00000000000E+00 0. -1.
         22    1    3    3    0    0 -0.20582484054E+02  0.73812581286E+02 -0.52269662894E+02  0.92758037198E+02  0.00000000000E+00 0. -1.
</event>
<event>
 7    1  0.7961130E-006  0.1329942E+03  0.7818608E-02  0.1360694E+00
          2   -1    0    0  502    0  0.00000000000E+00  0.00000000000E+00  0.92742995794E+03  0.92742995794E+03  0.00000000000E+00 0. -1.
          1   -1    0    0  501    0 -0.00000000000E+00 -0.00000000000E+00 -0.23835854834E+03  0.23835854834E+03  0.00000000000E+00 0. -1.
         25    2    1    2    0    0  0.81019884345E+02  0.12639000580E+03  0.78380712451E+02  0.21049304858E+03  0.12500052876E+03 0.  0.
          2    1    1    2  501    0 -0.92940866797E+02 -0.91724166044E+02 -0.14705507482E+03  0.19666347497E+03  0.00000000000E+00 0. -1.
          1    1    1    2  502    0  0.11920982453E+02 -0.34665839753E+02  0.75774577198E+03  0.75863198273E+03  0.00000000000E+00 0. -1.
         22    1    3    3    0    0 -0.42300452050E+01 -0.19741123101E+02 -0.65054544412E+01  0.21211462967E+02  0.00000000000E+00 0. -1.
         22    1    3    3    0    0  0.85249929550E+02  0.14613112890E+03  0.84886166892E+02  0.18928158561E+03  0.00000000000E+00 0. -1.
</event>
<event>
 7    1  0.7961130E-006  0.1667172E+03  0.7818608E-02  0.1208804E+00
          2   -1    0    0  502    0  0.00000000000E+00  0.00000000000E+00  0.30410878953E+04  0.30410878953E+04  0.00000000000E+00 0. -1.
          1   -1    0    0  501    0 -0.00000000000E+00 -0.00000000000E+00 -0.25348188756E+03  0.25348188756E+03  0.00000000000E+00 0. -1.
         25    2    1    2    0    0  0.29307840666E+02 -0.25757990707E+03  0.71762375388E+02  0.29661691853E+03  0.12500159914E+03 0.  0.
          2    1    1    2  501    0 -0.56571697232E+02  0.13725709409E+03 -0.10026374311E+03  0.17914431330E+03  0.00000000000E+00 0. -1.
          1    1    1    2  502    0  0.27263856566E+02  0.12032281298E+03  0.28161073755E+04  0.28188085510E+04  0.00000000000E+00 0. -1.
         22    1    3    3    0    0 -0.36221629915E+02 -0.12384586127E+03  0.71852919391E+02  0.14769104865E+03  0.00000000000E+00 0. -1.
         22    1    3    3    0    0  0.65529470581E+02 -0.13373404580E+03 -0.90544002798E-01  0.14892586988E+03  0.00000000000E+00 0. -1.
</event>
<event>
 7    1  0.7961130E-006  0.1494403E+03  0.7818608E-02  0.1330417E+00
          2   -1    0    0  502    0  0.00000000000E+00  0.00000000000E+00  0.10671346014E+04  0.10671346014E+04  0.00000000000E+00 0. -1.
          1   -1    0    0  501    0 -0.00000000000E+00 -0.00000000000E+00 -0.58497427332E+03  0.58497427332E+03  0.00000000000E+00 0. -1.
         25    2    1    2    0    0 -0.60155118881E+02 -0.17104088793E+03  0.17435062938E+03  0.28088636171E+03  0.12500153024E+03 0.  0.
          2    1    1    2  501    0  0.26227161042E+02  0.14575378910E+03 -0.52084398519E+03  0.54148913925E+03  0.00000000000E+00 0. -1.
          1    1    1    2  502    0  0.33927957839E+02  0.25287098824E+02  0.82865368387E+03  0.82973337373E+03  0.00000000000E+00 0. -1.
         22    1    3    3    0    0 -0.31420122090E+02 -0.18324673141E+03  0.16422521342E+03  0.24806553442E+03  0.00000000000E+00 0. -1.
         22    1    3    3    0    0 -0.28734996791E+02  0.12205843487E+02  0.10125415960E+02  0.32820827293E+02  0.00000000000E+00 0. -1.
</event>
<event>
 7    1  0.7961130E-006  0.9668170E+02  0.7818608E-02  0.1473636E+00
          2   -1    0    0  502    0  0.00000000000E+00  0.00000000000E+00  0.44935377974E+03  0.44935377974E+03  0.00000000000E+00 0. -1.
          1   -1    0    0  501    0 -0.00000000000E+00 -0.00000000000E+00 -0.59186814306E+03  0.59186814306E+03  0.00000000000E+00 0. -1.
         25    2    1    2    0    0  0.32912287049E+02  0.85393280736E+02  0.45071437384E+02  0.16133836882E+03  0.12499361484E+03 0.  0.
          2    1    1    2  501    0 -0.17966738526E+02  0.10969268010E+02 -0.52665244611E+03  0.52707298122E+03  0.00000000000E+00 0. -1.
          1    1    1    2  502    0 -0.14945548523E+02 -0.96362548746E+02  0.33906664541E+03  0.35281057276E+03  0.00000000000E+00 0. -1.
         22    1    3    3    0    0 -0.40191215325E+02  0.17420146026E+02 -0.13203875830E+02  0.45750820908E+02  0.00000000000E+00 0.  1.
         22    1    3    3    0    0  0.73103502374E+02  0.67973134710E+02  0.58275313214E+02  0.11558754791E+03  0.00000000000E+00 0.  1.
</event>
<event>
 7    1  0.7961130E-006  0.8196975E+02  0.7818608E-02  0.1390081E+00
          2   -1    0    0  502    0  0.00000000000E+00  0.00000000000E+00  0.18973008643E+04  0.18973008643E+04  0.00000000000E+00 0. -1.
          1   -1    0    0  501    0 -0.00000000000E+00 -0.00000000000E+00 -0.90979741683E+02  0.90979741683E+02  0.00000000000E+00 0. -1.
         25    2    1    2    0    0  0.44327094470E+02  0.17008603433E+01  0.99479466071E+02  0.16579901566E+03  0.12500146077E+03 0.  0.
          2    1    1    2  501    0  0.29895147089E+02  0.35908443363E+02 -0.47230594360E+02  0.66436926237E+02  0.00000000000E+00 0. -1.
          1    1    1    2  502    0 -0.74222241559E+02 -0.37609303706E+02  0.17540722509E+04  0.17560446641E+04  0.00000000000E+00 0. -1.
         22    1    3    3    0    0  0.77609091121E+02  0.33922667820E+02  0.51605898503E+02  0.99182091009E+02  0.00000000000E+00 0. -1.
         22    1    3    3    0    0 -0.33281996651E+02 -0.32221807476E+02  0.47873567568E+02  0.66616924650E+02  0.00000000000E+00 0. -1.
</event>
<event>
 7    1  0.7961130E-006  0.8153084E+02  0.7818608E-02  0.1428674E+00
          2   -1    0    0  502    0  0.00000000000E+00  0.00000000000E+00  0.98217854602E+02  0.98217854602E+02  0.00000000000E+00 0. -1.
          1   -1    0    0  501    0 -0.00000000000E+00 -0.00000000000E+00 -0.55546926139E+03  0.55546926139E+03  0.00000000000E+00 0. -1.
         25    2    1    2    0    0 -0.93696538106E+02 -0.56088555354E+02 -0.85884820049E+02  0.18688116413E+03  0.12499359942E+03 0.  0.
          2    1    1    2  501    0  0.59057575095E+02  0.53324426106E+02 -0.40836681463E+03  0.41604656817E+03  0.00000000000E+00 0. -1.
          1    1    1    2  502    0  0.34638963011E+02  0.27641292482E+01  0.37000227890E+02  0.50759383693E+02  0.00000000000E+00 0. -1.
         22    1    3    3    0    0 -0.48051400136E+02 -0.82912166770E+01 -0.10692739282E+03  0.11752084353E+03  0.00000000000E+00 0.  1.
         22    1    3    3    0    0 -0.45645137970E+02 -0.47797338677E+02  0.21042572768E+02  0.69360320599E+02  0.00000000000E+00 0.  1.
</event>
<event>
 7    1  0.7961130E-006  0.2454081E+03  0.7818608E-02  0.1140262E+00
          2   -1    0    0  502    0  0.00000000000E+00  0.00000000000E+00  0.93276279458E+03  0.93276279458E+03  0.00000000000E+00 0. -1.
          1   -1    0    0  501    0 -0.00000000000E+00 -0.00000000000E+00 -0.10559937874E+04  0.10559937874E+04  0.00000000000E+00 0. -1.
         25    2    1    2    0    0  0.84282718970E+02 -0.13814869672E+02  0.82407742931E+02  0.17235984454E+03  0.12498980988E+03 0.  0.
          2    1    1    2  501    0 -0.26490720644E+03  0.40220541329E+02 -0.98249783412E+03  0.10183788657E+04  0.00000000000E+00 0. -1.
          1    1    1    2  502    0  0.18062448747E+03 -0.26405671657E+02  0.77685909837E+03  0.79801787178E+03  0.00000000000E+00 0. -1.
         22    1    3    3    0    0  0.99302232333E+01  0.51362469982E+02  0.32697422319E+02  0.61691442538E+02  0.00000000000E+00 0. -1.
         22    1    3    3    0    0  0.74352495737E+02 -0.65177339653E+02  0.49710320612E+02  0.11066840200E+03  0.00000000000E+00 0. -1.
</event>
<event>
 7    1  0.7961130E-006  0.7134539E+02  0.7818608E-02  0.1475447E+00
          2   -1    0    0  502    0  0.00000000000E+00  0.00000000000E+00  0.18482054442E+03  0.18482054442E+03  0.00000000000E+00 0. -1.
          1   -1    0    0  501    0 -0.00000000000E+00 -0.00000000000E+00 -0.78410490380E+03  0.78410490380E+03  0.00000000000E+00 0. -1.
         25    2    1    2    0    0 -0.49297166450E+02  0.61586821466E+02 -0.81884773019E+02  0.16897723488E+03  0.12500017063E+03 0.  0.
          2    1    1    2  501    0  0.27484333716E+02  0.61349851766E+01 -0.64939153060E+03  0.65000183589E+03  0.00000000000E+00 0. -1.
          1    1    1    2  502    0  0.21812832733E+02 -0.67721806643E+02  0.13199194424E+03  0.14994637745E+03  0.00000000000E+00 0. -1.
         22    1    3    3    0    0 -0.64216085770E+02  0.27633783268E+02 -0.10436031029E+03  0.12561212526E+03  0.00000000000E+00 0. -1.
         22    1    3    3    0    0  0.14918919320E+02  0.33953038198E+02  0.22475537271E+02  0.43365109618E+02  0.00000000000E+00 0. -1.
</event>
<event>
 7    1  0.7961130E-006  0.8833345E+02  0.7818608E-02  0.1332497E+00
          2   -1    0    0  502    0  0.00000000000E+00  0.00000000000E+00  0.99506686140E+03  0.99506686140E+03  0.00000000000E+00 0. -1.
          1   -1    0    0  501    0 -0.00000000000E+00 -0.00000000000E+00 -0.14822761043E+03  0.14822761043E+03  0.00000000000E+00 0. -1.
         25    2    1    2    0    0  0.53142834926E+02  0.91429705116E+02  0.22843034008E+02  0.16531940422E+03  0.12500059730E+03 0.  0.
          2    1    1    2  501    0 -0.84417829733E+02 -0.28478100905E+02 -0.49321447204E+02  0.10183308579E+03  0.00000000000E+00 0. -1.
          1    1    1    2  502    0  0.31274994808E+02 -0.62951604211E+02  0.87331766416E+03  0.87614198182E+03  0.00000000000E+00 0. -1.
         22    1    3    3    0    0 -0.36291759465E+02  0.22603398243E+01  0.13107931763E+02  0.38652539584E+02  0.00000000000E+00 0.  1.
         22    1    3    3    0    0  0.89434594390E+02  0.89169365292E+02  0.97351022444E+01  0.12666686463E+03  0.00000000000E+00 0.  1.
</event>
<event>
 7    1  0.7961130E-006  0.4968999E+02  0.7818608E-02  0.1470068E+00
          2   -1    0    0  502    0  0.00000000000E+00  0.00000000000E+00  0.34208859956E+04  0.34208859956E+04  0.00000000000E+00 0. -1.
          1   -1    0    0  501    0 -0.00000000000E+00 -0.00000000000E+00 -0.17840030213E+03  0.17840030213E+03  0.00000000000E+00 0. -1.
         25    2    1    2    0    0 -0.90207281275E+02 -0.12043216847E+02  0.25262367401E+03  0.29618625677E+03  0.12500074145E+03 0.  0.
          2    1    1    2  501    0  0.40953378321E+02  0.93877887796E+01 -0.15360419995E+03  0.15924685246E+03  0.00000000000E+00 0. -1.
          1    1    1    2  502    0  0.49253902953E+02  0.26554280675E+01  0.31434662194E+04  0.31438531885E+04  0.00000000000E+00 0. -1.
         22    1    3    3    0    0  0.23651886122E+01  0.13682552467E+01  0.17391990206E+03  0.17394136533E+03  0.00000000000E+00 0. -1.
         22    1    3    3    0    0 -0.92572469887E+02 -0.13411472094E+02  0.78703771948E+02  0.12224489144E+03  0.00000000000E+00 0. -1.
</event>
<event>
 7    1  0.7961130E-006  0.1285648E+03  0.7818608E-02  0.1249978E+00
          2   -1    0    0  502    0  0.00000000000E+00  0.00000000000E+00  0.25026611932E+04  0.25026611932E+04  0.00000000000E+00 0. -1.
          1   -1    0    0  501    0 -0.00000000000E+00 -0.00000000000E+00 -0.92277258158E+02  0.92277258158E+02  0.00000000000E+00 0. -1.
         25    2    1    2    0    0  0.94477288242E+02 -0.18911133339E+03  0.36744843837E+03  0.44196700777E+03  0.12500970635E+03 0.  0.
          2    1    1    2  501    0 -0.82051188109E+02  0.64754229252E+02 -0.16812680769E+01  0.10453867389E+03  0.00000000000E+00 0. -1.
          1    1    1    2  502    0 -0.12426100133E+02  0.12435710414E+03  0.20446167648E+04  0.20484327697E+04  0.00000000000E+00 0. -1.
         22    1    3    3    0    0  0.53312290605E+02 -0.96711329422E+02  0.77589379293E+02  0.13496441511E+03  0.00000000000E+00 0.  1.
         22    1    3    3    0    0  0.41164997637E+02 -0.92400003970E+02  0.28985905908E+03  0.30700259265E+03  0.00000000000E+00 0.  1.
</event>
<event>
 7    1  0.7961130E-006  0.9965511E+02  0.7818608E-02  0.1322919E+00
          2   -1    0    0  502    0  0.00000000000E+00  0.00000000000E+00  0.45429851629E+03  0.45429851629E+03  0.00000000000E+00 0. -1.
          1   -1    0    0  501    0 -0.00000000000E+00 -0.00000000000E+00 -0.19008533189E+03  0.19008533189E+03  0.00000000000E+00 0. -1.
         25    2    1    2    0    0 -0.10853559925E+03  0.67084891133E+02  0.20924726771E+03  0.27511549512E+03  0.12499503065E+03 0.  0.
          2    1    1    2  501    0  0.65563786989E+02  0.17284129876E+02 -0.13831619850E+03  0.15404129991E+03  0.00000000000E+00 0. -1.
          1    1    1    2  502    0  0.42971812264E+02 -0.84369021009E+02  0.19328211519E+03  0.21522705315E+03  0.00000000000E+00 0. -1.
         22    1    3    3    0    0  0.26558702483E+02  0.25340111629E+02  0.51913002987E+02  0.63580231315E+02  0.00000000000E+00 0. -1.
         22    1    3    3    0    0 -0.13509430174E+03  0.41744779505E+02  0.15733426473E+03  0.21153526381E+03  0.00000000000E+00 0. -1.
</event>
<event>
 7    1  0.7961130E-006  0.1099606E+03  0.7818608E-02  0.1399701E+00
          2   -1    0    0  502    0  0.00000000000E+00  0.00000000000E+00  0.39560398411E+04  0.39560398411E+04  0.00000000000E+00 0. -1.
          1   -1    0    0  501    0 -0.00000000000E+00 -0.00000000000E+00 -0.14922741334E+02  0.14922741334E+02  0.00000000000E+00 0. -1.
         25    2    1    2    0    0  0.93951880748E+02 -0.68967353594E+02  0.28063573447E+04  0.28115557332E+04  0.12498257120E+03 0.  0.
          2    1    1    2  501    0  0.50105846565E+01  0.31865746576E+02  0.16627221232E+02  0.36290442948E+02  0.00000000000E+00 0. -1.
          1    1    1    2  502    0 -0.98962465404E+02  0.37101607018E+02  0.11181325339E+04  0.11231164063E+04  0.00000000000E+00 0. -1.
         22    1    3    3    0    0 -0.25306651570E+01 -0.62514924544E+02  0.16414123460E+04  0.16426043375E+04  0.00000000000E+00 0. -1.
         22    1    3    3    0    0  0.96482545905E+02 -0.64524290501E+01  0.11649449987E+04  0.11689513957E+04  0.00000000000E+00 0. -1.
</event>
<event>
 7    1  0.7961130E-006  0.6965930E+02  0.7818608E-02  0.1447301E+00
          2   -1    0    0  502    0  0.00000000000E+00  0.00000000000E+00  0.21527999018E+04  0.21527999018E+04  0.00000000000E+00 0. -1.
          1   -1    0    0  501    0 -0.00000000000E+00 -0.00000000000E+00 -0.11981852181E+03  0.11981852181E+03  0.00000000000E+00 0. -1.
         25    2    1    2    0    0 -0.66178040683E+02  0.62973448425E+02  0.30367688543E+03  0.34086644395E+03  0.12500037436E+03 0.  0.
          2    1    1    2  501    0  0.63246851236E+02 -0.27723202109E+02 -0.89253992012E+02  0.11284952466E+03  0.00000000000E+00 0. -1.
          1    1    1    2  502    0  0.29311894468E+01 -0.35250246316E+02  0.18185584866E+04  0.18189024550E+04  0.00000000000E+00 0. -1.
         22    1    3    3    0    0 -0.17542364630E+01  0.84690220733E+02  0.14000853464E+03  0.16363954475E+03  0.00000000000E+00 0. -1.
         22    1    3    3    0    0 -0.64423804220E+02 -0.21716772308E+02  0.16366835079E+03  0.17722689920E+03  0.00000000000E+00 0. -1.
</event>
<event>
 7    1  0.7961130E-006  0.1221517E+03  0.7818608E-02  0.1300696E+00
          2   -1    0    0  502    0  0.00000000000E+00  0.00000000000E+00  0.99281380705E+02  0.99281380705E+02  0.00000000000E+00 0. -1.
          1   -1    0    0  501    0 -0.00000000000E+00 -0.00000000000E+00 -0.54313219859E+03  0.54313219859E+03  0.00000000000E+00 0. -1.
         25    2    1    2    0    0 -0.13837939677E+03 -0.96322572552E+02 -0.31129850692E+03  0.37544444485E+03  0.12499950130E+03 0.  0.
          2    1    1    2  501    0  0.86190259133E+02  0.53297231424E+02 -0.16368100436E+03  0.19251188752E+03  0.00000000000E+00 0. -1.
          1    1    1    2  502    0  0.52189137639E+02  0.43025341127E+02  0.31128693400E+02  0.74457246923E+02  0.00000000000E+00 0. -1.
         22    1    3    3    0    0 -0.14787044856E+03 -0.53846490097E+02 -0.28212674897E+03  0.32304893830E+03  0.00000000000E+00 0.  1.
         22    1    3    3    0    0  0.94910517892E+01 -0.42476082455E+02 -0.29171757953E+02  0.52395506552E+02  0.00000000000E+00 0.  1.
</event>
<event>
 7    1  0.1242322E-005  0.5111094E+02  0.7818608E-02  0.1464381E+00
          2   -1    0    0  502    0  0.00000000000E+00  0.00000000000E+00  0.11051219945E+04  0.11051219945E+04  0.00000000000E+00 0. -1.
          1   -1    0    0  501    0 -0.00000000000E+00 -0.00000000000E+00 -0.91572180354E+03  0.91572180354E+03  0.00000000000E+00 0. -1.
         25    2    1    2    0    0  0.11115130408E+02  0.39610472390E+01 -0.51909533973E+03  0.53406517104E+03  0.12500559656E+03 0.  0.
          2    1    1    2  501    0  0.37307764562E+02 -0.20465711409E+02 -0.38737975887E+03  0.38970988212E+03  0.00000000000E+00 0. -1.
          1    1    1    2  502    0 -0.48422894970E+02  0.16504664170E+02  0.10958752895E+04  0.10970687448E+04  0.00000000000E+00 0. -1.
         22    1    3    3    0    0 -0.52363583117E+02  0.51591201287E+01 -0.34003792180E+03  0.34408480004E+03  0.00000000000E+00 0.  1.
         22    1    3    3    0    0  0.63478713526E+02 -0.11980728896E+01 -0.17905741793E+03  0.18998037100E+03  0.00000000000E+00 0.  1.
</event>
<event>
 7    1  0.7961130E-006  0.6508281E+02  0.7818608E-02  0.1466593E+00
          2   -1    0    0  502    0  0.00000000000E+00  0.00000000000E+00  0.30057565660E+03  0.30057565660E+03  0.00000000000E+00 0. -1.
          1   -1    0    0  501    0 -0.00000000000E+00 -0.00000000000E+00 -0.26821401011E+03  0.26821401011E+03  0.00000000000E+00 0. -1.
         25    2    1    2    0    0 -0.65839184149E+02  0.36565890141E+01  0.45317809596E+02  0.14841461856E+03  0.12500010530E+03 0.  0.
          2    1    1    2  501    0  0.10123044080E+02  0.31292068249E+02 -0.21004374945E+03  0.21260302500E+03  0.00000000000E+00 0. -1.
          1    1    1    2  502    0  0.55716140069E+02 -0.34948657263E+02  0.19708758635E+03  0.20777202315E+03  0.00000000000E+00 0. -1.
         22    1    3    3    0    0 -0.25085089383E+02  0.47565193852E+02  0.65913124792E+02  0.85066147176E+02  0.00000000000E+00 0.  1.
         22    1    3    3    0    0 -0.40754094766E+02 -0.43908604838E+02 -0.20595315196E+02  0.63348471387E+02  0.00000000000E+00 0.  1.
</event>
<event>
 7    1  0.7961130E-006  0.1028889E+03  0.7818608E-02  0.1349460E+00
          2   -1    0    0  502    0  0.00000000000E+00  0.00000000000E+00  0.27976211036E+04  0.27976211036E+04  0.00000000000E+00 0. -1.
          1   -1    0    0  501    0 -0.00000000000E+00 -0.00000000000E+00 -0.78755039747E+02  0.78755039747E+02  0.00000000000E+00 0. -1.
         25    2    1    2    0    0  0.11931327564E+03 -0.83990084043E+02  0.63716446276E+03  0.66550231870E+03  0.12499916652E+03 0.  0.
          2    1    1    2  501    0 -0.50766566635E+02  0.11766368350E+02 -0.52721162007E+02  0.74129701439E+02  0.00000000000E+00 0. -1.
          1    1    1    2  502    0 -0.68546709000E+02  0.72223715693E+02  0.21344227631E+04  0.21367441232E+04  0.00000000000E+00 0. -1.
         22    1    3    3    0    0  0.87087521606E+02 -0.80108974694E+02  0.24585133070E+03  0.27284530608E+03  0.00000000000E+00 0.  1.
         22    1    3    3    0    0  0.32225754030E+02 -0.38811093490E+01  0.39131313206E+03  0.39265701262E+03  0.00000000000E+00 0.  1.
</event>
<event>
 7    1  0.7961130E-006  0.1554333E+03  0.7818608E-02  0.1352646E+00
          2   -1    0    0  502    0  0.00000000000E+00  0.00000000000E+00  0.14252394533E+04  0.14252394533E+04  0.00000000000E+00 0. -1.
          1   -1    0    0  501    0 -0.00000000000E+00 -0.00000000000E+00 -0.27446243806E+03  0.27446243806E+03  0.00000000000E+00 0. -1.
         25    2    1    2    0    0 -0.73743063621E+02  0.99975406134E+02  0.56519596908E+03  0.59203428609E+03  0.12499996473E+03 0.  0.
          2    1    1    2  501    0  0.10051856167E+03 -0.12022805942E+03 -0.23715022651E+03  0.28425164458E+03  0.00000000000E+00 0. -1.
          1    1    1    2  502    0 -0.26775498053E+02  0.20252653288E+02  0.82273127263E+03  0.82341596063E+03  0.00000000000E+00 0. -1.
         22    1    3    3    0    0 -0.22038309250E+02  0.78249805503E+02  0.49762131937E+03  0.50421790590E+03  0.00000000000E+00 0.  1.
         22    1    3    3    0    0 -0.51704754371E+02  0.21725600631E+02  0.67574649712E+02  0.87816380198E+02  0.00000000000E+00 0.  1.
</event>
<event>
 7    1  0.7961130E-006  0.7867311E+02  0.7818608E-02  0.1453023E+00
          2   -1    0    0  502    0  0.00000000000E+00  0.00000000000E+00  0.18838227626E+03  0.18838227626E+03  0.00000000000E+00 0. -1.
          1   -1    0    0  501    0 -0.00000000000E+00 -0.00000000000E+00 -0.10294843174E+04  0.10294843174E+04  0.00000000000E+00 0. -1.
         25    2    1    2    0    0 -0.76043282882E+01  0.65620086967E+02 -0.23621569224E+03  0.27529198974E+03  0.12499601885E+03 0.  0.
          2    1    1    2  501    0  0.27928967536E+02  0.11026249816E+02 -0.76410932195E+03  0.76469906585E+03  0.00000000000E+00 0. -1.
          1    1    1    2  502    0 -0.20324639248E+02 -0.76646336782E+02  0.15922297305E+03  0.17787553808E+03  0.00000000000E+00 0. -1.
         22    1    3    3    0    0  0.50246587107E+02 -0.35837872613E+00 -0.58676094372E+02  0.77251097092E+02  0.00000000000E+00 0.  1.
         22    1    3    3    0    0 -0.57850915395E+02  0.65978465693E+02 -0.17753959787E+03  0.19804089265E+03  0.00000000000E+00 0.  1.
</event>
<event>
 7    1  0.7961130E-006  0.7419411E+02  0.7818608E-02  0.1378909E+00
          2   -1    0    0  502    0  0.00000000000E+00  0.00000000000E+00  0.14596653691E+04  0.14596653691E+04  0.00000000000E+00 0. -1.
          1   -1    0    0  501    0 -0.00000000000E+00 -0.00000000000E+00 -0.30125961224E+03  0.30125961224E+03  0.00000000000E+00 0. -1.
         25    2    1    2    0    0  0.32987839501E+02 -0.11295563060E+03 -0.19967049710E+03  0.26332608158E+03  0.12500058315E+03 0.  0.
          2    1    1    2  501    0  0.13074094881E+02  0.54977354725E+02 -0.57188218291E+02  0.80398593276E+02  0.00000000000E+00 0. -1.
          1    1    1    2  502    0 -0.46061934382E+02  0.57978275872E+02  0.14152644723E+04  0.14172003065E+04  0.00000000000E+00 0. -1.
         22    1    3    3    0    0  0.51924563374E+02 -0.12785383001E+03 -0.12991899298E+03  0.18953022679E+03  0.00000000000E+00 0.  1.
         22    1    3    3    0    0 -0.18936723873E+02  0.14898199412E+02 -0.69751504123E+02  0.73795854790E+02  0.00000000000E+00 0.  1.
</event>
<event>
 7    1  0.7961130E-006  0.9639974E+02  0.7818608E-02  0.1361436E+00
          2   -1    0    0  502    0  0.00000000000E+00  0.00000000000E+00  0.19513247994E+04  0.19513247994E+04  0.00000000000E+00 0. -1.
          1   -1    0    0  501    0 -0.00000000000E+00 -0.00000000000E+00 -0.50068134294E+02  0.50068134294E+02  0.00000000000E+00 0. -1.
         25    2    1    2    0    0 -0.76603376509E+02  0.21028972354E+02  0.20661309173E+03  0.25421300876E+03  0.12499995671E+03 0.  0.
          2    1    1    2  501    0  0.10566443580E+03  0.19977729239E+02  0.85851404867E+02  0.13760285744E+03  0.00000000000E+00 0. -1.
          1    1    1    2  502    0 -0.29061059288E+02 -0.41006701593E+02  0.16087921685E+04  0.16095770675E+04  0.00000000000E+00 0. -1.
         22    1    3    3    0    0 -0.82312998644E+02  0.12632116839E+02  0.49716753421E+02  0.96988430714E+02  0.00000000000E+00 0.  1.
         22    1    3    3    0    0  0.57096221351E+01  0.83968555154E+01  0.15689633831E+03  0.15722457805E+03  0.00000000000E+00 0.  1.
</event>
<event>
 7    1  0.7961130E-006  0.1673385E+03  0.7818608E-02  0.1335617E+00
          2   -1    0    0  502    0  0.00000000000E+00  0.00000000000E+00  0.24881555084E+03  0.24881555084E+03  0.00000000000E+00 0. -1.
          1   -1    0    0  501    0 -0.00000000000E+00 -0.00000000000E+00 -0.13274013608E+04  0.13274013608E+04  0.00000000000E+00 0. -1.
         25    2    1    2    0    0  0.43559282049E+02  0.17862032449E+03 -0.18929786693E+03  0.29199689323E+03  0.12500348738E+03 0.  0.
          2    1    1    2  501    0  0.23424199787E+02 -0.27477467912E+02 -0.10517877349E+04  0.10524073088E+04  0.00000000000E+00 0. -1.
          1    1    1    2  502    0 -0.66983481836E+02 -0.15114285658E+03  0.16249979191E+03  0.23181270954E+03  0.00000000000E+00 0. -1.
         22    1    3    3    0    0  0.50611507702E+02  0.69932666853E+02 -0.16729377285E+02  0.87931647712E+02  0.00000000000E+00 0. -1.
         22    1    3    3    0    0 -0.70522256535E+01  0.10868765764E+03 -0.17256848964E+03  0.20406524552E+03  0.00000000000E+00 0. -1.
</event>
<event>
 7    1  0.7961130E-006  0.1002258E+03  0.7818608E-02  0.1310284E+00
          2   -1    0    0  502    0  0.00000000000E+00  0.00000000000E+00  0.55082009036E+02  0.55082009036E+02  0.00000000000E+00 0. -1.
          1   -1    0    0  501    0 -0.00000000000E+00 -0.00000000000E+00 -0.95912889378E+03  0.95912889378E+03  0.00000000000E+00 0. -1.
         25    2    1    2    0    0 -0.16355430587E+03 -0.48076493377E+01 -0.48949476929E+03  0.53104024588E+03  0.12500195649E+03 0.  0.
          2    1    1    2  501    0  0.73886289934E+02 -0.15620492437E+02 -0.37590288574E+03  0.38341382751E+03  0.00000000000E+00 0. -1.
          1    1    1    2  502    0  0.89668015934E+02  0.20428141775E+02 -0.38649229719E+02  0.99756829419E+02  0.00000000000E+00 0. -1.
         22    1    3    3    0    0 -0.98298629596E+02  0.56974631102E+02 -0.31304572640E+03  0.33302605902E+03  0.00000000000E+00 0. -1.
         22    1    3    3    0    0 -0.65255676271E+02 -0.61782280440E+02 -0.17644904288E+03  0.19801418685E+03  0.00000000000E+00 0. -1.
</event>
<event>
 7    1  0.7961130E-006  0.9404605E+02  0.7818608E-02  0.1336092E+00
          2   -1    0    0  502    0  0.00000000000E+00  0.00000000000E+00  0.66111803754E+02  0.66111803754E+02  0.00000000000E+00 0. -1.
          1   -1    0    0  501    0 -0.00000000000E+00 -0.00000000000E+00 -0.91487285535E+03  0.91487285535E+03  0.00000000000E+00 0. -1.
         25    2    1    2    0    0 -0.78807637686E+02  0.12494669176E+03 -0.40087175664E+03  0.44513575275E+03  0.12500141426E+03 0.  0.
          2    1    1    2  501    0  0.37577416595E+02 -0.76022042043E+02 -0.46250890624E+03  0.47021899309E+03  0.00000000000E+00 0. -1.
          1    1    1    2  502    0  0.41230221091E+02 -0.48924649718E+02  0.14619611278E+02  0.65629913265E+02  0.00000000000E+00 0. -1.
         22    1    3    3    0    0  0.92770056592E+01  0.95489692192E+02 -0.25225189800E+03  0.26988027752E+03  0.00000000000E+00 0. -1.
         22    1    3    3    0    0 -0.88084643345E+02  0.29456999568E+02 -0.14861985863E+03  0.17525547523E+03  0.00000000000E+00 0. -1.
</event>
<event>
 7    1  0.7961130E-006  0.3688955E+02  0.7818608E-02  0.1607631E+00
          2   -1    0    0  502    0  0.00000000000E+00  0.00000000000E+00  0.30049272968E+02  0.30049272968E+02  0.00000000000E+00 0. -1.
          1   -1    0    0  501    0 -0.00000000000E+00 -0.00000000000E+00 -0.15534896762E+04  0.15534896762E+04  0.00000000000E+00 0. -1.
         25    2    1    2    0    0  0.66476576271E+01  0.12956422808E+02 -0.93898133825E+03  0.94737767140E+03  0.12500575364E+03 0.  0.
          2    1    1    2  501    0  0.40780353898E+01  0.22677091507E+02 -0.59657962189E+03  0.59702439323E+03  0.00000000000E+00 0. -1.
          1    1    1    2  502    0 -0.10725693017E+02 -0.35633514315E+02  0.12120556895E+02  0.39136884554E+02  0.00000000000E+00 0. -1.
         22    1    3    3    0    0  0.64744544521E+02  0.17223512183E+02 -0.54809229220E+03  0.55217177235E+03  0.00000000000E+00 0. -1.
         22    1    3    3    0    0 -0.58096886894E+02 -0.42670893746E+01 -0.39088904605E+03  0.39520589905E+03  0.00000000000E+00 0. -1.
</event>
<event>
 7    1  0.7961130E-006  0.4523284E+02  0.7818608E-02  0.1547970E+00
          2   -1    0    0  502    0  0.00000000000E+00  0.00000000000E+00  0.78346352425E+02  0.78346352425E+02  0.00000000000E+00 0. -1.
          1   -1    0    0  501    0 -0.00000000000E+00 -0.00000000000E+00 -0.13135092098E+04  0.13135092098E+04  0.00000000000E+00 0. -1.
         25    2    1    2    0    0 -0.32064156219E+02  0.22949417434E+02 -0.40395558353E+02  0.13716066438E+03  0.12500584324E+03 0.  0.
          2    1    1    2  501    0  0.45344011213E+02  0.77958408610E+00 -0.12180517170E+04  0.12188956774E+04  0.00000000000E+00 0. -1.
          1    1    1    2  502    0 -0.13279854993E+02 -0.23729001521E+02  0.23284417991E+02  0.35799220425E+02  0.00000000000E+00 0. -1.
         22    1    3    3    0    0  0.24937382706E+02  0.46955665800E+02  0.13796551112E+02  0.54927701841E+02  0.00000000000E+00 0. -1.
         22    1    3    3    0    0 -0.57001538925E+02 -0.24006248366E+02 -0.54192109465E+02  0.82232962543E+02  0.00000000000E+00 0. -1.
</event>
<event>
 7    1  0.7961130E-006  0.1939209E+03  0.7818608E-02  0.1299123E+00
          2   -1    0    0  502    0  0.00000000000E+00  0.00000000000E+00  0.13324046170E+03  0.13324046170E+03  0.00000000000E+00 0. -1.
          1   -1    0    0  501    0 -0.00000000000E+00 -0.00000000000E+00 -0.13323987013E+04  0.13323987013E+04  0.00000000000E+00 0. -1.
         25    2    1    2    0    0 -0.92586386817E+02 -0.13119506923E+03 -0.39535635428E+02  0.20729227476E+03  0.12499054160E+03 0.  0.
          2    1    1    2  501    0  0.92154879271E+02  0.17442064726E+03 -0.11895334736E+04  0.12057798177E+04  0.00000000000E+00 0. -1.
          1    1    1    2  502    0  0.43150754650E+00 -0.43225578022E+02  0.29910869431E+02  0.52567070531E+02  0.00000000000E+00 0. -1.
         22    1    3    3    0    0 -0.85221379539E+02 -0.14925415999E+02 -0.23795275424E+02  0.89731079932E+02  0.00000000000E+00 0.  1.
         22    1    3    3    0    0 -0.73650072780E+01 -0.11626965323E+03 -0.15740360004E+02  0.11756119482E+03  0.00000000000E+00 0.  1.
</event>
<event>
 7    1  0.7961130E-006  0.1160671E+03  0.7818608E-02  0.1425736E+00
          2   -1    0    0  502    0  0.00000000000E+00  0.00000000000E+00  0.16664008015E+03  0.16664008015E+03  0.00000000000E+00 0. -1.
          1   -1    0    0  501    0 -0.00000000000E+00 -0.00000000000E+00 -0.61616765508E+03  0.61616765508E+03  0.00000000000E+00 0. -1.
         25    2    1    2    0    0  0.10250573995E+03  0.91402070225E+01 -0.20096903481E+03  0.25808128436E+03  0.12500570497E+03 0.  0.
          2    1    1    2  501    0  0.10846992060E+02  0.22481364748E+02 -0.36106001589E+03  0.36192182039E+03  0.00000000000E+00 0. -1.
          1    1    1    2  502    0 -0.11335273201E+03 -0.31621571771E+02  0.11250147577E+03  0.16280463048E+03  0.00000000000E+00 0. -1.
         22    1    3    3    0    0  0.11820850343E+03 -0.26889713980E+02 -0.13635653857E+03  0.18245386434E+03  0.00000000000E+00 0. -1.
         22    1    3    3    0    0 -0.15702763480E+02  0.36029921002E+02 -0.64612496237E+02  0.75627420017E+02  0.00000000000E+00 0. -1.
</event>
<event>
 7    1  0.7961130E-006  0.4555178E+02  0.7818608E-02  0.1489838E+00
          2   -1    0    0  502    0  0.00000000000E+00  0.00000000000E+00  0.29050609614E+04  0.29050609614E+04  0.00000000000E+00 0. -1.
          1   -1    0    0  501    0 -0.00000000000E+00 -0.00000000000E+00 -0.64240884458E+01  0.64240884458E+01  0.00000000000E+00 0. -1.
         25    2    1    2    0    0 -0.57045126602E+01  0.20760380643E+01  0.12098485598E+04  0.12163040019E+04  0.12500014395E+03 0.  0.
          2    1    1    2  501    0  0.20109963366E+02  0.41137932077E+02  0.18091584405E+03  0.18662069208E+03  0.00000000000E+00 0. -1.
          1    1    1    2  502    0 -0.14405450706E+02 -0.43213970142E+02  0.15078724691E+04  0.15085603559E+04  0.00000000000E+00 0. -1.
         22    1    3    3    0    0  0.27458720822E+02  0.18290606944E+02  0.90159394901E+02  0.96006479680E+02  0.00000000000E+00 0. -1.
         22    1    3    3    0    0 -0.33163233482E+02 -0.16214568880E+02  0.11196891649E+04  0.11202975222E+04  0.00000000000E+00 0. -1.
</event>
<event>
 7    1  0.7961130E-006  0.8117527E+02  0.7818608E-02  0.1343670E+00
          2   -1    0    0  502    0  0.00000000000E+00  0.00000000000E+00  0.25482509554E+03  0.25482509554E+03  0.00000000000E+00 0. -1.
          1   -1    0    0  501    0 -0.00000000000E+00 -0.00000000000E+00 -0.14505862998E+04  0.14505862998E+04  0.00000000000E+00 0. -1.
         25    2    1    2    0    0  0.11049416726E+03  0.54767516586E+02 -0.44161937226E+02  0.18106356236E+03  0.12500118016E+03 0.  0.
          2    1    1    2  501    0 -0.68314473997E+02  0.12309779059E+02 -0.13286044765E+04  0.13304165712E+04  0.00000000000E+00 0. -1.
          1    1    1    2  502    0 -0.42179693265E+02 -0.67077295646E+02  0.17700520946E+03  0.19393126177E+03  0.00000000000E+00 0. -1.
         22    1    3    3    0    0  0.25588178318E+02  0.66104048487E+01 -0.74335890113E+02  0.78894086475E+02  0.00000000000E+00 0.  1.
         22    1    3    3    0    0  0.84905988944E+02  0.48157111737E+02  0.30173952886E+02  0.10216947588E+03  0.00000000000E+00 0.  1.
</event>
<event>
 7    1  0.7961130E-006  0.7725337E+02  0.7818608E-02  0.1385878E+00
          2   -1    0    0  502    0  0.00000000000E+00  0.00000000000E+00  0.31723979823E+04  0.31723979823E+04  0.00000000000E+00 0. -1.
          1   -1    0    0  501    0 -0.00000000000E+00 -0.00000000000E+00 -0.12166051887E+04  0.12166051887E+04  0.00000000000E+00 0. -1.
         25    2    1    2    0    0 -0.43724118566E+02 -0.77980991830E+02  0.52318865842E+03  0.54529390008E+03  0.12500492604E+03 0.  0.
          2    1    1    2  501    0  0.69540642002E+02  0.33668547253E+02 -0.12040650476E+04  0.12065413838E+04  0.00000000000E+00 0. -1.
          1    1    1    2  502    0 -0.25816523436E+02  0.44312444578E+02  0.26366691827E+04  0.26371678871E+04  0.00000000000E+00 0. -1.
         22    1    3    3    0    0 -0.13749088843E+02 -0.68846195478E+02  0.50331365291E+03  0.50818645129E+03  0.00000000000E+00 0. -1.
         22    1    3    3    0    0 -0.29975029723E+02 -0.91347963526E+01  0.19875005514E+02  0.37107448787E+02  0.00000000000E+00 0. -1.
</event>
<event>
 7    1  0.7961130E-006  0.6692034E+02  0.7818608E-02  0.1478794E+00
          2   -1    0    0  502    0  0.00000000000E+00  0.00000000000E+00  0.90291087394E+03  0.90291087394E+03  0.00000000000E+00 0. -1.
          1   -1    0    0  501    0 -0.00000000000E+00 -0.00000000000E+00 -0.21717644454E+03  0.21717644454E+03  0.00000000000E+00 0. -1.
         25    2    1    2    0    0 -0.19331033177E+02  0.52989687837E+02  0.90312128394E+02  0.16420967268E+03  0.12500776058E+03 0.  0.
          2    1    1    2  501    0  0.25612844500E+02  0.14267421226E+02 -0.17755251970E+03  0.17995686806E+03  0.00000000000E+00 0. -1.
          1    1    1    2  502    0 -0.62818113234E+01 -0.67257109064E+02  0.77297482071E+03  0.77592077774E+03  0.00000000000E+00 0. -1.
         22    1    3    3    0    0  0.95658768570E+01 -0.33477458079E+02  0.57687281917E+02  0.67380031868E+02  0.00000000000E+00 0. -1.
         22    1    3    3    0    0 -0.28896910034E+02  0.86467145916E+02  0.32624846477E+02  0.96829640813E+02  0.00000000000E+00 0. -1.
</event>
<event>
 7    1  0.7961130E-006  0.5734853E+02  0.7818608E-02  0.1437339E+00
          2   -1    0    0  502    0  0.00000000000E+00  0.00000000000E+00  0.61889379871E+03  0.61889379871E+03  0.00000000000E+00 0. -1.
          1   -1    0    0  501    0 -0.00000000000E+00 -0.00000000000E+00 -0.12663061939E+03  0.12663061939E+03  0.00000000000E+00 0. -1.
         25    2    1    2    0    0 -0.13540177777E+02 -0.22489678601E+02  0.42281504874E+02  0.13454363416E+03  0.12500056712E+03 0.  0.
          2    1    1    2  501    0 -0.11324860370E+02  0.61515898423E+02 -0.67157922772E+02  0.91774968331E+02  0.00000000000E+00 0. -1.
          1    1    1    2  502    0  0.24865038147E+02 -0.39026219822E+02  0.51713959721E+03  0.51920581560E+03  0.00000000000E+00 0. -1.
         22    1    3    3    0    0 -0.35636960448E+01 -0.72282558326E+02  0.70002159708E+01  0.72708123283E+02  0.00000000000E+00 0.  1.
         22    1    3    3    0    0 -0.99764817322E+01  0.49792879726E+02  0.35281288903E+02  0.61835510880E+02  0.00000000000E+00 0.  1.
</event>
<event>
 7    1  0.7961130E-006  0.1112476E+03  0.7818608E-02  0.1365548E+00
          2   -1    0    0  502    0  0.00000000000E+00  0.00000000000E+00  0.61717243514E+03  0.61717243514E+03  0.00000000000E+00 0. -1.
          1   -1    0    0  501    0 -0.00000000000E+00 -0.00000000000E+00 -0.17320838468E+04  0.17320838468E+04  0.00000000000E+00 0. -1.
         25    2    1    2    0    0 -0.10871347626E+03 -0.49789134855E+02 -0.28120298503E+02  0.17525108860E+03  0.12499845998E+03 0.  0.
          2    1    1    2  501    0 -0.22010265394E+01  0.42022868646E+02 -0.16244374979E+04  0.16249824462E+04  0.00000000000E+00 0. -1.
          1    1    1    2  502    0  0.11091450280E+03  0.77662662097E+01  0.53764638473E+03  0.54902274711E+03  0.00000000000E+00 0. -1.
         22    1    3    3    0    0 -0.91814514954E+02 -0.80134635087E+02 -0.52624811614E+02  0.13274349586E+03  0.00000000000E+00 0.  1.
         22    1    3    3    0    0 -0.16898961302E+02  0.30345500232E+02  0.24504513111E+02  0.42507592736E+02  0.00000000000E+00 0.  1.
</event>
<event>
 7    1  0.7961130E-006  0.9919972E+02  0.7818608E-02  0.1309297E+00
          2   -1    0    0  502    0  0.00000000000E+00  0.00000000000E+00  0.21666040365E+04  0.21666040365E+04  0.00000000000E+00 0. -1.
          1   -1    0    0  501    0 -0.00000000000E+00 -0.00000000000E+00 -0.75220932467E+03  0.75220932467E+03  0.00000000000E+00 0. -1.
         25    2    1    2    0    0 -0.28803462428E+02 -0.14915379063E+03  0.18350652117E+03  0.26902855634E+03  0.12500091242E+03 0.  0.
          2    1    1    2  501    0 -0.30229386441E+02  0.70803996686E+02 -0.70611477016E+03  0.71029929634E+03  0.00000000000E+00 0. -1.
          1    1    1    2  502    0  0.59032848869E+02  0.78349793940E+02  0.19370029608E+04  0.19394855085E+04  0.00000000000E+00 0. -1.
         22    1    3    3    0    0 -0.40347233301E+02  0.61957267490E+01  0.42133166151E+02  0.58664213579E+02  0.00000000000E+00 0. -1.
         22    1    3    3    0    0  0.11543770873E+02 -0.15534951738E+03  0.14137335502E+03  0.21036434276E+03  0.00000000000E+00 0. -1.
</event>
<event>
 7    1  0.7961130E-006  0.7509462E+02  0.7818608E-02  0.1360310E+00
          2   -1    0    0  502    0  0.00000000000E+00  0.00000000000E+00  0.22220610028E+03  0.22220610028E+03  0.00000000000E+00 0. -1.
          1   -1    0    0  501    0 -0.00000000000E+00 -0.00000000000E+00 -0.32188567109E+03  0.32188567109E+03  0.00000000000E+00 0. -1.
         25    2    1    2    0    0 -0.12802954996E+02  0.11391195986E+02  0.81948317994E+01  0.12643747042E+03  0.12500241460E+03 0.  0.
          2    1    1    2  501    0  0.55735336901E+02  0.50326670926E+02 -0.24773553932E+03  0.25886695236E+03  0.00000000000E+00 0. -1.
          1    1    1    2  502    0 -0.42932381905E+02 -0.61717866912E+02  0.13986113670E+03  0.15878734859E+03  0.00000000000E+00 0. -1.
         22    1    3    3    0    0 -0.53694638795E+02 -0.25609980750E+02 -0.22166426266E+02  0.63484925792E+02  0.00000000000E+00 0. -1.
         22    1    3    3    0    0  0.40891683799E+02  0.37001176737E+02  0.30361258065E+02  0.62952544628E+02  0.00000000000E+00 0. -1.
</event>
<event>
 7    1  0.7961130E-006  0.7825765E+02  0.7818608E-02  0.1451238E+00
          2   -1    0    0  502    0  0.00000000000E+00  0.00000000000E+00  0.19446657393E+04  0.19446657393E+04  0.00000000000E+00 0. -1.
          1   -1    0    0  501    0 -0.00000000000E+00 -0.00000000000E+00 -0.61115417143E+03  0.61115417143E+03  0.00000000000E+00 0. -1.
         25    2    1    2    0    0  0.29243092024E+02  0.76511558363E+02  0.76651299884E+02  0.16796006059E+03  0.12500393268E+03 0.  0.
          2    1    1    2  501    0  0.12893387215E+01 -0.78293793636E+02 -0.56265996943E+03  0.56808258353E+03  0.00000000000E+00 0. -1.
          1    1    1    2  502    0 -0.30532430745E+02  0.17822352728E+01  0.18195202374E+04  0.18197772666E+04  0.00000000000E+00 0. -1.
         22    1    3    3    0    0 -0.38109257170E+02  0.24186548863E+02 -0.10155727873E+02  0.46264926635E+02  0.00000000000E+00 0. -1.
         22    1    3    3    0    0  0.67352349194E+02  0.52325009500E+02  0.86807027757E+02  0.12169513396E+03  0.00000000000E+00 0. -1.
</event>
<event>
 7    1  0.7961130E-006  0.7504529E+02  0.7818608E-02  0.1354621E+00
          2   -1    0    0  502    0  0.00000000000E+00  0.00000000000E+00  0.76156395660E+03  0.76156395660E+03  0.00000000000E+00 0. -1.
          1   -1    0    0  501    0 -0.00000000000E+00 -0.00000000000E+00 -0.43886186533E+03  0.43886186533E+03  0.00000000000E+00 0. -1.
         25    2    1    2    0    0  0.58842401976E+02  0.24479937181E+02 -0.39739052751E+02  0.14582733875E+03  0.12499889927E+03 0.  0.
          2    1    1    2  501    0 -0.46207807338E+02  0.50403884778E+02 -0.34063619798E+03  0.34743162267E+03  0.00000000000E+00 0. -1.
          1    1    1    2  502    0 -0.12634594638E+02 -0.74883821959E+02  0.70307734200E+03  0.70716686051E+03  0.00000000000E+00 0. -1.
         22    1    3    3    0    0  0.15775474051E+02  0.53016154714E+02  0.26899876150E+02  0.61507573347E+02  0.00000000000E+00 0.  1.
         22    1    3    3    0    0  0.43066927925E+02 -0.28536217532E+02 -0.66638928901E+02  0.84319765400E+02  0.00000000000E+00 0.  1.
</event>
<event>
 7    1  0.7961130E-006  0.9487288E+02  0.7818608E-02  0.1408029E+00
          2   -1    0    0  502    0  0.00000000000E+00  0.00000000000E+00  0.64313943865E+03  0.64313943865E+03  0.00000000000E+00 0. -1.
          1   -1    0    0  501    0 -0.00000000000E+00 -0.00000000000E+00 -0.15112882884E+04  0.15112882884E+04  0.00000000000E+00 0. -1.
         25    2    1    2    0    0 -0.28441293936E+02 -0.10452681716E+03  0.42047100147E+03  0.45183537252E+03  0.12499831231E+03 0.  0.
          2    1    1    2  501    0 -0.51669794350E+01  0.94704527971E+02 -0.14926093093E+04  0.14956196694E+04  0.00000000000E+00 0. -1.
          1    1    1    2  502    0  0.33608273371E+02  0.98222891878E+01  0.20398945806E+03  0.20697268516E+03  0.00000000000E+00 0. -1.
         22    1    3    3    0    0 -0.52742896623E+02 -0.18334387560E+02  0.27803264414E+03  0.28358440387E+03  0.00000000000E+00 0. -1.
         22    1    3    3    0    0  0.24301602686E+02 -0.86192429599E+02  0.14243835732E+03  0.16825096865E+03  0.00000000000E+00 0. -1.
</event>
<event>
 7    1  0.7961130E-006  0.5556789E+02  0.7818608E-02  0.1461240E+00
          2   -1    0    0  502    0  0.00000000000E+00  0.00000000000E+00  0.30932344479E+03  0.30932344479E+03  0.00000000000E+00 0. -1.
          1   -1    0    0  501    0 -0.00000000000E+00 -0.00000000000E+00 -0.42751692179E+03  0.42751692179E+03  0.00000000000E+00 0. -1.
         25    2    1    2    0    0 -0.16058795415E+02  0.84953823269E+00 -0.18003087583E+03  0.21976167704E+03  0.12500188724E+03 0.  0.
          2    1    1    2  501    0 -0.40037729698E+02  0.30612096651E+00 -0.22310264274E+03  0.22666694224E+03  0.00000000000E+00 0. -1.
          1    1    1    2  502    0  0.56096525113E+02 -0.11556591992E+01  0.28494004157E+03  0.29041174730E+03  0.00000000000E+00 0. -1.
         22    1    3    3    0    0 -0.35864975501E+02  0.20331339435E+02 -0.38527841510E+01  0.41406566829E+02  0.00000000000E+00 0. -1.
         22    1    3    3    0    0  0.19806180086E+02 -0.19481801202E+02 -0.17617809168E+03  0.17835511021E+03  0.00000000000E+00 0. -1.
</event>
<event>
 7    1  0.7961130E-006  0.1909977E+03  0.7818608E-02  0.1269420E+00
          2   -1    0    0  502    0  0.00000000000E+00  0.00000000000E+00  0.93173209607E+03  0.93173209607E+03  0.00000000000E+00 0. -1.
          1   -1    0    0  501    0 -0.00000000000E+00 -0.00000000000E+00 -0.24564240916E+03  0.24564240916E+03  0.00000000000E+00 0. -1.
         25    2    1    2    0    0  0.19979898198E+03  0.11224648027E+03  0.38003532514E+03  0.46105500448E+03  0.12500385300E+03 0.  0.
          2    1    1    2  501    0 -0.57710396312E+02 -0.68451443362E+01 -0.18524017677E+03  0.19414239345E+03  0.00000000000E+00 0. -1.
          1    1    1    2  502    0 -0.14208858567E+03 -0.10540133594E+03  0.49129453854E+03  0.52217710731E+03  0.00000000000E+00 0. -1.
         22    1    3    3    0    0  0.83750570408E+02 -0.18951247245E+02  0.12774034704E+03  0.15391849817E+03  0.00000000000E+00 0.  1.
         22    1    3    3    0    0  0.11604841157E+03  0.13119772752E+03  0.25229497810E+03  0.30713650631E+03  0.00000000000E+00 0.  1.
</event>
<event>
 7    1  0.7961130E-006  0.5426754E+02  0.7818608E-02  0.1510410E+00
          2   -1    0    0  502    0  0.00000000000E+00  0.00000000000E+00  0.41076600352E+03  0.41076600352E+03  0.00000000000E+00 0. -1.
          1   -1    0    0  501    0 -0.00000000000E+00 -0.00000000000E+00 -0.74491171192E+03  0.74491171192E+03  0.00000000000E+00 0. -1.
         25    2    1    2    0    0 -0.48223931318E+02 -0.49716977469E+02 -0.18186873516E+03  0.23129726747E+03  0.12499945484E+03 0.  0.
          2    1    1    2  501    0 -0.18355620688E+01  0.28988959428E+02 -0.53603251141E+03  0.53681894745E+03  0.00000000000E+00 0. -1.
          1    1    1    2  502    0  0.50059493387E+02  0.20728018040E+02  0.38375553816E+03  0.38756150051E+03  0.00000000000E+00 0. -1.
         22    1    3    3    0    0 -0.49604096569E+02 -0.78606260465E+02 -0.17967323535E+03  0.20229182406E+03  0.00000000000E+00 0.  1.
         22    1    3    3    0    0  0.13801652505E+01  0.28889282996E+02 -0.21954998102E+01  0.29005443413E+02  0.00000000000E+00 0.  1.
</event>
<event>
 7    1  0.7961130E-006  0.4209810E+02  0.7818608E-02  0.1514285E+00
          2   -1    0    0  502    0  0.00000000000E+00  0.00000000000E+00  0.65671500011E+01  0.65671500011E+01  0.00000000000E+00 0. -1.
          1   -1    0    0  501    0 -0.00000000000E+00 -0.00000000000E+00 -0.20870410888E+04  0.20870410888E+04  0.00000000000E+00 0. -1.
         25    2    1    2    0    0  0.38271380505E+02  0.22176464821E+02 -0.11765822949E+04  0.11840299302E+04  0.12499793850E+03 0.  0.
          2    1    1    2  501    0 -0.28066354143E+02  0.23298035491E+02 -0.15484964701E+03  0.15908781183E+03  0.00000000000E+00 0. -1.
          1    1    1    2  502    0 -0.10205026362E+02 -0.45474500312E+02 -0.74904199687E+03  0.75049049682E+03  0.00000000000E+00 0. -1.
         22    1    3    3    0    0  0.16069012688E+02  0.58138045568E+02 -0.27865145400E+03  0.28510503034E+03  0.00000000000E+00 0.  1.
         22    1    3    3    0    0  0.22202367816E+02 -0.35961580747E+02 -0.89793084093E+03  0.89892489982E+03  0.00000000000E+00 0.  1.
</event>
<event>
 7    1  0.7961130E-006  0.3113651E+03  0.7818608E-02  0.1122855E+00
          2   -1    0    0  502    0  0.00000000000E+00  0.00000000000E+00  0.35254631118E+04  0.35254631118E+04  0.00000000000E+00 0. -1.
          1   -1    0    0  501    0 -0.00000000000E+00 -0.00000000000E+00 -0.15229335824E+04  0.15229335824E+04  0.00000000000E+00 0. -1.
         25    2    1    2    0    0  0.53212175049E+02 -0.18924166934E+03 -0.39069845253E+03  0.45487750138E+03  0.12499726183E+03 0.  0.
          2    1    1    2  501    0 -0.13765928632E+03 -0.11293572178E+03 -0.10858348498E+04  0.11003371654E+04  0.00000000000E+00 0. -1.
          1    1    1    2  502    0  0.84447111276E+02  0.30217739112E+03  0.34790628317E+04  0.34931820275E+04  0.00000000000E+00 0. -1.
         22    1    3    3    0    0  0.66925175261E+02 -0.19371172352E+03 -0.30175957644E+03  0.36477671648E+03  0.00000000000E+00 0.  1.
         22    1    3    3    0    0 -0.13713000212E+02  0.44700541857E+01 -0.88938876089E+02  0.90100784898E+02  0.00000000000E+00 0.  1.
</event>
<event>
 7    1  0.7961130E-006  0.2595276E+03  0.7818608E-02  0.1272302E+00
          2   -1    0    0  502    0  0.00000000000E+00  0.00000000000E+00  0.21353563097E+04  0.21353563097E+04  0.00000000000E+00 0. -1.
          1   -1    0    0  501    0 -0.00000000000E+00 -0.00000000000E+00 -0.15703618190E+04  0.15703618190E+04  0.00000000000E+00 0. -1.
         25    2    1    2    0    0  0.21714709317E+03  0.10358112962E+03  0.32256315204E+03  0.42137201606E+03  0.12500191351E+03 0.  0.
          2    1    1    2  501    0  0.34162664577E+02 -0.23729796525E+02 -0.15108116973E+04  0.15113841919E+04  0.00000000000E+00 0. -1.
          1    1    1    2  502    0 -0.25130975774E+03 -0.79851333091E+02  0.17532430359E+04  0.17729619208E+04  0.00000000000E+00 0. -1.
         22    1    3    3    0    0  0.11472134479E+03  0.86935416901E+02  0.98412745686E+02  0.17436691824E+03  0.00000000000E+00 0.  1.
         22    1    3    3    0    0  0.10242574838E+03  0.16645712714E+02  0.22415040635E+03  0.24700509782E+03  0.00000000000E+00 0.  1.
</event>
<event>
 7    1  0.7961130E-006  0.3432723E+02  0.7818608E-02  0.1643149E+00
          2   -1    0    0  502    0  0.00000000000E+00  0.00000000000E+00  0.98806609429E+03  0.98806609429E+03  0.00000000000E+00 0. -1.
          1   -1    0    0  501    0 -0.00000000000E+00 -0.00000000000E+00 -0.18062821841E+02  0.18062821841E+02  0.00000000000E+00 0. -1.
         25    2    1    2    0    0  0.21585892410E+02  0.17483611501E+02  0.28539881748E+03  0.31280866948E+03  0.12500060505E+03 0.  0.
          2    1    1    2  501    0 -0.36856641938E+02 -0.43633177291E+01  0.77978326584E+02  0.86360118187E+02  0.00000000000E+00 0. -1.
          1    1    1    2  502    0  0.15270749528E+02 -0.13120293772E+02  0.60662612839E+03  0.60696012846E+03  0.00000000000E+00 0. -1.
         22    1    3    3    0    0  0.17927619972E+02 -0.13980254051E+02 -0.27715769521E+01  0.22902591556E+02  0.00000000000E+00 0.  1.
         22    1    3    3    0    0  0.36582724382E+01  0.31463865552E+02  0.28817039443E+03  0.28990607793E+03  0.00000000000E+00 0.  1.
</event>
<event>
 7    1  0.7961130E-006  0.7438826E+02  0.7818608E-02  0.1385626E+00
          2   -1    0    0  502    0  0.00000000000E+00  0.00000000000E+00  0.11450941723E+04  0.11450941723E+04  0.00000000000E+00 0. -1.
          1   -1    0    0  501    0 -0.00000000000E+00 -0.00000000000E+00 -0.56612460475E+03  0.56612460475E+03  0.00000000000E+00 0. -1.
         25    2    1    2    0    0  0.97255238991E+02 -0.72596660793E+02  0.28848477930E+03  0.33701388556E+03  0.12500413794E+03 0.  0.
          2    1    1    2  501    0 -0.45892689736E+02  0.58102302852E+02 -0.53846869572E+03  0.54353523606E+03  0.00000000000E+00 0. -1.
          1    1    1    2  502    0 -0.51362549255E+02  0.14494357941E+02  0.82895348397E+03  0.83066965544E+03  0.00000000000E+00 0. -1.
         22    1    3    3    0    0  0.12009236020E+03 -0.26965626271E+02  0.19822941096E+03  0.23333285098E+03  0.00000000000E+00 0. -1.
         22    1    3    3    0    0 -0.22837121205E+02 -0.45631034522E+02  0.90255368350E+02  0.10368103458E+03  0.00000000000E+00 0. -1.
</event>
<event>
 7    1  0.7961130E-006  0.1579494E+03  0.7818608E-02  0.1233560E+00
          2   -1    0    0  502    0  0.00000000000E+00  0.00000000000E+00  0.83379747296E+03  0.83379747296E+03  0.00000000000E+00 0. -1.
          1   -1    0    0  501    0 -0.00000000000E+00 -0.00000000000E+00 -0.18605124276E+03  0.18605124276E+03  0.00000000000E+00 0. -1.
         25    2    1    2    0    0  0.19163789099E+03  0.11528473639E+03  0.53071632255E+03  0.58932269231E+03  0.12500307574E+03 0.  0.
          2    1    1    2  501    0 -0.91407077044E+02 -0.41693352441E+02 -0.12383159821E+03  0.15946113660E+03  0.00000000000E+00 0. -1.
          1    1    1    2  502    0 -0.10023081395E+03 -0.73591383949E+02  0.24086150585E+03  0.27106488680E+03  0.00000000000E+00 0. -1.
         22    1    3    3    0    0  0.29092934956E+02  0.29279273919E+02  0.18757682197E+02  0.45337902322E+02  0.00000000000E+00 0. -1.
         22    1    3    3    0    0  0.16254495604E+03  0.86005462471E+02  0.51195864035E+03  0.54398478999E+03  0.00000000000E+00 0. -1.
</event>
<event>
 7    1  0.7961130E-006  0.1078801E+03  0.7818608E-02  0.1370198E+00
          2   -1    0    0  502    0  0.00000000000E+00  0.00000000000E+00  0.70869630813E+03  0.70869630813E+03  0.00000000000E+00 0. -1.
          1   -1    0    0  501    0 -0.00000000000E+00 -0.00000000000E+00 -0.94202258684E+03  0.94202258684E+03  0.00000000000E+00 0. -1.
         25    2    1    2    0    0  0.89678896233E+02 -0.43699212521E+02 -0.51428640413E+03  0.53857892879E+03  0.12499932582E+03 0.  0.
          2    1    1    2  501    0 -0.79767347404E+02  0.84256178354E+02 -0.40684648853E+03  0.42306736879E+03  0.00000000000E+00 0. -1.
          1    1    1    2  502    0 -0.99115488286E+01 -0.40556965833E+02  0.68780661396E+03  0.68907259740E+03  0.00000000000E+00 0. -1.
         22    1    3    3    0    0  0.61435232398E+02  0.15471942350E+02 -0.41361463007E+03  0.41843844349E+03  0.00000000000E+00 0.  1.
         22    1    3    3    0    0  0.28243663835E+02 -0.59171154871E+02 -0.10067177406E+03  0.12014048530E+03  0.00000000000E+00 0.  1.
</event>
<event>
 7    1  0.7961130E-006  0.6823608E+02  0.7818608E-02  0.1403993E+00
          2   -1    0    0  502    0  0.00000000000E+00  0.00000000000E+00  0.48005804426E+03  0.48005804426E+03  0.00000000000E+00 0. -1.
          1   -1    0    0  501    0 -0.00000000000E+00 -0.00000000000E+00 -0.56855236419E+02  0.56855236419E+02  0.00000000000E+00 0. -1.
         25    2    1    2    0    0  0.91778415791E+02 -0.25030845751E+02  0.84246993747E+02  0.17824764992E+03  0.12499939160E+03 0.  0.
          2    1    1    2  501    0 -0.45220139936E+02 -0.21911895734E+02  0.16863583349E+03  0.17596316821E+03  0.00000000000E+00 0. -1.
          1    1    1    2  502    0 -0.46558275855E+02  0.46942741485E+02  0.17031998061E+03  0.18270246255E+03  0.00000000000E+00 0. -1.
         22    1    3    3    0    0  0.10734843941E+03 -0.78007650398E+01  0.10256136099E+03  0.14867202880E+03  0.00000000000E+00 0.  1.
         22    1    3    3    0    0 -0.15570023620E+02 -0.17230080711E+02 -0.18314367245E+02  0.29575621117E+02  0.00000000000E+00 0.  1.
</event>
<event>
 7    1  0.7961130E-006  0.6978742E+02  0.7818608E-02  0.1417878E+00
          2   -1    0    0  502    0  0.00000000000E+00  0.00000000000E+00  0.38976908410E+03  0.38976908410E+03  0.00000000000E+00 0. -1.
          1   -1    0    0  501    0 -0.00000000000E+00 -0.00000000000E+00 -0.23800562359E+03  0.23800562359E+03  0.00000000000E+00 0. -1.
         25    2    1    2    0    0 -0.75053730970E+01  0.66825082837E+02  0.25098914458E+03  0.28834400446E+03  0.12499916754E+03 0.  0.
          2    1    1    2  501    0  0.48519257078E+02 -0.50635075544E+02 -0.20936232168E+03  0.22079540512E+03  0.00000000000E+00 0. -1.
          1    1    1    2  502    0 -0.41013883981E+02 -0.16190007293E+02  0.11013663761E+03  0.11863529812E+03  0.00000000000E+00 0. -1.
         22    1    3    3    0    0 -0.44372095092E+02 -0.73853616953E+01  0.15568763954E+03  0.16205575428E+03  0.00000000000E+00 0.  1.
         22    1    3    3    0    0  0.36866721995E+02  0.74210444532E+02  0.95301505042E+02  0.12628825017E+03  0.00000000000E+00 0.  1.
</event>
<event>
 7    1  0.7961130E-006  0.1065589E+03  0.7818608E-02  0.1403681E+00
          2   -1    0    0  502    0  0.00000000000E+00  0.00000000000E+00  0.82940714967E+03  0.82940714967E+03  0.00000000000E+00 0. -1.
          1   -1    0    0  501    0 -0.00000000000E+00 -0.00000000000E+00 -0.19183629412E+04  0.19183629412E+04  0.00000000000E+00 0. -1.
         25    2    1    2    0    0 -0.85665568953E+02 -0.10493879395E+03 -0.22881895967E+03  0.29382719594E+03  0.12500225833E+03 0.  0.
          2    1    1    2  501    0  0.73614686597E+02  0.75017714399E+02 -0.16550457883E+04  0.16583797336E+04  0.00000000000E+00 0. -1.
          1    1    1    2  502    0  0.12050882356E+02  0.29921079555E+02  0.79490895638E+03  0.79556316136E+03  0.00000000000E+00 0. -1.
         22    1    3    3    0    0 -0.28230890583E+02 -0.38121868558E+02 -0.19295163137E+03  0.19869723726E+03  0.00000000000E+00 0. -1.
         22    1    3    3    0    0 -0.57434678370E+02 -0.66816925397E+02 -0.35867328301E+02  0.95129958680E+02  0.00000000000E+00 0. -1.
</event>
<event>
 7    1  0.7961130E-006  0.9348946E+02  0.7818608E-02  0.1482027E+00
          2   -1    0    0  502    0  0.00000000000E+00  0.00000000000E+00  0.10503526298E+04  0.10503526298E+04  0.00000000000E+00 0. -1.
          1   -1    0    0  501    0 -0.00000000000E+00 -0.00000000000E+00 -0.23553149671E+03  0.23553149671E+03  0.00000000000E+00 0. -1.
         25    2    1    2    0    0  0.92572538516E+02 -0.24118504271E+02 -0.59260976277E+02  0.16819953607E+03  0.12501137343E+03 0.  0.
          2    1    1    2  501    0 -0.83163136860E+02  0.42345923928E+02 -0.10380186146E+03  0.13958549727E+03  0.00000000000E+00 0. -1.
          1    1    1    2  502    0 -0.94094016558E+01 -0.18227419657E+02  0.97788397080E+03  0.97809909315E+03  0.00000000000E+00 0. -1.
         22    1    3    3    0    0  0.11007853916E+03 -0.28747910086E+01 -0.84858550676E+01  0.11044255947E+03  0.00000000000E+00 0. -1.
         22    1    3    3    0    0 -0.17506000641E+02 -0.21243713262E+02 -0.50775121209E+02  0.57756976595E+02  0.00000000000E+00 0. -1.
</event>
<event>
 7    1  0.7961130E-006  0.5761042E+02  0.7818608E-02  0.1521787E+00
          2   -1    0    0  502    0  0.00000000000E+00  0.00000000000E+00  0.11144420389E+04  0.11144420389E+04  0.00000000000E+00 0. -1.
          1   -1    0    0  501    0 -0.00000000000E+00 -0.00000000000E+00 -0.42167268908E+03  0.42167268908E+03  0.00000000000E+00 0. -1.
         25    2    1    2    0    0 -0.36993880558E+02  0.51827712567E+02  0.32969018379E+03  0.35829829408E+03  0.12500956469E+03 0.  0.
          2    1    1    2  501    0 -0.12290059128E+02 -0.22168248329E+02 -0.40589916239E+03  0.40668981646E+03  0.00000000000E+00 0. -1.
          1    1    1    2  502    0  0.49283939686E+02 -0.29659464239E+02  0.76897832848E+03  0.77112661749E+03  0.00000000000E+00 0. -1.
         22    1    3    3    0    0 -0.70542435266E+02  0.48167785108E+02  0.12852012192E+03  0.15431718126E+03  0.00000000000E+00 0.  1.
         22    1    3    3    0    0  0.33548554708E+02  0.36599274592E+01  0.20117006187E+03  0.20398111281E+03  0.00000000000E+00 0.  1.
</event>
<event>
 7    1  0.7961130E-006  0.6824231E+02  0.7818608E-02  0.1420008E+00
          2   -1    0    0  502    0  0.00000000000E+00  0.00000000000E+00  0.55733502382E+03  0.55733502382E+03  0.00000000000E+00 0. -1.
          1   -1    0    0  501    0 -0.00000000000E+00 -0.00000000000E+00 -0.22184717097E+03  0.22184717097E+03  0.00000000000E+00 0. -1.
         25    2    1    2    0    0  0.25544841539E+02 -0.53904373319E+02 -0.69995165753E+02  0.15518051105E+03  0.12499378940E+03 0.  0.
          2    1    1    2  501    0  0.14885906091E+02  0.72152699729E+02 -0.95748416549E+02  0.12081126417E+03  0.00000000000E+00 0. -1.
          1    1    1    2  502    0 -0.40430747630E+02 -0.18248326409E+02  0.50123143515E+03  0.50319041958E+03  0.00000000000E+00 0. -1.
         22    1    3    3    0    0  0.20425930592E+02 -0.20200154229E+02 -0.10348114158E+03  0.10739465319E+03  0.00000000000E+00 0.  1.
         22    1    3    3    0    0  0.51189109468E+01 -0.33704219091E+02  0.33485975830E+02  0.47785857857E+02  0.00000000000E+00 0.  1.
</event>
<event>
 7    1  0.7961130E-006  0.9164868E+02  0.7818608E-02  0.1340760E+00
          2   -1    0    0  502    0  0.00000000000E+00  0.00000000000E+00  0.24326081564E+03  0.24326081564E+03  0.00000000000E+00 0. -1.
          1   -1    0    0  501    0 -0.00000000000E+00 -0.00000000000E+00 -0.15881418492E+04  0.15881418492E+04  0.00000000000E+00 0. -1.
         25    2    1    2    0    0 -0.95953373279E+02  0.20036186153E+02 -0.41904860814E+03  0.44814557463E+03  0.12499688586E+03 0.  0.
          2    1    1    2  501    0  0.37322976044E+02  0.50811277072E+02 -0.11443978775E+04  0.11461331914E+04  0.00000000000E+00 0. -1.
          1    1    1    2  502    0  0.58630397235E+02 -0.70847463225E+02  0.21856545210E+03  0.23712389879E+03  0.00000000000E+00 0. -1.
         22    1    3    3    0    0  0.10923569637E+02 -0.27301039952E+01  0.34246483677E+01  0.11768859668E+02  0.00000000000E+00 0. -1.
         22    1    3    3    0    0 -0.10687694292E+03  0.22766290148E+02 -0.42247325651E+03  0.43637671496E+03  0.00000000000E+00 0. -1.
</event>
<event>
 7    1  0.7961130E-006  0.1966959E+03  0.7818608E-02  0.1200932E+00
          2   -1    0    0  502    0  0.00000000000E+00  0.00000000000E+00  0.39994390356E+03  0.39994390356E+03  0.00000000000E+00 0. -1.
          1   -1    0    0  501    0 -0.00000000000E+00 -0.00000000000E+00 -0.42080809283E+03  0.42080809283E+03  0.00000000000E+00 0. -1.
         25    2    1    2    0    0 -0.27974287825E+03 -0.64417368726E+02 -0.16798072990E+02  0.31354740139E+03  0.12499648931E+03 0.  0.
          2    1    1    2  501    0  0.17646855114E+03  0.16565436663E+02 -0.20823338692E+03  0.27345329886E+03  0.00000000000E+00 0. -1.
          1    1    1    2  502    0  0.10327432711E+03  0.47851932063E+02  0.20416727064E+03  0.23375129613E+03  0.00000000000E+00 0. -1.
         22    1    3    3    0    0 -0.17759944882E+03 -0.23772956101E+01  0.38698094895E+02  0.18178217268E+03  0.00000000000E+00 0.  1.
         22    1    3    3    0    0 -0.10214342943E+03 -0.62040073116E+02 -0.55496167884E+02  0.13176522871E+03  0.00000000000E+00 0.  1.
</event>
<event>
 7    1  0.7961130E-006  0.8923981E+02  0.7818608E-02  0.1326402E+00
          2   -1    0    0  502    0  0.00000000000E+00  0.00000000000E+00  0.29005381946E+03  0.29005381946E+03  0.00000000000E+00 0. -1.
          1   -1    0    0  501    0 -0.00000000000E+00 -0.00000000000E+00 -0.49331942004E+03  0.49331942004E+03  0.00000000000E+00 0. -1.
         25    2    1    2    0    0 -0.11472321940E+03  0.55120165282E+02 -0.28985047936E+03  0.34034669605E+03  0.12499169347E+03 0.  0.
          2    1    1    2  501    0  0.42409608711E+02 -0.67784438930E+02 -0.16370690268E+03  0.18219016180E+03  0.00000000000E+00 0. -1.
          1    1    1    2  502    0  0.72313610687E+02  0.12664273648E+02  0.25029178146E+03  0.26083638164E+03  0.00000000000E+00 0. -1.
         22    1    3    3    0    0 -0.57667223286E+02 -0.37050087578E+02 -0.13387236545E+03  0.15039956071E+03  0.00000000000E+00 0.  1.
         22    1    3    3    0    0 -0.57055996112E+02  0.92170252860E+02 -0.15597811392E+03  0.18994713534E+03  0.00000000000E+00 0.  1.
</event>
<event>
 7    1  0.7961130E-006  0.6953367E+02  0.7818608E-02  0.1489075E+00
          2   -1    0    0  502    0  0.00000000000E+00  0.00000000000E+00  0.62354454056E+03  0.62354454056E+03  0.00000000000E+00 0. -1.
          1   -1    0    0  501    0 -0.00000000000E+00 -0.00000000000E+00 -0.88362317425E+02  0.88362317425E+02  0.00000000000E+00 0. -1.
         25    2    1    2    0    0  0.10743548511E+02  0.60683193536E+02  0.36846473759E+03  0.39393999968E+03  0.12499834675E+03 0.  0.
          2    1    1    2  501    0 -0.23045121086E+02  0.12570483826E+02 -0.67408933398E+02  0.72339885066E+02  0.00000000000E+00 0. -1.
          1    1    1    2  502    0  0.12301572575E+02 -0.73253677362E+02  0.23412641894E+03  0.24562697324E+03  0.00000000000E+00 0. -1.
         22    1    3    3    0    0  0.60147862260E+02  0.17774588805E+01  0.12706049673E+03  0.14058909817E+03  0.00000000000E+00 0. -1.
         22    1    3    3    0    0 -0.49404313749E+02  0.58905734655E+02  0.24140424086E+03  0.25335090152E+03  0.00000000000E+00 0. -1.
</event>
<event>
 7    1  0.7997444E-006  0.1308240E+03  0.7818608E-02  0.1361564E+00
          2   -1    0    0  502    0  0.00000000000E+00  0.00000000000E+00  0.44060474239E+03  0.44060474239E+03  0.00000000000E+00 0. -1.
          1   -1    0    0  501    0 -0.00000000000E+00 -0.00000000000E+00 -0.15417906158E+04  0.15417906158E+04  0.00000000000E+00 0. -1.
         25    2    1    2    0    0 -0.15151484920E+03  0.60531384923E+02 -0.30427508888E+03  0.36720244084E+03  0.12503401440E+03 0.  0.
          2    1    1    2  501    0  0.26334009788E+02 -0.25984133891E+02 -0.11954541220E+04  0.11960264266E+04  0.00000000000E+00 0. -1.
          1    1    1    2  502    0  0.12518083941E+03 -0.34547251033E+02  0.39854333749E+03  0.41916649075E+03  0.00000000000E+00 0. -1.
         22    1    3    3    0    0  0.79417049773E+01  0.15236975632E+02 -0.11211507386E+03  0.11342409749E+03  0.00000000000E+00 0. -1.
         22    1    3    3    0    0 -0.15945655417E+03  0.45294409291E+02 -0.19216001502E+03  0.25377834335E+03  0.00000000000E+00 0. -1.
</event>
<event>
 7    1  0.7961130E-006  0.8655038E+02  0.7818608E-02  0.1372352E+00
          2   -1    0    0  502    0  0.00000000000E+00  0.00000000000E+00  0.72875339542E+03  0.72875339542E+03  0.00000000000E+00 0. -1.
          1   -1    0    0  501    0 -0.00000000000E+00 -0.00000000000E+00 -0.19338759822E+03  0.19338759822E+03  0.00000000000E+00 0. -1.
         25    2    1    2    0    0  0.28755208029E+02 -0.35716654263E+02  0.53725345648E+02  0.14357013203E+03  0.12499371450E+03 0.  0.
          2    1    1    2  501    0 -0.77452419511E+02  0.51273590843E+02 -0.13277060056E+03  0.16203669578E+03  0.00000000000E+00 0. -1.
          1    1    1    2  502    0  0.48697211483E+02 -0.15556936579E+02  0.61441105211E+03  0.61653416583E+03  0.00000000000E+00 0. -1.
         22    1    3    3    0    0  0.18834800852E+02 -0.70354471103E+02  0.72650543893E+02  0.10287177871E+03  0.00000000000E+00 0. -1.
         22    1    3    3    0    0  0.99204071766E+01  0.34637816840E+02 -0.18925198244E+02  0.40698353315E+02  0.00000000000E+00 0. -1.
</event>
<event>
 7    1  0.7961130E-006  0.1057427E+03  0.7818608E-02  0.1415207E+00
          2   -1    0    0  502    0  0.00000000000E+00  0.00000000000E+00  0.60687854995E+02  0.60687854995E+02  0.00000000000E+00 0. -1.
          1   -1    0    0  501    0 -0.00000000000E+00 -0.00000000000E+00 -0.52015325428E+03  0.52015325428E+03  0.00000000000E+00 0. -1.
         25    2    1    2    0    0  0.10344520780E+03 -0.20380980056E+02 -0.20015591589E+03  0.25844216195E+03  0.12495465194E+03 0.  0.
          2    1    1    2  501    0 -0.82040415361E+01 -0.28552396599E+02 -0.19551500677E+03  0.19775910478E+03  0.00000000000E+00 0. -1.
          1    1    1    2  502    0 -0.95241166268E+02  0.48933376655E+02 -0.63794476616E+02  0.12463984254E+03  0.00000000000E+00 0. -1.
         22    1    3    3    0    0 -0.38990326631E+01  0.29231282853E+02 -0.97445623797E+02  0.10181021535E+03  0.00000000000E+00 0. -1.
         22    1    3    3    0    0  0.10734424047E+03 -0.49612262909E+02 -0.10271029210E+03  0.15663194660E+03  0.00000000000E+00 0. -1.
</event>
<event>
 7    1  0.7961130E-006  0.3780956E+02  0.7818608E-02  0.1595083E+00
          2   -1    0    0  502    0  0.00000000000E+00  0.00000000000E+00  0.17788724663E+04  0.17788724663E+04  0.00000000000E+00 0. -1.
          1   -1    0    0  501    0 -0.00000000000E+00 -0.00000000000E+00 -0.19623942698E+03  0.19623942698E+03  0.00000000000E+00 0. -1.
         25    2    1    2    0    0  0.23702313054E+00  0.20637009729E+02  0.98851584844E+02  0.16069686841E+03  0.12500362130E+03 0.  0.
          2    1    1    2  501    0  0.22035929532E+02  0.10098869909E+02 -0.16420852128E+03  0.16598797494E+03  0.00000000000E+00 0. -1.
          1    1    1    2  502    0 -0.22272952663E+02 -0.30735879638E+02  0.16479899757E+04  0.16484270499E+04  0.00000000000E+00 0. -1.
         22    1    3    3    0    0 -0.42951895393E+02  0.46426517437E+02  0.89404407201E+02  0.10951454180E+03  0.00000000000E+00 0.  1.
         22    1    3    3    0    0  0.43188918524E+02 -0.25789507709E+02  0.94471776428E+01  0.51182326603E+02  0.00000000000E+00 0.  1.
</event>
<event>
 7    1  0.7961130E-006  0.1201161E+03  0.7818608E-02  0.1262128E+00
          2   -1    0    0  502    0  0.00000000000E+00  0.00000000000E+00  0.32757009757E+04  0.32757009757E+04  0.00000000000E+00 0. -1.
          1   -1    0    0  501    0 -0.00000000000E+00 -0.00000000000E+00 -0.12769467577E+03  0.12769467577E+03  0.00000000000E+00 0. -1.
         25    2    1    2    0    0  0.27416305655E+02 -0.44798100425E+01  0.62861126158E+03  0.64152131277E+03  0.12500301613E+03 0.  0.
          2    1    1    2  501    0 -0.12284170504E+03 -0.22654629085E+02 -0.87869400092E+02  0.15272310954E+03  0.00000000000E+00 0. -1.
          1    1    1    2  502    0  0.95425399382E+02  0.27134439128E+02  0.26072644384E+04  0.26091512292E+04  0.00000000000E+00 0. -1.
         22    1    3    3    0    0  0.18580064731E+02  0.24540908518E+01  0.62993305990E+03  0.63021179085E+03  0.00000000000E+00 0.  1.
         22    1    3    3    0    0  0.88362409240E+01 -0.69339008944E+01 -0.13217983235E+01  0.11309521921E+02  0.00000000000E+00 0.  1.
</event>
<event>
 7    1  0.7961130E-006  0.4230441E+02  0.7818608E-02  0.1521503E+00
          2   -1    0    0  502    0  0.00000000000E+00  0.00000000000E+00  0.23016123986E+04  0.23016123986E+04  0.00000000000E+00 0. -1.
          1   -1    0    0  501    0 -0.00000000000E+00 -0.00000000000E+00 -0.46584759287E+03  0.46584759287E+03  0.00000000000E+00 0. -1.
         25    2    1    2    0    0  0.40455107543E+02 -0.51957527364E+02 -0.32148716191E+03  0.35116216630E+03  0.12499868557E+03 0.  0.
          2    1    1    2  501    0 -0.34172217489E+02  0.17949718148E+02 -0.12651329276E+03  0.13227073023E+03  0.00000000000E+00 0. -1.
          1    1    1    2  502    0 -0.62828900544E+01  0.34007809216E+02  0.22837652604E+04  0.22840270949E+04  0.00000000000E+00 0. -1.
         22    1    3    3    0    0  0.10088794076E+02 -0.33413556738E+02 -0.81905148043E+01  0.35851556069E+02  0.00000000000E+00 0. -1.
         22    1    3    3    0    0  0.30366313467E+02 -0.18543970626E+02 -0.31329664710E+03  0.31531061024E+03  0.00000000000E+00 0. -1.
</event>
<event>
 7    1  0.7961130E-006  0.1066078E+03  0.7818608E-02  0.1360617E+00
          2   -1    0    0  502    0  0.00000000000E+00  0.00000000000E+00  0.16646641296E+04  0.16646641296E+04  0.00000000000E+00 0. -1.
          1   -1    0    0  501    0 -0.00000000000E+00 -0.00000000000E+00 -0.26288503019E+03  0.26288503019E+03  0.00000000000E+00 0. -1.
         25    2    1    2    0    0  0.41090734449E+02 -0.51700305112E+02  0.11473044785E+03  0.18206794616E+03  0.12499716537E+03 0.  0.
          2    1    1    2  501    0 -0.56220230304E+02  0.94887911640E+02 -0.21558035356E+03  0.24215556759E+03  0.00000000000E+00 0. -1.
          1    1    1    2  502    0  0.15129495856E+02 -0.43187606528E+02  0.15026290051E+04  0.15033256461E+04  0.00000000000E+00 0. -1.
         22    1    3    3    0    0  0.58555333831E+02  0.24270223479E+01  0.11044591646E+03  0.12503166807E+03  0.00000000000E+00 0. -1.
         22    1    3    3    0    0 -0.17464599382E+02 -0.54127327460E+02  0.42845313902E+01  0.57036278093E+02  0.00000000000E+00 0. -1.
</event>
<event>
 7    1  0.7961130E-006  0.1383602E+03  0.7818608E-02  0.1354077E+00
          2   -1    0    0  502    0  0.00000000000E+00  0.00000000000E+00  0.18253388241E+04  0.18253388241E+04  0.00000000000E+00 0. -1.
          1   -1    0    0  501    0 -0.00000000000E+00 -0.00000000000E+00 -0.28490829140E+03  0.28490829140E+03  0.00000000000E+00 0. -1.
         25    2    1    2    0    0 -0.64215068589E+02 -0.87452891868E+02  0.48875288451E+03  0.51601962736E+03  0.12500116149E+03 0.  0.
          2    1    1    2  501    0  0.62538092888E+02  0.12467456856E+03 -0.25306236738E+03  0.28895557253E+03  0.00000000000E+00 0. -1.
          1    1    1    2  502    0  0.16769757014E+01 -0.37221676694E+02  0.13047400156E+04  0.13052719157E+04  0.00000000000E+00 0. -1.
         22    1    3    3    0    0 -0.65409448200E+02 -0.47788668665E+02  0.11788634850E+03  0.14303616301E+03  0.00000000000E+00 0. -1.
         22    1    3    3    0    0  0.11943796103E+01 -0.39664223203E+02  0.37086653601E+03  0.37298346435E+03  0.00000000000E+00 0. -1.
</event>
<event>
 7    1  0.7961130E-006  0.9758839E+02  0.7818608E-02  0.1325532E+00
          2   -1    0    0  502    0  0.00000000000E+00  0.00000000000E+00  0.29977935701E+03  0.29977935701E+03  0.00000000000E+00 0. -1.
          1   -1    0    0  501    0 -0.00000000000E+00 -0.00000000000E+00 -0.23564336158E+03  0.23564336158E+03  0.00000000000E+00 0. -1.
         25    2    1    2    0    0  0.50088669764E+02  0.13356319454E+03  0.52392274705E+02  0.19676757300E+03  0.12499810223E+03 0.  0.
          2    1    1    2  501    0 -0.64856481271E+02 -0.67542183202E+02 -0.14233698664E+03  0.17037642865E+03  0.00000000000E+00 0. -1.
          1    1    1    2  502    0  0.14767811507E+02 -0.66021011334E+02  0.15408070736E+03  0.16827871694E+03  0.00000000000E+00 0. -1.
         22    1    3    3    0    0  0.56465269067E+02  0.14959224853E+03  0.21430050327E+02  0.16132394270E+03  0.00000000000E+00 0. -1.
         22    1    3    3    0    0 -0.63765993027E+01 -0.16029053992E+02  0.30962224378E+02  0.35443630302E+02  0.00000000000E+00 0. -1.
</event>
<event>
 7    1  0.7961130E-006  0.4056098E+02  0.7818608E-02  0.1560112E+00
          2   -1    0    0  502    0  0.00000000000E+00  0.00000000000E+00  0.40411166928E+03  0.40411166928E+03  0.00000000000E+00 0. -1.
          1   -1    0    0  501    0 -0.00000000000E+00 -0.00000000000E+00 -0.72134028078E+02  0.72134028078E+02  0.00000000000E+00 0. -1.
         25    2    1    2    0    0 -0.61658624368E+02 -0.34857796458E+01  0.15152410563E+03  0.20591046476E+03  0.12500251315E+03 0.  0.
          2    1    1    2  501    0  0.36418028074E+02  0.15746760707E+02 -0.35093276970E+02  0.52969532092E+02  0.00000000000E+00 0. -1.
          1    1    1    2  502    0  0.25240596295E+02 -0.12260981062E+02  0.21554681255E+03  0.21736570051E+03  0.00000000000E+00 0. -1.
         22    1    3    3    0    0  0.18646614591E+02 -0.37099869577E+02  0.15313653119E+02  0.44256124211E+02  0.00000000000E+00 0.  1.
         22    1    3    3    0    0 -0.80305238959E+02  0.33614089931E+02  0.13621045251E+03  0.16165434055E+03  0.00000000000E+00 0.  1.
</event>
<event>
 7    1  0.7961130E-006  0.2879797E+03  0.7818608E-02  0.1266791E+00
          2   -1    0    0  502    0  0.00000000000E+00  0.00000000000E+00  0.13054429072E+04  0.13054429072E+04  0.00000000000E+00 0. -1.
          1   -1    0    0  501    0 -0.00000000000E+00 -0.00000000000E+00 -0.61305456163E+03  0.61305456163E+03  0.00000000000E+00 0. -1.
         25    2    1    2    0    0 -0.14908476265E+03 -0.24620761518E+03 -0.21159212658E+03  0.37847198153E+03  0.12500142617E+03 0.  0.
          2    1    1    2  501    0 -0.32512891649E+02  0.22500528532E+02 -0.29972111672E+03  0.30231789513E+03  0.00000000000E+00 0. -1.
          1    1    1    2  502    0  0.18159765430E+03  0.22370708664E+03  0.12037015889E+04  0.12377075922E+04  0.00000000000E+00 0. -1.
         22    1    3    3    0    0 -0.69265636063E+02 -0.22609781082E+02 -0.75002521331E+02  0.10456724509E+03  0.00000000000E+00 0.  1.
         22    1    3    3    0    0 -0.79819126590E+02 -0.22359783409E+03 -0.13658960525E+03  0.27390473644E+03  0.00000000000E+00 0.  1.
</event>
<event>
 7    1  0.7961130E-006  0.6297817E+02  0.7818608E-02  0.1503741E+00
          2   -1    0    0  502    0  0.00000000000E+00  0.00000000000E+00  0.25743715829E+04  0.25743715829E+04  0.00000000000E+00 0. -1.
          1   -1    0    0  501    0 -0.00000000000E+00 -0.00000000000E+00 -0.42716530237E+03  0.42716530237E+03  0.00000000000E+00 0. -1.
         25    2    1    2    0    0  0.59946248336E+02 -0.49751750070E+02  0.71198750000E+03  0.72706245324E+03  0.12499928571E+03 0.  0.
          2    1    1    2  501    0 -0.26082470439E+02 -0.23874765417E+01 -0.41869754311E+03  0.41951594477E+03  0.00000000000E+00 0. -1.
          1    1    1    2  502    0 -0.33863777898E+02  0.52139226612E+02  0.18539163236E+04  0.18549584872E+04  0.00000000000E+00 0. -1.
         22    1    3    3    0    0  0.76910608313E+02  0.59569197146E+01  0.25595932067E+03  0.26733106890E+03  0.00000000000E+00 0.  1.
         22    1    3    3    0    0 -0.16964359977E+02 -0.55708669785E+02  0.45602817933E+03  0.45973138433E+03  0.00000000000E+00 0.  1.
</event>
<event>
 7    1  0.7961130E-006  0.1288183E+03  0.7818608E-02  0.1314457E+00
          2   -1    0    0  502    0  0.00000000000E+00  0.00000000000E+00  0.11425609023E+04  0.11425609023E+04  0.00000000000E+00 0. -1.
          1   -1    0    0  501    0 -0.00000000000E+00 -0.00000000000E+00 -0.58291498228E+02  0.58291498228E+02  0.00000000000E+00 0. -1.
         25    2    1    2    0    0 -0.10211491483E+03  0.81648289042E+01  0.16035946156E+03  0.22767147196E+03  0.12500008789E+03 0.  0.
          2    1    1    2  501    0 -0.24640315410E+02 -0.50934720962E+02  0.20904248172E+02  0.60319802177E+02  0.00000000000E+00 0. -1.
          1    1    1    2  502    0  0.12675523024E+03  0.42769892058E+02  0.90300569431E+03  0.91286112636E+03  0.00000000000E+00 0. -1.
         22    1    3    3    0    0 -0.10956759697E+03  0.10846640201E+02  0.56951097048E+02  0.12396021686E+03  0.00000000000E+00 0.  1.
         22    1    3    3    0    0  0.74526821397E+01 -0.26818112970E+01  0.10340836451E+03  0.10371125510E+03  0.00000000000E+00 0.  1.
</event>
<event>
 7    1  0.7961130E-006  0.1253978E+03  0.7818608E-02  0.1304154E+00
          2   -1    0    0  502    0  0.00000000000E+00  0.00000000000E+00  0.64844223208E+03  0.64844223208E+03  0.00000000000E+00 0. -1.
          1   -1    0    0  501    0 -0.00000000000E+00 -0.00000000000E+00 -0.14535033053E+04  0.14535033053E+04  0.00000000000E+00 0. -1.
         25    2    1    2    0    0 -0.36862611895E+02 -0.55171149627E+02 -0.84741184477E+01  0.14177423287E+03  0.12500165805E+03 0.  0.
          2    1    1    2  501    0  0.88732402746E+02  0.92366522005E+02 -0.13736402857E+04  0.13795987272E+04  0.00000000000E+00 0. -1.
          1    1    1    2  502    0 -0.51869790851E+02 -0.37195372378E+02  0.57705333085E+03  0.58057257735E+03  0.00000000000E+00 0. -1.
         22    1    3    3    0    0 -0.53199436575E+02 -0.48970327222E+02  0.45237359248E+02  0.85291803075E+02  0.00000000000E+00 0. -1.
         22    1    3    3    0    0  0.16336824680E+02 -0.62008224047E+01 -0.53711477695E+02  0.56482429793E+02  0.00000000000E+00 0. -1.
</event>
<event>
 7    1  0.7961130E-006  0.1006701E+03  0.7818608E-02  0.1319502E+00
          2   -1    0    0  502    0  0.00000000000E+00  0.00000000000E+00  0.31566775842E+04  0.31566775842E+04  0.00000000000E+00 0. -1.
          1   -1    0    0  501    0 -0.00000000000E+00 -0.00000000000E+00 -0.29923957501E+02  0.29923957501E+02  0.00000000000E+00 0. -1.
         25    2    1    2    0    0  0.12264741894E+02 -0.51732298662E+02  0.74338353389E+03  0.75569261348E+03  0.12500237190E+03 0.  0.
          2    1    1    2  501    0  0.31252417433E+02  0.10553270795E+03  0.10704845476E+03  0.15353578641E+03  0.00000000000E+00 0. -1.
          1    1    1    2  502    0 -0.43517159328E+02 -0.53800409293E+02  0.22763216380E+04  0.22773731418E+04  0.00000000000E+00 0. -1.
         22    1    3    3    0    0  0.17541114035E+02 -0.24268765311E+02  0.71575385230E+03  0.71637995557E+03  0.00000000000E+00 0.  1.
         22    1    3    3    0    0 -0.52763721410E+01 -0.27463533352E+02  0.27629681588E+02  0.39312657908E+02  0.00000000000E+00 0.  1.
</event>
<event>
 7    1  0.7961130E-006  0.1543174E+03  0.7818608E-02  0.1312582E+00
          2   -1    0    0  502    0  0.00000000000E+00  0.00000000000E+00  0.64785589047E+03  0.64785589047E+03  0.00000000000E+00 0. -1.
          1   -1    0    0  501    0 -0.00000000000E+00 -0.00000000000E+00 -0.10265447920E+04  0.10265447920E+04  0.00000000000E+00 0. -1.
         25    2    1    2    0    0 -0.10457701081E+03  0.42469362804E+02  0.12612154711E+03  0.21041944972E+03  0.12501880742E+03 0.  0.
          2    1    1    2  501    0  0.15198199580E+03 -0.34694963597E+02 -0.97699766174E+03  0.98935670948E+03  0.00000000000E+00 0. -1.
          1    1    1    2  502    0 -0.47404984998E+02 -0.77743992069E+01  0.47218721309E+03  0.47462452328E+03  0.00000000000E+00 0. -1.
         22    1    3    3    0    0 -0.32551052889E+02  0.65065945149E+02  0.12218320928E+02  0.73772865124E+02  0.00000000000E+00 0. -1.
         22    1    3    3    0    0 -0.72025957918E+02 -0.22596582345E+02  0.11390322618E+03  0.13664658460E+03  0.00000000000E+00 0. -1.
</event>
<event>
 7    1  0.7961130E-006  0.1216210E+03  0.7818608E-02  0.1263531E+00
          2   -1    0    0  502    0  0.00000000000E+00  0.00000000000E+00  0.42748509102E+03  0.42748509102E+03  0.00000000000E+00 0. -1.
          1   -1    0    0  501    0 -0.00000000000E+00 -0.00000000000E+00 -0.20925567642E+03  0.20925567642E+03  0.00000000000E+00 0. -1.
         25    2    1    2    0    0  0.11741322705E+03  0.12894795851E+03  0.20264963892E+03  0.29513945217E+03  0.12500791247E+03 0.  0.
          2    1    1    2  501    0 -0.21531703720E+02 -0.11682410299E+03 -0.12407084471E+03  0.17177036943E+03  0.00000000000E+00 0. -1.
          1    1    1    2  502    0 -0.95881523334E+02 -0.12123855511E+02  0.13965062039E+03  0.16983094584E+03  0.00000000000E+00 0. -1.
         22    1    3    3    0    0 -0.23175306905E+02  0.43734810811E+02  0.57132712904E+02  0.75590842108E+02  0.00000000000E+00 0.  1.
         22    1    3    3    0    0  0.14058853396E+03  0.85213147694E+02  0.14551692602E+03  0.21954861006E+03  0.00000000000E+00 0.  1.
</event>
<event>
 7    1  0.7961130E-006  0.6040072E+02  0.7818608E-02  0.1436198E+00
          2   -1    0    0  502    0  0.00000000000E+00  0.00000000000E+00  0.16766395504E+04  0.16766395504E+04  0.00000000000E+00 0. -1.
          1   -1    0    0  501    0 -0.00000000000E+00 -0.00000000000E+00 -0.17100499939E+02  0.17100499939E+02  0.00000000000E+00 0. -1.
         25    2    1    2    0    0  0.10434741415E+02  0.48265839786E+02  0.70788744338E+03  0.72053354802E+03  0.12500194481E+03 0.  0.
          2    1    1    2  501    0 -0.43752950892E+02  0.70288527470E+01  0.41322001053E+02  0.60590702700E+02  0.00000000000E+00 0. -1.
          1    1    1    2  502    0  0.33318209477E+02 -0.55294692533E+02  0.91032960602E+03  0.91261579961E+03  0.00000000000E+00 0. -1.
         22    1    3    3    0    0 -0.56952649030E+02  0.13746458560E+02  0.32264753717E+03  0.32792377559E+03  0.00000000000E+00 0.  1.
         22    1    3    3    0    0  0.67387390445E+02  0.34519381227E+02  0.38523990621E+03  0.39260977243E+03  0.00000000000E+00 0.  1.
</event>
<event>
 7    1  0.7961130E-006  0.6449981E+02  0.7818608E-02  0.1417290E+00
          2   -1    0    0  502    0  0.00000000000E+00  0.00000000000E+00  0.28327896020E+04  0.28327896020E+04  0.00000000000E+00 0. -1.
          1   -1    0    0  501    0 -0.00000000000E+00 -0.00000000000E+00 -0.85678816963E+03  0.85678816963E+03  0.00000000000E+00 0. -1.
         25    2    1    2    0    0  0.79071284277E+00  0.10492798854E+03  0.34125037556E+03  0.37826900620E+03  0.12500045689E+03 0.  0.
          2    1    1    2  501    0  0.18493787276E+02 -0.44213262544E+02 -0.83718317772E+03  0.83855381807E+03  0.00000000000E+00 0. -1.
          1    1    1    2  502    0 -0.19284500118E+02 -0.60714725994E+02  0.24719342345E+04  0.24727549474E+04  0.00000000000E+00 0. -1.
         22    1    3    3    0    0 -0.16300889880E+02 -0.26235363507E+02  0.68134800101E+02  0.74808851709E+02  0.00000000000E+00 0. -1.
         22    1    3    3    0    0  0.17091602722E+02  0.13116335205E+03  0.27311557546E+03  0.30346015449E+03  0.00000000000E+00 0. -1.
</event>
<event>
 7    1  0.7961130E-006  0.1033469E+03  0.7818608E-02  0.1288040E+00
          2   -1    0    0  502    0  0.00000000000E+00  0.00000000000E+00  0.26667593897E+03  0.26667593897E+03  0.00000000000E+00 0. -1.
          1   -1    0    0  501    0 -0.00000000000E+00 -0.00000000000E+00 -0.16092587220E+04  0.16092587220E+04  0.00000000000E+00 0. -1.
         25    2    1    2    0    0 -0.19069826791E+02 -0.26940056985E+02 -0.29772964234E+03  0.32458849854E+03  0.12500131397E+03 0.  0.
          2    1    1    2  501    0 -0.87163927327E+02  0.22140403774E+02 -0.12852950717E+04  0.12884374913E+04  0.00000000000E+00 0. -1.
          1    1    1    2  502    0  0.10623375412E+03  0.47996532105E+01  0.24044193098E+03  0.26290867114E+03  0.00000000000E+00 0. -1.
         22    1    3    3    0    0 -0.66743583288E+02 -0.81260458181E+01 -0.10130238987E+03  0.12158500205E+03  0.00000000000E+00 0. -1.
         22    1    3    3    0    0  0.47673756496E+02 -0.18814011166E+02 -0.19642725247E+03  0.20300349649E+03  0.00000000000E+00 0. -1.
</event>
<event>
 7    1  0.7961130E-006  0.9430403E+02  0.7818608E-02  0.1421456E+00
          2   -1    0    0  502    0  0.00000000000E+00  0.00000000000E+00  0.15723383004E+04  0.15723383004E+04  0.00000000000E+00 0. -1.
          1   -1    0    0  501    0 -0.00000000000E+00 -0.00000000000E+00 -0.17795328414E+02  0.17795328414E+02  0.00000000000E+00 0. -1.
         25    2    1    2    0    0  0.10481841209E+03  0.42974501436E+02  0.62371577778E+03  0.64612713928E+03  0.12500080549E+03 0.  0.
          2    1    1    2  501    0 -0.73135489478E+02 -0.44950044340E+02  0.29114238974E+03  0.30353450777E+03  0.00000000000E+00 0. -1.
          1    1    1    2  502    0 -0.31682922610E+02  0.19755429042E+01  0.63968480450E+03  0.64047198179E+03  0.00000000000E+00 0. -1.
         22    1    3    3    0    0 -0.10254293108E+02 -0.27297094717E+02  0.62894392923E+02  0.69325223175E+02  0.00000000000E+00 0. -1.
         22    1    3    3    0    0  0.11507270520E+03  0.70271596153E+02  0.56082138486E+03  0.57680191610E+03  0.00000000000E+00 0. -1.
</event>
<event>
 7    1  0.7961130E-006  0.6313446E+02  0.7818608E-02  0.1454099E+00
          2   -1    0    0  502    0  0.00000000000E+00  0.00000000000E+00  0.11258192534E+03  0.11258192534E+03  0.00000000000E+00 0. -1.
          1   -1    0    0  501    0 -0.00000000000E+00 -0.00000000000E+00 -0.12059250756E+04  0.12059250756E+04  0.00000000000E+00 0. -1.
         25    2    1    2    0    0 -0.37121480270E+01 -0.29000026844E+02 -0.22196943409E+03  0.25641974346E+03  0.12500349421E+03 0.  0.
          2    1    1    2  501    0  0.20817641324E+02  0.61947139450E+02 -0.96196630749E+03  0.96418359197E+03  0.00000000000E+00 0. -1.
          1    1    1    2  502    0 -0.17105493297E+02 -0.32947112607E+02  0.90592591290E+02  0.97903665543E+02  0.00000000000E+00 0. -1.
         22    1    3    3    0    0 -0.28338978595E+02  0.19087281861E+02 -0.71460315065E+01  0.34906844644E+02  0.00000000000E+00 0. -1.
         22    1    3    3    0    0  0.24626830568E+02 -0.48087308705E+02 -0.21482340258E+03  0.22151289881E+03  0.00000000000E+00 0. -1.
</event>
<event>
 7    1  0.9237676E-006  0.6982079E+02  0.7818608E-02  0.1480378E+00
          2   -1    0    0  502    0  0.00000000000E+00  0.00000000000E+00  0.28834833590E+04  0.28834833590E+04  0.00000000000E+00 0. -1.
          1   -1    0    0  501    0 -0.00000000000E+00 -0.00000000000E+00 -0.87329866088E+03  0.87329866088E+03  0.00000000000E+00 0. -1.
         25    2    1    2    0    0 -0.34558577835E+02 -0.78867295430E+02 -0.14220443635E+03  0.20799251046E+03  0.12499774838E+03 0.  0.
          2    1    1    2  501    0  0.26078804149E+02  0.95945012611E+01 -0.69749633536E+03  0.69804963743E+03  0.00000000000E+00 0. -1.
          1    1    1    2  502    0  0.84797736856E+01  0.69272794169E+02  0.28498854698E+04  0.28507398720E+04  0.00000000000E+00 0. -1.
         22    1    3    3    0    0 -0.71450454091E+01 -0.10857564913E+03 -0.11954878657E+03  0.16165282437E+03  0.00000000000E+00 0. -1.
         22    1    3    3    0    0 -0.27413532426E+02  0.29708353702E+02 -0.22655649788E+02  0.46339686091E+02  0.00000000000E+00 0. -1.
</event>
<event>
 7    1  0.7961130E-006  0.9938688E+02  0.7818608E-02  0.1463174E+00
          2   -1    0    0  502    0  0.00000000000E+00  0.00000000000E+00  0.19328720203E+04  0.19328720203E+04  0.00000000000E+00 0. -1.
          1   -1    0    0  501    0 -0.00000000000E+00 -0.00000000000E+00 -0.62675580295E+02  0.62675580295E+02  0.00000000000E+00 0. -1.
         25    2    1    2    0    0  0.30045300907E+02 -0.10276774388E+03  0.59303369431E+03  0.61544958715E+03  0.12500120980E+03 0.  0.
          2    1    1    2  501    0 -0.21566871264E+02  0.47081151392E+01 -0.47187329327E+02  0.52095492447E+02  0.00000000000E+00 0. -1.
          1    1    1    2  502    0 -0.84784296430E+01  0.98059628740E+02  0.13243500750E+04  0.13280025210E+04  0.00000000000E+00 0. -1.
         22    1    3    3    0    0  0.32117562133E+02 -0.12959846087E+03  0.43135793751E+03  0.45154952011E+03  0.00000000000E+00 0. -1.
         22    1    3    3    0    0 -0.20722612256E+01  0.26830716987E+02  0.16167575680E+03  0.16390006705E+03  0.00000000000E+00 0. -1.
</event>
<event>
 7    1  0.7961130E-006  0.1750828E+03  0.7818608E-02  0.1214987E+00
          2   -1    0    0  502    0  0.00000000000E+00  0.00000000000E+00  0.56374382886E+03  0.56374382886E+03  0.00000000000E+00 0. -1.
          1   -1    0    0  501    0 -0.00000000000E+00 -0.00000000000E+00 -0.50118612597E+03  0.50118612597E+03  0.00000000000E+00 0. -1.
         25    2    1    2    0    0  0.56157807685E+02 -0.20634026309E+03 -0.71695739866E+02  0.25786545392E+03  0.12499723866E+03 0.  0.
          2    1    1    2  501    0  0.69048327146E+02  0.85624731897E+02 -0.31055668044E+03  0.32946125411E+03  0.00000000000E+00 0. -1.
          1    1    1    2  502    0 -0.12520613483E+03  0.12071553119E+03  0.44481012319E+03  0.47760324681E+03  0.00000000000E+00 0. -1.
         22    1    3    3    0    0  0.49187544266E+02 -0.25633338876E+02  0.14795096954E+02  0.57405378378E+02  0.00000000000E+00 0. -1.
         22    1    3    3    0    0  0.69702634191E+01 -0.18070692422E+03 -0.86490836821E+02  0.20046007554E+03  0.00000000000E+00 0. -1.
</event>
<event>
 7    1  0.7961130E-006  0.6130398E+02  0.7818608E-02  0.1536554E+00
          2   -1    0    0  502    0  0.00000000000E+00  0.00000000000E+00  0.19662269805E+04  0.19662269805E+04  0.00000000000E+00 0. -1.
          1   -1    0    0  501    0 -0.00000000000E+00 -0.00000000000E+00 -0.38810586437E+03  0.38810586437E+03  0.00000000000E+00 0. -1.
         25    2    1    2    0    0 -0.36510276890E+02  0.19910215874E+02  0.70356601282E+02  0.14934682705E+03  0.12500002557E+03 0.  0.
          2    1    1    2  501    0 -0.12051174131E+02  0.17933487392E+02 -0.34776492990E+03  0.34843548504E+03  0.00000000000E+00 0. -1.
          1    1    1    2  502    0  0.48561451022E+02 -0.37843703266E+02  0.18555294447E+04  0.18565505328E+04  0.00000000000E+00 0. -1.
         22    1    3    3    0    0  0.80808283105E+01 -0.25858035743E+01 -0.33258037377E+02  0.34323216873E+02  0.00000000000E+00 0.  1.
         22    1    3    3    0    0 -0.44591105201E+02  0.22496019448E+02  0.10361463866E+03  0.11502361018E+03  0.00000000000E+00 0.  1.
</event>
<event>
 7    1  0.7961130E-006  0.5582638E+02  0.7818608E-02  0.1505492E+00
          2   -1    0    0  502    0  0.00000000000E+00  0.00000000000E+00  0.26961596319E+03  0.26961596319E+03  0.00000000000E+00 0. -1.
          1   -1    0    0  501    0 -0.00000000000E+00 -0.00000000000E+00 -0.18870961369E+03  0.18870961369E+03  0.00000000000E+00 0. -1.
         25    2    1    2    0    0 -0.15108964308E+02 -0.27320910012E+02  0.54236490768E+02  0.13978833888E+03  0.12499787930E+03 0.  0.
          2    1    1    2  501    0 -0.24019381258E+02 -0.16597090114E+02 -0.13936551941E+03  0.14239080756E+03  0.00000000000E+00 0. -1.
          1    1    1    2  502    0  0.39128345565E+02  0.43918000126E+02  0.16603537815E+03  0.17614643044E+03  0.00000000000E+00 0. -1.
         22    1    3    3    0    0 -0.26648583148E+02  0.35177950033E+02 -0.14230791576E+02  0.46369716208E+02  0.00000000000E+00 0. -1.
         22    1    3    3    0    0  0.11539618840E+02 -0.62498860045E+02  0.68467282344E+02  0.93418622670E+02  0.00000000000E+00 0. -1.
</event>
<event>
 7    1  0.7961130E-006  0.3668900E+02  0.7818608E-02  0.1550325E+00
          2   -1    0    0  502    0  0.00000000000E+00  0.00000000000E+00  0.31166408350E+03  0.31166408350E+03  0.00000000000E+00 0. -1.
          1   -1    0    0  501    0 -0.00000000000E+00 -0.00000000000E+00 -0.29568231949E+04  0.29568231949E+04  0.00000000000E+00 0. -1.
         25    2    1    2    0    0  0.16256344258E+02 -0.31465483937E+02 -0.10942704086E+04  0.11019567665E+04  0.12500657095E+03 0.  0.
          2    1    1    2  501    0 -0.36991058508E+02  0.57665771537E+01 -0.18576349086E+04  0.18580121220E+04  0.00000000000E+00 0. -1.
          1    1    1    2  502    0  0.20734714250E+02  0.25698906783E+02  0.30674620574E+03  0.30851838992E+03  0.00000000000E+00 0. -1.
         22    1    3    3    0    0  0.68195436160E+01  0.43565029019E+02 -0.21711324818E+03  0.22154588794E+03  0.00000000000E+00 0. -1.
         22    1    3    3    0    0  0.94368006420E+01 -0.75030512955E+02 -0.87715716039E+03  0.88041087857E+03  0.00000000000E+00 0. -1.
</event>
<event>
 7    1  0.7961130E-006  0.1037952E+03  0.7818608E-02  0.1314668E+00
          2   -1    0    0  502    0  0.00000000000E+00  0.00000000000E+00  0.56418190824E+02  0.56418190824E+02  0.00000000000E+00 0. -1.
          1   -1    0    0  501    0 -0.00000000000E+00 -0.00000000000E+00 -0.25360949904E+04  0.25360949904E+04  0.00000000000E+00 0. -1.
         25    2    1    2    0    0 -0.29388027774E+02 -0.14059113099E+03 -0.31012161637E+03  0.36390425602E+03  0.12498547243E+03 0.  0.
          2    1    1    2  501    0 -0.29293472201E+02  0.63674186954E+02 -0.21176674089E+04  0.21188269784E+04  0.00000000000E+00 0. -1.
          1    1    1    2  502    0  0.58681499975E+02  0.76916944040E+02 -0.51887774256E+02  0.10978194677E+03  0.00000000000E+00 0. -1.
         22    1    3    3    0    0  0.20871025607E+02 -0.35601849530E+02 -0.19811378814E+03  0.20236641138E+03  0.00000000000E+00 0.  1.
         22    1    3    3    0    0 -0.50259053381E+02 -0.10498928146E+03 -0.11200782823E+03  0.16153784465E+03  0.00000000000E+00 0.  1.
</event>
<event>
 7    1  0.7961130E-006  0.2788228E+03  0.7818608E-02  0.1193948E+00
          2   -1    0    0  502    0  0.00000000000E+00  0.00000000000E+00  0.16748489224E+04  0.16748489224E+04  0.00000000000E+00 0. -1.
          1   -1    0    0  501    0 -0.00000000000E+00 -0.00000000000E+00 -0.59411319351E+03  0.59411319351E+03  0.00000000000E+00 0. -1.
         25    2    1    2    0    0 -0.15053834061E+03  0.19712871298E+03  0.62003937039E+02  0.28458196064E+03  0.12498352948E+03 0.  0.
          2    1    1    2  501    0  0.52319849444E+02  0.69072914285E+02 -0.46538483799E+03  0.47338301783E+03  0.00000000000E+00 0. -1.
          1    1    1    2  502    0  0.98218491170E+02 -0.26620162726E+03  0.14841166298E+04  0.15109971374E+04  0.00000000000E+00 0. -1.
         22    1    3    3    0    0 -0.95550632478E+02  0.51258420980E+02 -0.17097700553E+02  0.10977103649E+03  0.00000000000E+00 0.  1.
         22    1    3    3    0    0 -0.54987708136E+02  0.14587029200E+03  0.79101637592E+02  0.17481092415E+03  0.00000000000E+00 0.  1.
</event>
<event>
 7    1  0.7961130E-006  0.1450147E+03  0.7818608E-02  0.1286102E+00
          2   -1    0    0  502    0  0.00000000000E+00  0.00000000000E+00  0.21685240756E+02  0.21685240756E+02  0.00000000000E+00 0. -1.
          1   -1    0    0  501    0 -0.00000000000E+00 -0.00000000000E+00 -0.23229854577E+04  0.23229854577E+04  0.00000000000E+00 0. -1.
         25    2    1    2    0    0  0.10364912223E+03 -0.39213837213E+01 -0.16005186268E+04  0.16087395467E+04  0.12499814681E+03 0.  0.
          2    1    1    2  501    0  0.48389298791E+02 -0.43803466832E+02 -0.19389004783E+03  0.20458156953E+03  0.00000000000E+00 0. -1.
          1    1    1    2  502    0 -0.15203842102E+03  0.47724850553E+02 -0.50689154233E+03  0.53134958221E+03  0.00000000000E+00 0. -1.
         22    1    3    3    0    0  0.60283140991E+02  0.59615043948E+02 -0.91442833978E+03  0.91835025951E+03  0.00000000000E+00 0.  1.
         22    1    3    3    0    0  0.43365981236E+02 -0.63536427669E+02 -0.68609028701E+03  0.69038928722E+03  0.00000000000E+00 0.  1.
</event>
<event>
 7    1  0.7961130E-006  0.9195936E+02  0.7818608E-02  0.1309533E+00
          2   -1    0    0  502    0  0.00000000000E+00  0.00000000000E+00  0.13787086139E+04  0.13787086139E+04  0.00000000000E+00 0. -1.
          1   -1    0    0  501    0 -0.00000000000E+00 -0.00000000000E+00 -0.16089845100E+03  0.16089845100E+03  0.00000000000E+00 0. -1.
         25    2    1    2    0    0 -0.13030452920E+03  0.15073202144E+01  0.33299231958E+03  0.37880452301E+03  0.12500975723E+03 0.  0.
          2    1    1    2  501    0  0.60479343234E+02  0.56655266135E+02 -0.12331955914E+03  0.14857753466E+03  0.00000000000E+00 0. -1.
          1    1    1    2  502    0  0.69825185970E+02 -0.58162586349E+02  0.10081374025E+04  0.10122250073E+04  0.00000000000E+00 0. -1.
         22    1    3    3    0    0 -0.13594927498E+03 -0.20311849348E+01  0.17956701349E+03  0.22523464079E+03  0.00000000000E+00 0.  1.
         22    1    3    3    0    0  0.56447457720E+01  0.35385051492E+01  0.15342530610E+03  0.15356988222E+03  0.00000000000E+00 0.  1.
</event>
<event>
 7    1  0.7961130E-006  0.8766922E+02  0.7818608E-02  0.1429310E+00
          2   -1    0    0  502    0  0.00000000000E+00  0.00000000000E+00  0.31214362287E+02  0.31214362287E+02  0.00000000000E+00 0. -1.
          1   -1    0    0  501    0 -0.00000000000E+00 -0.00000000000E+00 -0.31532060692E+04  0.31532060692E+04  0.00000000000E+00 0. -1.
         25    2    1    2    0    0  0.54494173722E+02  0.20014758592E+02 -0.15287226885E+04  0.15349227046E+04  0.12499778137E+03 0.  0.
          2    1    1    2  501    0  0.24875044395E+02  0.20384464812E+02 -0.15502661765E+04  0.15505997266E+04  0.00000000000E+00 0. -1.
          1    1    1    2  502    0 -0.79369218117E+02 -0.40399223405E+02 -0.43002841934E+02  0.98898000235E+02  0.00000000000E+00 0. -1.
         22    1    3    3    0    0  0.31053284751E+02  0.70144495196E+02 -0.10950184677E+04  0.10977021460E+04  0.00000000000E+00 0.  1.
         22    1    3    3    0    0  0.23440888971E+02 -0.50129736603E+02 -0.43370422079E+03  0.43722055864E+03  0.00000000000E+00 0.  1.
</event>
<event>
 7    1  0.7961130E-006  0.9229356E+02  0.7818608E-02  0.1339405E+00
          2   -1    0    0  502    0  0.00000000000E+00  0.00000000000E+00  0.14478357212E+03  0.14478357212E+03  0.00000000000E+00 0. -1.
          1   -1    0    0  501    0 -0.00000000000E+00 -0.00000000000E+00 -0.28745711815E+03  0.28745711815E+03  0.00000000000E+00 0. -1.
         25    2    1    2    0    0  0.52031413553E+02  0.11425630093E+03 -0.19893577688E+02  0.17827853013E+03  0.12500283826E+03 0.  0.
          2    1    1    2  501    0  0.14748362455E+02 -0.61604179907E+02 -0.15149494337E+03  0.16420507618E+03  0.00000000000E+00 0. -1.
          1    1    1    2  502    0 -0.66779776008E+02 -0.52652121020E+02  0.28714975019E+02  0.89757083966E+02  0.00000000000E+00 0. -1.
         22    1    3    3    0    0 -0.32837771120E+02  0.34245169203E+02  0.24597740429E+02  0.53442489277E+02  0.00000000000E+00 0.  1.
         22    1    3    3    0    0  0.84869184673E+02  0.80011131723E+02 -0.44491318117E+02  0.12483604085E+03  0.00000000000E+00 0.  1.
</event>
<event>
 7    1  0.7961130E-006  0.1107919E+03  0.7818608E-02  0.1260111E+00
          2   -1    0    0  502    0  0.00000000000E+00  0.00000000000E+00  0.28942692220E+04  0.28942692220E+04  0.00000000000E+00 0. -1.
          1   -1    0    0  501    0 -0.00000000000E+00 -0.00000000000E+00 -0.42496026196E+02  0.42496026196E+02  0.00000000000E+00 0. -1.
         25    2    1    2    0    0 -0.14727290573E+02 -0.51988428238E+01  0.39239964284E+03  0.41212525858E+03  0.12500331198E+03 0.  0.
          2    1    1    2  501    0 -0.84934029740E+02 -0.71141055903E+02  0.68046365551E+02  0.13001979506E+03  0.00000000000E+00 0. -1.
          1    1    1    2  502    0  0.99661320313E+02  0.76339898726E+02  0.23913271875E+04  0.23946201946E+04  0.00000000000E+00 0. -1.
         22    1    3    3    0    0 -0.31982306444E+02  0.31748384531E+02  0.35147692822E+03  0.35435414336E+03  0.00000000000E+00 0.  1.
         22    1    3    3    0    0  0.17255015872E+02 -0.36947227355E+02  0.40922714618E+02  0.57771115219E+02  0.00000000000E+00 0.  1.
</event>
<event>
 7    1  0.7961130E-006  0.1627363E+03  0.7818608E-02  0.1218709E+00
          2   -1    0    0  502    0  0.00000000000E+00  0.00000000000E+00  0.10784780950E+04  0.10784780950E+04  0.00000000000E+00 0. -1.
          1   -1    0    0  501    0 -0.00000000000E+00 -0.00000000000E+00 -0.20071878853E+04  0.20071878853E+04  0.00000000000E+00 0. -1.
         25    2    1    2    0    0  0.71817466629E+02  0.52247156932E+02 -0.56107840700E+02  0.16327795161E+03  0.12499634304E+03 0.  0.
          2    1    1    2  501    0 -0.27436849468E+02  0.11042494278E+03 -0.18888360666E+04  0.18922600601E+04  0.00000000000E+00 0. -1.
          1    1    1    2  502    0 -0.44380617161E+02 -0.16267209971E+03  0.10162341169E+04  0.10301279686E+04  0.00000000000E+00 0. -1.
         22    1    3    3    0    0  0.62959918072E+02  0.58141170717E+02 -0.92065568539E+02  0.12577923488E+03  0.00000000000E+00 0. -1.
         22    1    3    3    0    0  0.88575485572E+01 -0.58940137855E+01  0.35957727839E+02  0.37498716729E+02  0.00000000000E+00 0. -1.
</event>
<event>
 7    1  0.7961130E-006  0.1872597E+03  0.7818608E-02  0.1391682E+00
          2   -1    0    0  502    0  0.00000000000E+00  0.00000000000E+00  0.12324244388E+04  0.12324244388E+04  0.00000000000E+00 0. -1.
          1   -1    0    0  501    0 -0.00000000000E+00 -0.00000000000E+00 -0.60271856085E+03  0.60271856085E+03  0.00000000000E+00 0. -1.
         25    2    1    2    0    0 -0.18339028055E+03  0.20645519213E+02 -0.37939517041E+02  0.22611674227E+03  0.12502456446E+03 0.  0.
          2    1    1    2  501    0  0.18797375375E+03 -0.98104027876E+00 -0.45182806737E+03  0.48937071531E+03  0.00000000000E+00 0. -1.
          1    1    1    2  502    0 -0.45834732055E+01 -0.19664478934E+02  0.11194734624E+04  0.11196555421E+04  0.00000000000E+00 0. -1.
         22    1    3    3    0    0 -0.21394623274E+02  0.41345763779E+02  0.22847846188E+02  0.51857749304E+02  0.00000000000E+00 0.  1.
         22    1    3    3    0    0 -0.16199565727E+03 -0.20700244566E+02 -0.60787363229E+02  0.17425899297E+03  0.00000000000E+00 0.  1.
</event>
<event>
 7    1  0.7961130E-006  0.2738831E+02  0.7818608E-02  0.1659053E+00
          2   -1    0    0  502    0  0.00000000000E+00  0.00000000000E+00  0.11662484431E+04  0.11662484431E+04  0.00000000000E+00 0. -1.
          1   -1    0    0  501    0 -0.00000000000E+00 -0.00000000000E+00 -0.11560646583E+04  0.11560646583E+04  0.00000000000E+00 0. -1.
         25    2    1    2    0    0  0.47870113518E+01  0.75802760006E+01 -0.68246894896E+03  0.69387975874E+03  0.12499950889E+03 0.  0.
          2    1    1    2  501    0  0.46209425840E+01 -0.28644023349E+02 -0.46732570443E+03  0.46822553028E+03  0.00000000000E+00 0. -1.
          1    1    1    2  502    0 -0.94079539358E+01  0.21063747348E+02  0.11599784381E+04  0.11602078124E+04  0.00000000000E+00 0. -1.
         22    1    3    3    0    0 -0.51490566596E+02 -0.25279446414E+02 -0.24778200277E+03  0.25433491651E+03  0.00000000000E+00 0. -1.
         22    1    3    3    0    0  0.56277577948E+02  0.32859722414E+02 -0.43468694619E+03  0.43954484222E+03  0.00000000000E+00 0. -1.
</event>
<event>
 7    1  0.7961130E-006  0.1054309E+03  0.7818608E-02  0.1341513E+00
          2   -1    0    0  502    0  0.00000000000E+00  0.00000000000E+00  0.17050957713E+04  0.17050957713E+04  0.00000000000E+00 0. -1.
          1   -1    0    0  501    0 -0.00000000000E+00 -0.00000000000E+00 -0.38266860283E+03  0.38266860283E+03  0.00000000000E+00 0. -1.
         25    2    1    2    0    0  0.15397866871E+03  0.30785120842E+02  0.18966886354E+03  0.27614613517E+03  0.12500102436E+03 0.  0.
          2    1    1    2  501    0 -0.10305051671E+03 -0.11523113177E+02 -0.33099266107E+03  0.34685491608E+03  0.00000000000E+00 0. -1.
          1    1    1    2  502    0 -0.50928151997E+02 -0.19262007665E+02  0.14637509660E+04  0.14647633228E+04  0.00000000000E+00 0. -1.
         22    1    3    3    0    0  0.10728283591E+03 -0.40437837620E+02  0.12153867066E+03  0.16708223741E+03  0.00000000000E+00 0.  1.
         22    1    3    3    0    0  0.46695832796E+02  0.71222958462E+02  0.68130192882E+02  0.10906389776E+03  0.00000000000E+00 0.  1.
</event>
<event>
 7    1  0.7961130E-006  0.6332821E+02  0.7818608E-02  0.1394581E+00
          2   -1    0    0  502    0  0.00000000000E+00  0.00000000000E+00  0.13512453802E+04  0.13512453802E+04  0.00000000000E+00 0. -1.
          1   -1    0    0  501    0 -0.00000000000E+00 -0.00000000000E+00 -0.21438327942E+03  0.21438327942E+03  0.00000000000E+00 0. -1.
         25    2    1    2    0    0  0.83106609281E+02  0.74608544444E+02  0.49056966123E+03  0.51841728111E+03  0.12499896570E+03 0.  0.
          2    1    1    2  501    0 -0.27793076378E+02 -0.51291006625E+02 -0.19512318565E+03  0.20365726119E+03  0.00000000000E+00 0. -1.
          1    1    1    2  502    0 -0.55313532903E+02 -0.23317537820E+02  0.84141562517E+03  0.84355411727E+03  0.00000000000E+00 0. -1.
         22    1    3    3    0    0  0.92799682204E+02  0.87062032273E+02  0.48541439867E+03  0.50181542116E+03  0.00000000000E+00 0. -1.
         22    1    3    3    0    0 -0.96930729236E+01 -0.12453487828E+02  0.51552625641E+01  0.16601859953E+02  0.00000000000E+00 0. -1.
</event>
<event>
 7    1  0.7961130E-006  0.4486241E+02  0.7818608E-02  0.1586959E+00
          2   -1    0    0  502    0  0.00000000000E+00  0.00000000000E+00  0.28272088850E+03  0.28272088850E+03  0.00000000000E+00 0. -1.
          1   -1    0    0  501    0 -0.00000000000E+00 -0.00000000000E+00 -0.97357946635E+03  0.97357946635E+03  0.00000000000E+00 0. -1.
         25    2    1    2    0    0  0.11601356669E+02 -0.60899950391E+02  0.32990525352E+02  0.14337514120E+03  0.12499864366E+03 0.  0.
          2    1    1    2  501    0  0.24788737505E+01  0.44698903547E+02 -0.91724750253E+03  0.91833932601E+03  0.00000000000E+00 0. -1.
          1    1    1    2  502    0 -0.14080230420E+02  0.16201046844E+02  0.19339839933E+03  0.19458588765E+03  0.00000000000E+00 0. -1.
         22    1    3    3    0    0  0.21907417274E+02 -0.73525224105E+02  0.69420721349E+02  0.10346559846E+03  0.00000000000E+00 0.  1.
         22    1    3    3    0    0 -0.10306060605E+02  0.12625273714E+02 -0.36430195997E+02  0.39909542743E+02  0.00000000000E+00 0.  1.
</event>
<event>
 7    1  0.7961130E-006  0.6824486E+02  0.7818608E-02  0.1472227E+00
          2   -1    0    0  502    0  0.00000000000E+00  0.00000000000E+00  0.24447779809E+04  0.24447779809E+04  0.00000000000E+00 0. -1.
          1   -1    0    0  501    0 -0.00000000000E+00 -0.00000000000E+00 -0.25725098480E+03  0.25725098480E+03  0.00000000000E+00 0. -1.
         25    2    1    2    0    0  0.81304573866E+02  0.38865592184E+02  0.24143242358E+02  0.15598383330E+03  0.12500836817E+03 0.  0.
          2    1    1    2  501    0 -0.14333192742E+02 -0.26494696182E+02 -0.18964928567E+03  0.19202671923E+03  0.00000000000E+00 0. -1.
          1    1    1    2  502    0 -0.66971381123E+02 -0.12370896002E+02  0.23530330395E+04  0.23540184132E+04  0.00000000000E+00 0. -1.
         22    1    3    3    0    0  0.10704905263E+03  0.51156432016E+02  0.51880159255E-01  0.11864435468E+03  0.00000000000E+00 0. -1.
         22    1    3    3    0    0 -0.25744478767E+02 -0.12290839832E+02  0.24091362198E+02  0.37339478617E+02  0.00000000000E+00 0. -1.
</event>
<event>
 7    1  0.7961130E-006  0.6153559E+02  0.7818608E-02  0.1502388E+00
          2   -1    0    0  502    0  0.00000000000E+00  0.00000000000E+00  0.48991938040E+03  0.48991938040E+03  0.00000000000E+00 0. -1.
          1   -1    0    0  501    0 -0.00000000000E+00 -0.00000000000E+00 -0.15863399527E+03  0.15863399527E+03  0.00000000000E+00 0. -1.
         25    2    1    2    0    0  0.55758441021E+02 -0.34422256296E+02  0.29232287339E+03  0.32461840057E+03  0.12502219086E+03 0.  0.
          2    1    1    2  501    0 -0.34419292233E+02  0.51053735608E+02 -0.13473798784E+03  0.14814012612E+03  0.00000000000E+00 0. -1.
          1    1    1    2  502    0 -0.21339148788E+02 -0.16631479312E+02  0.17370049958E+03  0.17579484898E+03  0.00000000000E+00 0. -1.
         22    1    3    3    0    0  0.11377489944E+01 -0.12771077693E+02  0.25432227087E+03  0.25464526770E+03  0.00000000000E+00 0. -1.
         22    1    3    3    0    0  0.54620692026E+02 -0.21651178603E+02  0.38000602519E+02  0.69973132874E+02  0.00000000000E+00 0. -1.
</event>
<event>
 7    1  0.7961130E-006  0.8821886E+02  0.7818608E-02  0.1349397E+00
          2   -1    0    0  502    0  0.00000000000E+00  0.00000000000E+00  0.11912914721E+04  0.11912914721E+04  0.00000000000E+00 0. -1.
          1   -1    0    0  501    0 -0.00000000000E+00 -0.00000000000E+00 -0.78218987386E+03  0.78218987386E+03  0.00000000000E+00 0. -1.
         25    2    1    2    0    0  0.50700008149E+02 -0.39884321685E+02  0.74183520773E+02  0.15903082239E+03  0.12500543097E+03 0.  0.
          2    1    1    2  501    0  0.39054155707E+02  0.46612345794E+02 -0.73662660526E+03  0.73913239236E+03  0.00000000000E+00 0. -1.
          1    1    1    2  502    0 -0.89754163856E+02 -0.67280241087E+01  0.10715446827E+04  0.10753181312E+04  0.00000000000E+00 0. -1.
         22    1    3    3    0    0  0.37550244447E+02  0.14368355930E+02 -0.23465037194E+02  0.46551890195E+02  0.00000000000E+00 0. -1.
         22    1    3    3    0    0  0.13149763701E+02 -0.54252677615E+02  0.97648557967E+02  0.11247893219E+03  0.00000000000E+00 0. -1.
</event>
<event>
 7    1  0.7961130E-006  0.4057760E+02  0.7818608E-02  0.1548645E+00
          2   -1    0    0  502    0  0.00000000000E+00  0.00000000000E+00  0.40546233716E+02  0.40546233716E+02  0.00000000000E+00 0. -1.
          1   -1    0    0  501    0 -0.00000000000E+00 -0.00000000000E+00 -0.17624763199E+04  0.17624763199E+04  0.00000000000E+00 0. -1.
         25    2    1    2    0    0 -0.43759521402E+02 -0.39558130532E+01 -0.44557525324E+03  0.46485998276E+03  0.12500781216E+03 0.  0.
          2    1    1    2  501    0  0.28006694738E+02  0.29698984210E+02 -0.12994924582E+04  0.13001334753E+04  0.00000000000E+00 0. -1.
          1    1    1    2  502    0  0.15752826665E+02 -0.25743171157E+02  0.23137625248E+02  0.38029095588E+02  0.00000000000E+00 0. -1.
         22    1    3    3    0    0 -0.59599500380E+02 -0.38687709474E+02 -0.39582448987E+03  0.40215154618E+03  0.00000000000E+00 0.  1.
         22    1    3    3    0    0  0.15839978978E+02  0.34731896421E+02 -0.49750763368E+02  0.62708436584E+02  0.00000000000E+00 0.  1.
</event>
<event>
 7    1  0.7961130E-006  0.5853870E+02  0.7818608E-02  0.1436762E+00
          2   -1    0    0  502    0  0.00000000000E+00  0.00000000000E+00  0.13357499147E+04  0.13357499147E+04  0.00000000000E+00 0. -1.
          1   -1    0    0  501    0 -0.00000000000E+00 -0.00000000000E+00 -0.17009513398E+02  0.17009513398E+02  0.00000000000E+00 0. -1.
         25    2    1    2    0    0  0.62083361363E+02 -0.33668246237E+02  0.42326024706E+03  0.44694783906E+03  0.12500095816E+03 0.  0.
          2    1    1    2  501    0 -0.40400547285E+02 -0.20995190298E+02  0.12402209153E+03  0.13211540949E+03  0.00000000000E+00 0. -1.
          1    1    1    2  502    0 -0.21682814078E+02  0.54663436535E+02  0.77145806271E+03  0.77369617954E+03  0.00000000000E+00 0. -1.
         22    1    3    3    0    0  0.22225982010E+02 -0.48742282074E+02  0.57021741013E+02  0.78238630396E+02  0.00000000000E+00 0. -1.
         22    1    3    3    0    0  0.39857379352E+02  0.15074035837E+02  0.36623850604E+03  0.36870920867E+03  0.00000000000E+00 0. -1.
</event>
<event>
 7    1  0.7961130E-006  0.1952655E+03  0.7818608E-02  0.1186708E+00
          2   -1    0    0  502    0  0.00000000000E+00  0.00000000000E+00  0.98130186966E+03  0.98130186966E+03  0.00000000000E+00 0. -1.
          1   -1    0    0  501    0 -0.00000000000E+00 -0.00000000000E+00 -0.36879501138E+03  0.36879501138E+03  0.00000000000E+00 0. -1.
         25    2    1    2    0    0 -0.19829469348E+03 -0.10430960550E+03  0.51395916037E+03  0.57443914147E+03  0.12500011785E+03 0.  0.
          2    1    1    2  501    0  0.83600658086E+01  0.13376592713E+03 -0.30253802289E+03  0.33089646304E+03  0.00000000000E+00 0. -1.
          1    1    1    2  502    0  0.18993462767E+03 -0.29456321626E+02  0.40108572079E+03  0.44476127652E+03  0.00000000000E+00 0. -1.
         22    1    3    3    0    0 -0.79467521363E+02  0.20881962227E+02  0.19876621903E+03  0.21507941120E+03  0.00000000000E+00 0. -1.
         22    1    3    3    0    0 -0.11882717212E+03 -0.12519156773E+03  0.31519294135E+03  0.35935973027E+03  0.00000000000E+00 0. -1.
</event>
<event>
 7    1  0.1512094E-005  0.5913284E+02  0.7818608E-02  0.1441828E+00
          2   -1    0    0  502    0  0.00000000000E+00  0.00000000000E+00  0.70935405491E+03  0.70935405491E+03  0.00000000000E+00 0. -1.
          1   -1    0    0  501    0 -0.00000000000E+00 -0.00000000000E+00 -0.13917742544E+04  0.13917742544E+04  0.00000000000E+00 0. -1.
         25    2    1    2    0    0 -0.39926518271E+02  0.21361254361E+02 -0.72874825184E+03  0.74077648041E+03  0.12500139725E+03 0.  0.
          2    1    1    2  501    0  0.24547971482E+02  0.35786224932E+02 -0.65504776146E+03  0.65648368342E+03  0.00000000000E+00 0. -1.
          1    1    1    2  502    0  0.15378546789E+02 -0.57147479292E+02  0.70137581379E+03  0.70386814550E+03  0.00000000000E+00 0. -1.
         22    1    3    3    0    0 -0.84029295620E+02  0.25940117023E+02 -0.44823224527E+03  0.45677779926E+03  0.00000000000E+00 0.  1.
         22    1    3    3    0    0  0.44102777349E+02 -0.45788626629E+01 -0.28051600657E+03  0.28399868115E+03  0.00000000000E+00 0.  1.
</event>
<event>
 7    1  0.7961130E-006  0.4338267E+02  0.7818608E-02  0.1573350E+00
          2   -1    0    0  502    0  0.00000000000E+00  0.00000000000E+00  0.31132552881E+03  0.31132552881E+03  0.00000000000E+00 0. -1.
          1   -1    0    0  501    0 -0.00000000000E+00 -0.00000000000E+00 -0.13951345724E+04  0.13951345724E+04  0.00000000000E+00 0. -1.
         25    2    1    2    0    0 -0.60495586069E-02  0.32084290334E+02 -0.35065595399E+03  0.37365014924E+03  0.12500173693E+03 0.  0.
          2    1    1    2  501    0 -0.23589247896E+02 -0.37192896289E+02 -0.10320251048E+04  0.10329644627E+04  0.00000000000E+00 0. -1.
          1    1    1    2  502    0  0.23595297455E+02  0.51086059552E+01  0.29887201527E+03  0.29984548926E+03  0.00000000000E+00 0. -1.
         22    1    3    3    0    0  0.20152104831E+01  0.76259967167E+02 -0.15125004271E+03  0.16939958408E+03  0.00000000000E+00 0. -1.
         22    1    3    3    0    0 -0.20212600417E+01 -0.44175676833E+02 -0.19940591127E+03  0.20425056516E+03  0.00000000000E+00 0. -1.
</event>
<event>
 7    1  0.7961130E-006  0.5816675E+02  0.7818608E-02  0.1511567E+00
          2   -1    0    0  502    0  0.00000000000E+00  0.00000000000E+00  0.48883148071E+02  0.48883148071E+02  0.00000000000E+00 0. -1.
          1   -1    0    0  501    0 -0.00000000000E+00 -0.00000000000E+00 -0.64455306664E+03  0.64455306664E+03  0.00000000000E+00 0. -1.
         25    2    1    2    0    0  0.17639479767E+01  0.25801777086E+01 -0.52171873720E+03  0.53649232130E+03  0.12499520487E+03 0.  0.
          2    1    1    2  501    0 -0.44291671122E+02 -0.42263475799E+02 -0.77388219041E+02  0.98675680711E+02  0.00000000000E+00 0. -1.
          1    1    1    2  502    0  0.42527723145E+02  0.39683298090E+02  0.34370376711E+01  0.58268212699E+02  0.00000000000E+00 0. -1.
         22    1    3    3    0    0  0.44426782697E+02  0.30309094518E+02 -0.11920684218E+03  0.13077710600E+03  0.00000000000E+00 0.  1.
         22    1    3    3    0    0 -0.42662834720E+02 -0.27728916809E+02 -0.40251189502E+03  0.40571521530E+03  0.00000000000E+00 0.  1.
</event>
<event>
 7    1  0.7961130E-006  0.1029248E+03  0.7818608E-02  0.1301748E+00
          2   -1    0    0  502    0  0.00000000000E+00  0.00000000000E+00  0.12979259336E+04  0.12979259336E+04  0.00000000000E+00 0. -1.
          1   -1    0    0  501    0 -0.00000000000E+00 -0.00000000000E+00 -0.72819165100E+03  0.72819165100E+03  0.00000000000E+00 0. -1.
         25    2    1    2    0    0 -0.15824956616E+03 -0.65674698044E+02  0.54080601813E+02  0.21887338264E+03  0.12499901994E+03 0.  0.
          2    1    1    2  501    0  0.10052574859E+03  0.11009694572E+02 -0.64046284419E+03  0.64839748171E+03  0.00000000000E+00 0. -1.
          1    1    1    2  502    0  0.57723817569E+02  0.54665003472E+02  0.11561165249E+04  0.11588467202E+04  0.00000000000E+00 0. -1.
         22    1    3    3    0    0 -0.11560664553E+03 -0.33890616301E+02 -0.25514882245E+02  0.12314414148E+03  0.00000000000E+00 0. -1.
         22    1    3    3    0    0 -0.42642920623E+02 -0.31784081743E+02  0.79595484058E+02  0.95729241164E+02  0.00000000000E+00 0. -1.
</event>
<event>
 7    1  0.7961130E-006  0.7090124E+02  0.7818608E-02  0.1369058E+00
          2   -1    0    0  502    0  0.00000000000E+00  0.00000000000E+00  0.28315082548E+03  0.28315082548E+03  0.00000000000E+00 0. -1.
          1   -1    0    0  501    0 -0.00000000000E+00 -0.00000000000E+00 -0.11066585737E+04  0.11066585737E+04  0.00000000000E+00 0. -1.
         25    2    1    2    0    0 -0.35129133054E+02  0.48054188996E+02 -0.18535392168E+03  0.23135367614E+03  0.12500074443E+03 0.  0.
          2    1    1    2  501    0 -0.25579516666E+02 -0.68715750027E+02 -0.89282698953E+03  0.89583268483E+03  0.00000000000E+00 0. -1.
          1    1    1    2  502    0  0.60708649720E+02  0.20661561031E+02  0.25467316299E+03  0.26262303821E+03  0.00000000000E+00 0. -1.
         22    1    3    3    0    0  0.26366711334E+02  0.26072767151E+00 -0.13736321745E+03  0.13987110121E+03  0.00000000000E+00 0. -1.
         22    1    3    3    0    0 -0.61495844388E+02  0.47793461325E+02 -0.47990704235E+02  0.91482574927E+02  0.00000000000E+00 0. -1.
</event>
<event>
 7    1  0.7961130E-006  0.2003207E+03  0.7818608E-02  0.1198672E+00
          2   -1    0    0  502    0  0.00000000000E+00  0.00000000000E+00  0.10432427795E+04  0.10432427795E+04  0.00000000000E+00 0. -1.
          1   -1    0    0  501    0 -0.00000000000E+00 -0.00000000000E+00 -0.37739834909E+03  0.37739834909E+03  0.00000000000E+00 0. -1.
         25    2    1    2    0    0 -0.15722997595E+03  0.28206668731E+02  0.29703427024E+03  0.35968478024E+03  0.12500760753E+03 0.  0.
          2    1    1    2  501    0 -0.65836073630E+02 -0.93728268464E+02 -0.31686868765E+03  0.33693492267E+03  0.00000000000E+00 0. -1.
          1    1    1    2  502    0  0.22306604958E+03  0.65521599734E+02  0.68567884781E+03  0.72402142568E+03  0.00000000000E+00 0. -1.
         22    1    3    3    0    0 -0.10491131946E+03 -0.43666953188E+02  0.15683412387E+03  0.19367532151E+03  0.00000000000E+00 0. -1.
         22    1    3    3    0    0 -0.52318656481E+02  0.71873621918E+02  0.14020014637E+03  0.16600945873E+03  0.00000000000E+00 0. -1.
</event>
<event>
 7    1  0.7961130E-006  0.5434313E+02  0.7818608E-02  0.1548454E+00
          2   -1    0    0  502    0  0.00000000000E+00  0.00000000000E+00  0.17760306948E+03  0.17760306948E+03  0.00000000000E+00 0. -1.
          1   -1    0    0  501    0 -0.00000000000E+00 -0.00000000000E+00 -0.17871012252E+04  0.17871012252E+04  0.00000000000E+00 0. -1.
         25    2    1    2    0    0 -0.34793799863E+02  0.34268174887E+02 -0.19981952376E+03  0.24070154996E+03  0.12499791102E+03 0.  0.
          2    1    1    2  501    0  0.51227379113E+02 -0.18807406953E+02 -0.15655530013E+04  0.15665038023E+04  0.00000000000E+00 0. -1.
          1    1    1    2  502    0 -0.16433579250E+02 -0.15460767935E+02  0.15587436927E+03  0.15749894243E+03  0.00000000000E+00 0. -1.
         22    1    3    3    0    0 -0.76695374240E+02  0.35654707632E+02 -0.16793218711E+03  0.18802834380E+03  0.00000000000E+00 0. -1.
         22    1    3    3    0    0  0.41901574377E+02 -0.13865327452E+01 -0.31887336652E+02  0.52673206159E+02  0.00000000000E+00 0. -1.
</event>
<event>
 7    1  0.7961130E-006  0.6452341E+02  0.7818608E-02  0.1385390E+00
          2   -1    0    0  502    0  0.00000000000E+00  0.00000000000E+00  0.89468597167E+03  0.89468597167E+03  0.00000000000E+00 0. -1.
          1   -1    0    0  501    0 -0.00000000000E+00 -0.00000000000E+00 -0.24019183844E+03  0.24019183844E+03  0.00000000000E+00 0. -1.
         25    2    1    2    0    0  0.34360894572E+02 -0.10167616820E+03  0.87083136929E+02  0.18635237884E+03  0.12500008842E+03 0.  0.
          2    1    1    2  501    0  0.12884819670E+02  0.62078051474E+02 -0.18398618835E+03  0.19460375268E+03  0.00000000000E+00 0. -1.
          1    1    1    2  502    0 -0.47245714242E+02  0.39598116729E+02  0.75139718465E+03  0.75392167860E+03  0.00000000000E+00 0. -1.
         22    1    3    3    0    0 -0.31492351662E+02  0.92438027372E+01  0.43565306097E+01  0.33108842644E+02  0.00000000000E+00 0. -1.
         22    1    3    3    0    0  0.65853246234E+02 -0.11091997094E+03  0.82726606319E+02  0.15324353620E+03  0.00000000000E+00 0. -1.
</event>
<event>
 7    1  0.7961130E-006  0.6067672E+02  0.7818608E-02  0.1456201E+00
          2   -1    0    0  502    0  0.00000000000E+00  0.00000000000E+00  0.34524908106E+04  0.34524908106E+04  0.00000000000E+00 0. -1.
          1   -1    0    0  501    0 -0.00000000000E+00 -0.00000000000E+00 -0.24301352741E+02  0.24301352741E+02  0.00000000000E+00 0. -1.
         25    2    1    2    0    0 -0.11000117612E+02 -0.70669250050E+02  0.61371609446E+03  0.63038551369E+03  0.12499322297E+03 0.  0.
          2    1    1    2  501    0 -0.28780371074E+02  0.24870228461E+02  0.74898733273E+01  0.38767721435E+02  0.00000000000E+00 0. -1.
          1    1    1    2  502    0  0.39780488685E+02  0.45799021590E+02  0.28069834900E+04  0.28076389282E+04  0.00000000000E+00 0. -1.
         22    1    3    3    0    0 -0.30873167925E+02 -0.75817502174E+02  0.19924919058E+03  0.21541050596E+03  0.00000000000E+00 0. -1.
         22    1    3    3    0    0  0.19873050313E+02  0.51482521239E+01  0.41446690388E+03  0.41497500773E+03  0.00000000000E+00 0. -1.
</event>
<event>
 7    1  0.7961130E-006  0.1122004E+03  0.7818608E-02  0.1286598E+00
          2   -1    0    0  502    0  0.00000000000E+00  0.00000000000E+00  0.16363932896E+04  0.16363932896E+04  0.00000000000E+00 0. -1.
          1   -1    0    0  501    0 -0.00000000000E+00 -0.00000000000E+00 -0.40036129037E+03  0.40036129037E+03  0.00000000000E+00 0. -1.
         25    2    1    2    0    0  0.55198090082E+02  0.13459959398E+01  0.98799625192E+02  0.16862353473E+03  0.12499555862E+03 0.  0.
          2    1    1    2  501    0  0.30190728792E+02  0.78351136167E+02 -0.35831889365E+03  0.36802555644E+03  0.00000000000E+00 0. -1.
          1    1    1    2  502    0 -0.85388818874E+02 -0.79697132107E+02  0.14955512677E+04  0.15001054888E+04  0.00000000000E+00 0. -1.
         22    1    3    3    0    0  0.30446927374E+02  0.33895756960E+02 -0.14785945883E+02  0.47901585799E+02  0.00000000000E+00 0.  1.
         22    1    3    3    0    0  0.24751162708E+02 -0.32549761021E+02  0.11358557107E+03  0.12072194893E+03  0.00000000000E+00 0.  1.
</event>
<event>
 7    1  0.7961130E-006  0.2663733E+03  0.7818608E-02  0.1208910E+00
          2   -1    0    0  502    0  0.00000000000E+00  0.00000000000E+00  0.29645106139E+04  0.29645106139E+04  0.00000000000E+00 0. -1.
          1   -1    0    0  501    0 -0.00000000000E+00 -0.00000000000E+00 -0.91982575917E+03  0.91982575917E+03  0.00000000000E+00 0. -1.
         25    2    1    2    0    0  0.15735498109E+03 -0.19903386483E+03  0.66557119415E+03  0.72317603635E+03  0.12499398239E+03 0.  0.
          2    1    1    2  501    0 -0.98076689186E+02  0.24837910220E+03 -0.87033929880E+03  0.91038547353E+03  0.00000000000E+00 0. -1.
          1    1    1    2  502    0 -0.59278291905E+02 -0.49345237365E+02  0.22494529593E+04  0.22507748632E+04  0.00000000000E+00 0. -1.
         22    1    3    3    0    0  0.85358234887E+02 -0.88768632422E+02  0.16694050094E+03  0.20744885928E+03  0.00000000000E+00 0. -1.
         22    1    3    3    0    0  0.71996746204E+02 -0.11026523241E+03  0.49863069322E+03  0.51572717706E+03  0.00000000000E+00 0. -1.
</event>
<event>
 7    1  0.7961130E-006  0.9969987E+02  0.7818608E-02  0.1358333E+00
          2   -1    0    0  502    0  0.00000000000E+00  0.00000000000E+00  0.48250079639E+03  0.48250079639E+03  0.00000000000E+00 0. -1.
          1   -1    0    0  501    0 -0.00000000000E+00 -0.00000000000E+00 -0.39935970727E+03  0.39935970727E+03  0.00000000000E+00 0. -1.
         25    2    1    2    0    0 -0.23502047846E+02 -0.12017030588E+03 -0.96137941349E+01  0.17524379497E+03  0.12499885588E+03 0.  0.
          2    1    1    2  501    0  0.43983933114E+02  0.23526734797E+02 -0.29872675627E+03  0.30286262320E+03  0.00000000000E+00 0. -1.
          1    1    1    2  502    0 -0.20481885268E+02  0.96643571083E+02  0.39148163953E+03  0.40375408548E+03  0.00000000000E+00 0. -1.
         22    1    3    3    0    0  0.31248195749E+02 -0.10251298151E+03  0.22288415669E+02  0.10946293706E+03  0.00000000000E+00 0.  1.
         22    1    3    3    0    0 -0.54750243595E+02 -0.17657324366E+02 -0.31902209804E+02  0.65780857914E+02  0.00000000000E+00 0.  1.
</event>
<event>
 7    1  0.7961130E-006  0.1444632E+03  0.7818608E-02  0.1400515E+00
          2   -1    0    0  502    0  0.00000000000E+00  0.00000000000E+00  0.15804051078E+03  0.15804051078E+03  0.00000000000E+00 0. -1.
          1   -1    0    0  501    0 -0.00000000000E+00 -0.00000000000E+00 -0.74257531038E+03  0.74257531038E+03  0.00000000000E+00 0. -1.
         25    2    1    2    0    0 -0.12277422777E+03 -0.10543817386E+03 -0.21671787988E+03  0.29796329513E+03  0.12499906510E+03 0.  0.
          2    1    1    2  501    0  0.11290704440E+03  0.83127415570E+02 -0.47369039711E+03  0.49400481800E+03  0.00000000000E+00 0. -1.
          1    1    1    2  502    0  0.98671833758E+01  0.22310758288E+02  0.10587347739E+03  0.10864770802E+03  0.00000000000E+00 0. -1.
         22    1    3    3    0    0 -0.22726248266E+02  0.28587435037E+02 -0.29733569591E+02  0.47093619131E+02  0.00000000000E+00 0. -1.
         22    1    3    3    0    0 -0.10004797951E+03 -0.13402560889E+03 -0.18698431029E+03  0.25086967600E+03  0.00000000000E+00 0. -1.
</event>
<event>
 7    1  0.7961130E-006  0.8021996E+02  0.7818608E-02  0.1359858E+00
          2   -1    0    0  502    0  0.00000000000E+00  0.00000000000E+00  0.13940398664E+04  0.13940398664E+04  0.00000000000E+00 0. -1.
          1   -1    0    0  501    0 -0.00000000000E+00 -0.00000000000E+00 -0.17958152908E+04  0.17958152908E+04  0.00000000000E+00 0. -1.
         25    2    1    2    0    0  0.84589935802E+02 -0.85902396854E+02 -0.89739308466E+02  0.19548052882E+03  0.12499925856E+03 0.  0.
          2    1    1    2  501    0 -0.75573522164E+02  0.25367325446E+02 -0.16515452422E+04  0.16534680358E+04  0.00000000000E+00 0. -1.
          1    1    1    2  502    0 -0.90164136373E+01  0.60535071408E+02  0.13395091262E+04  0.13409065925E+04  0.00000000000E+00 0. -1.
         22    1    3    3    0    0 -0.10698903780E+02 -0.69451781785E+02 -0.11740007950E+02  0.71244959976E+02  0.00000000000E+00 0.  1.
         22    1    3    3    0    0  0.95288839582E+02 -0.16450615069E+02 -0.77999300516E+02  0.12423556884E+03  0.00000000000E+00 0.  1.
</event>
<event>
 7    1  0.7961130E-006  0.1254456E+03  0.7818608E-02  0.1242464E+00
          2   -1    0    0  502    0  0.00000000000E+00  0.00000000000E+00  0.88741678858E+03  0.88741678858E+03  0.00000000000E+00 0. -1.
          1   -1    0    0  501    0 -0.00000000000E+00 -0.00000000000E+00 -0.22337217731E+03  0.22337217731E+03  0.00000000000E+00 0. -1.
         25    2    1    2    0    0 -0.58265364535E+02  0.25486766752E+02  0.66194464059E+02  0.15508514348E+03  0.12500106668E+03 0.  0.
          2    1    1    2  501    0  0.34100203485E+02  0.11037998795E+03 -0.15331435277E+03  0.19196837340E+03  0.00000000000E+00 0. -1.
          1    1    1    2  502    0  0.24165161050E+02 -0.13586675470E+03  0.75116449998E+03  0.76373544901E+03  0.00000000000E+00 0. -1.
         22    1    3    3    0    0 -0.57313716776E+02 -0.16316849793E+02 -0.17004286876E+02  0.61969730433E+02  0.00000000000E+00 0.  1.
         22    1    3    3    0    0 -0.95164775930E+00  0.41803616545E+02  0.83198750935E+02  0.93115413046E+02  0.00000000000E+00 0.  1.
</event>
<event>
 7    1  0.7961130E-006  0.1138677E+03  0.7818608E-02  0.1409689E+00
          2   -1    0    0  502    0  0.00000000000E+00  0.00000000000E+00  0.92587477870E+03  0.92587477870E+03  0.00000000000E+00 0. -1.
          1   -1    0    0  501    0 -0.00000000000E+00 -0.00000000000E+00 -0.81920164028E+03  0.81920164028E+03  0.00000000000E+00 0. -1.
         25    2    1    2    0    0 -0.95775985681E+02  0.91101294447E+01  0.11627521734E+03  0.19596063206E+03  0.12499843702E+03 0.  0.
          2    1    1    2  501    0  0.10901567226E+03 -0.34683567977E+02 -0.77488854193E+03  0.78328769881E+03  0.00000000000E+00 0. -1.
          1    1    1    2  502    0 -0.13239686578E+02  0.25573438532E+02  0.76528646301E+03  0.76582808810E+03  0.00000000000E+00 0. -1.
         22    1    3    3    0    0 -0.12271970965E+03  0.22554122971E+02  0.10722750297E+03  0.16451915692E+03  0.00000000000E+00 0.  1.
         22    1    3    3    0    0  0.26943723972E+02 -0.13443993527E+02  0.90477143700E+01  0.31441475136E+02  0.00000000000E+00 0.  1.
</event>
<event>
 7    1  0.7961130E-006  0.5220880E+02  0.7818608E-02  0.1499799E+00
          2   -1    0    0  502    0  0.00000000000E+00  0.00000000000E+00  0.75383077118E+02  0.75383077118E+02  0.00000000000E+00 0. -1.
          1   -1    0    0  501    0 -0.00000000000E+00 -0.00000000000E+00 -0.97399682630E+03  0.97399682630E+03  0.00000000000E+00 0. -1.
         25    2    1    2    0    0 -0.66827362936E+02  0.49093725827E+02 -0.43981317147E+03  0.46468931798E+03  0.12499778436E+03 0.  0.
          2    1    1    2  501    0  0.29438773482E+02 -0.13674043578E+02 -0.51060843985E+03  0.51163913034E+03  0.00000000000E+00 0. -1.
          1    1    1    2  502    0  0.37388589454E+02 -0.35419682249E+02  0.51807862138E+02  0.73051455094E+02  0.00000000000E+00 0. -1.
         22    1    3    3    0    0 -0.31927348896E+02 -0.32478151295E+02 -0.26244925628E+03  0.26637154135E+03  0.00000000000E+00 0. -1.
         22    1    3    3    0    0 -0.34900014040E+02  0.81571877121E+02 -0.17736391520E+03  0.19831777664E+03  0.00000000000E+00 0. -1.
</event>
<event>
 7    1  0.7961130E-006  0.2967938E+03  0.7818608E-02  0.1170472E+00
          2   -1    0    0  502    0  0.00000000000E+00  0.00000000000E+00  0.56478555411E+03  0.56478555411E+03  0.00000000000E+00 0. -1.
          1   -1    0    0  501    0 -0.00000000000E+00 -0.00000000000E+00 -0.12773405401E+04  0.12773405401E+04  0.00000000000E+00 0. -1.
         25    2    1    2    0    0 -0.24094276142E+03  0.21040400486E+03  0.36913467491E+03  0.50419469669E+03  0.12501449681E+03 0.  0.
          2    1    1    2  501    0  0.10533599697E+03  0.10724126598E+02 -0.10731844781E+04  0.10783949199E+04  0.00000000000E+00 0. -1.
          1    1    1    2  502    0  0.13560676445E+03 -0.22112813145E+03 -0.85051827693E+01  0.25953647763E+03  0.00000000000E+00 0. -1.
         22    1    3    3    0    0 -0.17640859317E+03  0.73792353804E+02  0.22638664573E+03  0.29633801070E+03  0.00000000000E+00 0.  1.
         22    1    3    3    0    0 -0.64534168251E+02  0.13661165105E+03  0.14274802918E+03  0.20785668599E+03  0.00000000000E+00 0.  1.
</event>
<event>
 7    1  0.7961130E-006  0.5497689E+02  0.7818608E-02  0.1526312E+00
          2   -1    0    0  502    0  0.00000000000E+00  0.00000000000E+00  0.23534413486E+03  0.23534413486E+03  0.00000000000E+00 0. -1.
          1   -1    0    0  501    0 -0.00000000000E+00 -0.00000000000E+00 -0.13018486173E+04  0.13018486173E+04  0.00000000000E+00 0. -1.
         25    2    1    2    0    0  0.19078455411E+02  0.53055987018E+02 -0.27193016070E+03  0.30454798702E+03  0.12499815551E+03 0.  0.
          2    1    1    2  501    0  0.66379104124E+01 -0.54776344772E+02 -0.10120972600E+04  0.10136002039E+04  0.00000000000E+00 0. -1.
          1    1    1    2  502    0 -0.25716365823E+02  0.17203577545E+01  0.21752293826E+03  0.21904456116E+03  0.00000000000E+00 0. -1.
         22    1    3    3    0    0  0.47756409413E+02 -0.25043084168E+02 -0.10587379945E+03  0.11881536986E+03  0.00000000000E+00 0.  1.
         22    1    3    3    0    0 -0.28677954002E+02  0.78099071186E+02 -0.16605636125E+03  0.18573261716E+03  0.00000000000E+00 0.  1.
</event>
<event>
 7    1  0.7961130E-006  0.1238027E+03  0.7818608E-02  0.1251839E+00
          2   -1    0    0  502    0  0.00000000000E+00  0.00000000000E+00  0.70775430068E+03  0.70775430068E+03  0.00000000000E+00 0. -1.
          1   -1    0    0  501    0 -0.00000000000E+00 -0.00000000000E+00 -0.97583540445E+03  0.97583540445E+03  0.00000000000E+00 0. -1.
         25    2    1    2    0    0 -0.67537727448E+02 -0.31818083392E+02  0.16951816292E+03  0.22347572704E+03  0.12502502933E+03 0.  0.
          2    1    1    2  501    0  0.74629679584E+01 -0.10628773862E+03 -0.93467242481E+03  0.94072595423E+03  0.00000000000E+00 0. -1.
          1    1    1    2  502    0  0.60074759490E+02  0.13810582202E+03  0.49707315812E+03  0.51938802386E+03  0.00000000000E+00 0. -1.
         22    1    3    3    0    0 -0.96458484055E+02 -0.25734924526E+02  0.76202512009E+02  0.12559199148E+03  0.00000000000E+00 0. -1.
         22    1    3    3    0    0  0.28920756607E+02 -0.60831588662E+01  0.93315650907E+02  0.97883735567E+02  0.00000000000E+00 0. -1.
</event>
<event>
 7    1  0.7961130E-006  0.6481595E+02  0.7818608E-02  0.1393284E+00
          2   -1    0    0  502    0  0.00000000000E+00  0.00000000000E+00  0.29427918115E+04  0.29427918115E+04  0.00000000000E+00 0. -1.
          1   -1    0    0  501    0 -0.00000000000E+00 -0.00000000000E+00 -0.59057781710E+03  0.59057781710E+03  0.00000000000E+00 0. -1.
         25    2    1    2    0    0 -0.37145302335E+02 -0.10802080083E+03  0.22954306135E+03  0.28524010501E+03  0.12499453427E+03 0.  0.
          2    1    1    2  501    0 -0.57977693425E+00  0.64504723248E+02 -0.56057061651E+03  0.56426998109E+03  0.00000000000E+00 0. -1.
          1    1    1    2  502    0  0.37725079270E+02  0.43516077583E+02  0.26832415495E+04  0.26838595425E+04  0.00000000000E+00 0. -1.
         22    1    3    3    0    0 -0.15811407105E+02 -0.11030627410E+03  0.23751075358E+03  0.26235249716E+03  0.00000000000E+00 0.  1.
         22    1    3    3    0    0 -0.21333895230E+02  0.22854732677E+01 -0.79676922306E+01  0.22887607853E+02  0.00000000000E+00 0.  1.
</event>
<event>
 7    1  0.7961130E-006  0.5740530E+03  0.7818608E-02  0.1238395E+00
          2   -1    0    0  502    0  0.00000000000E+00  0.00000000000E+00  0.96466117979E+03  0.96466117979E+03  0.00000000000E+00 0. -1.
          1   -1    0    0  501    0 -0.00000000000E+00 -0.00000000000E+00 -0.15167903455E+04  0.15167903455E+04  0.00000000000E+00 0. -1.
         25    2    1    2    0    0  0.38978213963E+03 -0.43224638795E+03  0.74809473633E+02  0.59998380133E+03  0.12496818894E+03 0.  0.
          2    1    1    2  501    0  0.90965944046E+01  0.24687582791E+02 -0.11244037428E+04  0.11247115193E+04  0.00000000000E+00 0. -1.
          1    1    1    2  502    0 -0.39887873404E+03  0.40755880516E+03  0.49746510347E+03  0.75675620467E+03  0.00000000000E+00 0. -1.
         22    1    3    3    0    0  0.35062487658E+03 -0.31444269486E+03  0.65372552705E+02  0.47548457712E+03  0.00000000000E+00 0.  1.
         22    1    3    3    0    0  0.39157263057E+02 -0.11780369308E+03  0.94369209279E+01  0.12449922422E+03  0.00000000000E+00 0.  1.
</event>
<event>
 7    1  0.7961130E-006  0.6144439E+02  0.7818608E-02  0.1407301E+00
          2   -1    0    0  502    0  0.00000000000E+00  0.00000000000E+00  0.33980102604E+03  0.33980102604E+03  0.00000000000E+00 0. -1.
          1   -1    0    0  501    0 -0.00000000000E+00 -0.00000000000E+00 -0.10195423379E+04  0.10195423379E+04  0.00000000000E+00 0. -1.
         25    2    1    2    0    0  0.73611685864E+02 -0.43846785851E+02 -0.14340901311E+03  0.20864386701E+03  0.12499958909E+03 0.  0.
          2    1    1    2  501    0 -0.12920187309E+02  0.52815281040E+02 -0.83956446477E+03  0.84132328843E+03  0.00000000000E+00 0. -1.
          1    1    1    2  502    0 -0.60691498555E+02 -0.89684951895E+01  0.30323216600E+03  0.30937620852E+03  0.00000000000E+00 0. -1.
         22    1    3    3    0    0  0.40585906898E+02 -0.84054662587E+02 -0.62097869298E+02  0.11210953355E+03  0.00000000000E+00 0.  1.
         22    1    3    3    0    0  0.33025778966E+02  0.40207876736E+02 -0.81311143817E+02  0.96534333461E+02  0.00000000000E+00 0.  1.
</event>
<event>
 7    1  0.7961130E-006  0.1933019E+03  0.7818608E-02  0.1259073E+00
          2   -1    0    0  502    0  0.00000000000E+00  0.00000000000E+00  0.10653408919E+04  0.10653408919E+04  0.00000000000E+00 0. -1.
          1   -1    0    0  501    0 -0.00000000000E+00 -0.00000000000E+00 -0.14291055433E+03  0.14291055433E+03  0.00000000000E+00 0. -1.
         25    2    1    2    0    0 -0.11963207037E+03  0.20760414251E+03  0.40427890823E+03  0.48629028482E+03  0.12500197286E+03 0.  0.
          2    1    1    2  501    0  0.44232310231E+02 -0.45594584590E+02 -0.77427691316E+02  0.10015193855E+03  0.00000000000E+00 0. -1.
          1    1    1    2  502    0  0.75399760137E+02 -0.16200955792E+03  0.59557912062E+03  0.62180922284E+03  0.00000000000E+00 0. -1.
         22    1    3    3    0    0  0.47556329157E+01 -0.14713592356E+02  0.21235723345E+02  0.26269027208E+02  0.00000000000E+00 0. -1.
         22    1    3    3    0    0 -0.12438770328E+03  0.22231773487E+03  0.38304318489E+03  0.46002125761E+03  0.00000000000E+00 0. -1.
</event>
<event>
 7    1  0.7961130E-006  0.4960509E+02  0.7818608E-02  0.1459587E+00
          2   -1    0    0  502    0  0.00000000000E+00  0.00000000000E+00  0.15999615185E+04  0.15999615185E+04  0.00000000000E+00 0. -1.
          1   -1    0    0  501    0 -0.00000000000E+00 -0.00000000000E+00 -0.60994522196E+03  0.60994522196E+03  0.00000000000E+00 0. -1.
         25    2    1    2    0    0 -0.65083562784E+02  0.16501871011E+02  0.29752850730E+03  0.32962936306E+03  0.12499648974E+03 0.  0.
          2    1    1    2  501    0  0.21423666086E+02 -0.40019745810E+02 -0.59254843797E+03  0.59428461604E+03  0.00000000000E+00 0. -1.
          1    1    1    2  502    0  0.43659896697E+02  0.23517874800E+02  0.12850362272E+04  0.12859927613E+04  0.00000000000E+00 0. -1.
         22    1    3    3    0    0 -0.44112707574E+02  0.70616899005E+02  0.18987036360E+03  0.20732446157E+03  0.00000000000E+00 0.  1.
         22    1    3    3    0    0 -0.20970855209E+02 -0.54115027995E+02  0.10765814370E+03  0.12230490149E+03  0.00000000000E+00 0.  1.
</event>
<event>
 7    1  0.7961130E-006  0.7411614E+02  0.7818608E-02  0.1419111E+00
          2   -1    0    0  502    0  0.00000000000E+00  0.00000000000E+00  0.28415208556E+03  0.28415208556E+03  0.00000000000E+00 0. -1.
          1   -1    0    0  501    0 -0.00000000000E+00 -0.00000000000E+00 -0.18735910434E+03  0.18735910434E+03  0.00000000000E+00 0. -1.
         25    2    1    2    0    0  0.47096864964E+02 -0.75710079002E+02  0.19272780487E+03  0.24640687095E+03  0.12498883362E+03 0.  0.
          2    1    1    2  501    0  0.97113863738E+01  0.39962578161E+02 -0.13926697418E+03  0.14521228865E+03  0.00000000000E+00 0. -1.
          1    1    1    2  502    0 -0.56808251338E+02  0.35747500841E+02  0.43332150526E+02  0.79892030301E+02  0.00000000000E+00 0. -1.
         22    1    3    3    0    0  0.10858266803E+02 -0.98519331894E+02  0.17273154285E+03  0.19914855413E+03  0.00000000000E+00 0.  1.
         22    1    3    3    0    0  0.36238598160E+02  0.22809252892E+02  0.19996262017E+02  0.47258316821E+02  0.00000000000E+00 0.  1.
</event>
<event>
 7    1  0.7961130E-006  0.6463699E+02  0.7818608E-02  0.1425495E+00
          2   -1    0    0  502    0  0.00000000000E+00  0.00000000000E+00  0.24702606481E+04  0.24702606481E+04  0.00000000000E+00 0. -1.
          1   -1    0    0  501    0 -0.00000000000E+00 -0.00000000000E+00 -0.26452645525E+04  0.26452645525E+04  0.00000000000E+00 0. -1.
         25    2    1    2    0    0  0.62496092563E+02  0.28430015276E+02  0.16168314883E+03  0.21559600598E+03  0.12500467921E+03 0.  0.
          2    1    1    2  501    0 -0.28666195926E+02 -0.57959589637E+02 -0.26176878915E+04  0.26184863876E+04  0.00000000000E+00 0. -1.
          1    1    1    2  502    0 -0.33829896636E+02  0.29529574361E+02  0.22810008382E+04  0.22814428070E+04  0.00000000000E+00 0. -1.
         22    1    3    3    0    0 -0.14252136020E+02  0.18952155251E+02 -0.11185606412E+02  0.26218797848E+02  0.00000000000E+00 0. -1.
         22    1    3    3    0    0  0.76748228583E+02  0.94778600247E+01  0.17286875524E+03  0.18937720813E+03  0.00000000000E+00 0. -1.
</event>
<event>
 7    1  0.7961130E-006  0.9624214E+02  0.7818608E-02  0.1312775E+00
          2   -1    0    0  502    0  0.00000000000E+00  0.00000000000E+00  0.64037869479E+03  0.64037869479E+03  0.00000000000E+00 0. -1.
          1   -1    0    0  501    0 -0.00000000000E+00 -0.00000000000E+00 -0.33806899030E+03  0.33806899030E+03  0.00000000000E+00 0. -1.
         25    2    1    2    0    0  0.12118143536E+02  0.28698207083E+02 -0.57442026177E+02  0.14104875348E+03  0.12499891198E+03 0.  0.
          2    1    1    2  501    0  0.74151824998E+02  0.20342621259E+02 -0.22836834293E+03  0.24096558975E+03  0.00000000000E+00 0. -1.
          1    1    1    2  502    0 -0.86269968534E+02 -0.49040828342E+02  0.58812007360E+03  0.59643334186E+03  0.00000000000E+00 0. -1.
         22    1    3    3    0    0  0.20683724751E+02 -0.23186696171E+02  0.27270208230E+02  0.41341306291E+02  0.00000000000E+00 0.  1.
         22    1    3    3    0    0 -0.85655812154E+01  0.51884903254E+02 -0.84712234408E+02  0.99707447192E+02  0.00000000000E+00 0.  1.
</event>
<event>
 7    1  0.7961130E-006  0.8425850E+02  0.7818608E-02  0.1407972E+00
          2   -1    0    0  502    0  0.00000000000E+00  0.00000000000E+00  0.33600896741E+04  0.33600896741E+04  0.00000000000E+00 0. -1.
          1   -1    0    0  501    0 -0.00000000000E+00 -0.00000000000E+00 -0.12632686295E+03  0.12632686295E+03  0.00000000000E+00 0. -1.
         25    2    1    2    0    0 -0.29519407945E+02  0.13002328231E+02  0.31056000153E+04  0.31082818874E+04  0.12499752129E+03 0.  0.
          2    1    1    2  501    0 -0.71726000263E+02  0.44213970064E+02 -0.94697649240E+02  0.12675621892E+03  0.00000000000E+00 0. -1.
          1    1    1    2  502    0  0.10124540821E+03 -0.57216298295E+02  0.22286044511E+03  0.25137843079E+03  0.00000000000E+00 0. -1.
         22    1    3    3    0    0 -0.72675901727E+01 -0.55077154264E+02  0.16269366867E+04  0.16278849140E+04  0.00000000000E+00 0.  1.
         22    1    3    3    0    0 -0.22251817773E+02  0.68079482495E+02  0.14786633286E+04  0.14803969734E+04  0.00000000000E+00 0.  1.
</event>
<event>
 7    1  0.7961130E-006  0.4511386E+02  0.7818608E-02  0.1526427E+00
          2   -1    0    0  502    0  0.00000000000E+00  0.00000000000E+00  0.27062561906E+02  0.27062561906E+02  0.00000000000E+00 0. -1.
          1   -1    0    0  501    0 -0.00000000000E+00 -0.00000000000E+00 -0.46557183636E+03  0.46557183636E+03  0.00000000000E+00 0. -1.
         25    2    1    2    0    0  0.48366480648E+02  0.40004719141E+02 -0.25203483594E+03  0.28823291088E+03  0.12496782938E+03 0.  0.
          2    1    1    2  501    0 -0.17314705411E+02 -0.35444376164E+02 -0.46625202946E+02  0.61073827249E+02  0.00000000000E+00 0. -1.
          1    1    1    2  502    0 -0.31051775236E+02 -0.45603429763E+01 -0.13984923556E+03  0.14332766014E+03  0.00000000000E+00 0. -1.
         22    1    3    3    0    0  0.71816972566E+02 -0.15203740499E+02 -0.18063386461E+03  0.19498057421E+03  0.00000000000E+00 0. -1.
         22    1    3    3    0    0 -0.23450491919E+02  0.55208459639E+02 -0.71400971333E+02  0.93252336669E+02  0.00000000000E+00 0. -1.
</event>
<event>
 7    1  0.7961130E-006  0.1519681E+03  0.7818608E-02  0.1255392E+00
          2   -1    0    0  502    0  0.00000000000E+00  0.00000000000E+00  0.83917105598E+02  0.83917105598E+02  0.00000000000E+00 0. -1.
          1   -1    0    0  501    0 -0.00000000000E+00 -0.00000000000E+00 -0.14054265210E+04  0.14054265210E+04  0.00000000000E+00 0. -1.
         25    2    1    2    0    0 -0.87422833053E+02  0.10960042272E+03 -0.11846978290E+04  0.11994959743E+04  0.12500656697E+03 0.  0.
          2    1    1    2  501    0 -0.58886703662E+02 -0.59611679730E+02 -0.10082982644E+03  0.13110244135E+03  0.00000000000E+00 0. -1.
          1    1    1    2  502    0  0.14630953671E+03 -0.49988742990E+02 -0.35981759930E+02  0.15874521097E+03  0.00000000000E+00 0. -1.
         22    1    3    3    0    0 -0.40805928856E+02  0.84692125068E+02 -0.10586410900E+04  0.10628070555E+04  0.00000000000E+00 0. -1.
         22    1    3    3    0    0 -0.46616904197E+02  0.24908297652E+02 -0.12605673908E+03  0.13668891878E+03  0.00000000000E+00 0. -1.
</event>
<event>
 7    1  0.7961130E-006  0.2130155E+03  0.7818608E-02  0.1176667E+00
          2   -1    0    0  502    0  0.00000000000E+00  0.00000000000E+00  0.68516140913E+03  0.68516140913E+03  0.00000000000E+00 0. -1.
          1   -1    0    0  501    0 -0.00000000000E+00 -0.00000000000E+00 -0.14830590886E+04  0.14830590886E+04  0.00000000000E+00 0. -1.
         25    2    1    2    0    0 -0.11266155594E+03 -0.27366988828E+03 -0.17603332638E+03  0.36633006668E+03  0.12498860675E+03 0.  0.
          2    1    1    2  501    0 -0.77508405471E+01  0.20730088533E+03 -0.11948067284E+04  0.12126816775E+04  0.00000000000E+00 0. -1.
          1    1    1    2  502    0  0.12041239648E+03  0.66369002945E+02  0.57294237536E+03  0.58920875356E+03  0.00000000000E+00 0. -1.
         22    1    3    3    0    0 -0.13608908495E+03 -0.20932449290E+03 -0.15817899598E+03  0.29556315254E+03  0.00000000000E+00 0. -1.
         22    1    3    3    0    0  0.23427529018E+02 -0.64345395375E+02 -0.17854330403E+02  0.70766914134E+02  0.00000000000E+00 0. -1.
</event>
<event>
 7    1  0.7961130E-006  0.1597363E+03  0.7818608E-02  0.1374653E+00
          2   -1    0    0  502    0  0.00000000000E+00  0.00000000000E+00  0.19647443779E+04  0.19647443779E+04  0.00000000000E+00 0. -1.
          1   -1    0    0  501    0 -0.00000000000E+00 -0.00000000000E+00 -0.14869939455E+03  0.14869939455E+03  0.00000000000E+00 0. -1.
         25    2    1    2    0    0  0.97301336854E+02 -0.15275685868E+03  0.12073991056E+04  0.12272893888E+04  0.12499774289E+03 0.  0.
          2    1    1    2  501    0 -0.72601200334E+02  0.14141574263E+03 -0.92875624690E+02  0.18410656755E+03  0.00000000000E+00 0. -1.
          1    1    1    2  502    0 -0.24700136520E+02  0.11341116050E+02  0.70152150248E+03  0.70204781611E+03  0.00000000000E+00 0. -1.
         22    1    3    3    0    0  0.29463968230E+02 -0.14620493641E+03  0.73295966649E+03  0.74797986708E+03  0.00000000000E+00 0.  1.
         22    1    3    3    0    0  0.67837368624E+02 -0.65519222707E+01  0.47443943911E+03  0.47930952176E+03  0.00000000000E+00 0.  1.
</event>
<event>
 7    1  0.7961130E-006  0.3989366E+02  0.7818608E-02  0.1608977E+00
          2   -1    0    0  502    0  0.00000000000E+00  0.00000000000E+00  0.16129514891E+04  0.16129514891E+04  0.00000000000E+00 0. -1.
          1   -1    0    0  501    0 -0.00000000000E+00 -0.00000000000E+00 -0.61101158451E+02  0.61101158451E+02  0.00000000000E+00 0. -1.
         25    2    1    2    0    0 -0.47304180218E+01 -0.21415197772E+02  0.76855334580E+03  0.77896143372E+03  0.12500272926E+03 0.  0.
          2    1    1    2  501    0  0.22135374251E+02  0.33406305710E+02 -0.48562950178E+02  0.62962815887E+02  0.00000000000E+00 0. -1.
          1    1    1    2  502    0 -0.17404956229E+02 -0.11991107938E+02  0.83185993504E+03  0.83212839796E+03  0.00000000000E+00 0. -1.
         22    1    3    3    0    0  0.45204976415E+02  0.11640073160E+02  0.56107993336E+03  0.56301835922E+03  0.00000000000E+00 0.  1.
         22    1    3    3    0    0 -0.49935394437E+02 -0.33055270932E+02  0.20747341244E+03  0.21594307450E+03  0.00000000000E+00 0.  1.
</event>
<event>
 7    1  0.7961130E-006  0.2022220E+02  0.7818608E-02  0.1752465E+00
          2   -1    0    0  502    0  0.00000000000E+00  0.00000000000E+00  0.94138871940E+03  0.94138871940E+03  0.00000000000E+00 0. -1.
          1   -1    0    0  501    0 -0.00000000000E+00 -0.00000000000E+00 -0.86327376383E+02  0.86327376383E+02  0.00000000000E+00 0. -1.
         25    2    1    2    0    0  0.12461138121E+02  0.10809965126E+01  0.74555756433E+03  0.75606630927E+03  0.12499493498E+03 0.  0.
          2    1    1    2  501    0 -0.72279820165E+01  0.18886331204E+02 -0.79240491138E+02  0.81780148362E+02  0.00000000000E+00 0. -1.
          1    1    1    2  502    0 -0.52331561045E+01 -0.19967327716E+02  0.18874426983E+03  0.18986963815E+03  0.00000000000E+00 0. -1.
         22    1    3    3    0    0  0.30945690444E+02  0.17588782300E+02  0.71847405943E+03  0.71935524958E+03  0.00000000000E+00 0.  1.
         22    1    3    3    0    0 -0.18484552323E+02 -0.16507785787E+02  0.27083504893E+02  0.36711059688E+02  0.00000000000E+00 0.  1.
</event>
<event>
 7    1  0.7961130E-006  0.5874398E+02  0.7818608E-02  0.1485590E+00
          2   -1    0    0  502    0  0.00000000000E+00  0.00000000000E+00  0.16553672465E+03  0.16553672465E+03  0.00000000000E+00 0. -1.
          1   -1    0    0  501    0 -0.00000000000E+00 -0.00000000000E+00 -0.28917233309E+03  0.28917233309E+03  0.00000000000E+00 0. -1.
         25    2    1    2    0    0 -0.45987693825E+01 -0.36786537117E+02 -0.60245352449E+02  0.14362767747E+03  0.12500003700E+03 0.  0.
          2    1    1    2  501    0  0.32116881349E+02  0.52800589942E+02 -0.17994204643E+03  0.19025912972E+03  0.00000000000E+00 0. -1.
          1    1    1    2  502    0 -0.27518111966E+02 -0.16014052825E+02  0.11655179045E+03  0.12082225056E+03  0.00000000000E+00 0. -1.
         22    1    3    3    0    0 -0.57037478230E+02 -0.16589757807E+01 -0.56652354973E+02  0.80408428958E+02  0.00000000000E+00 0.  1.
         22    1    3    3    0    0  0.52438708847E+02 -0.35127561337E+02 -0.35929974758E+01  0.63219248508E+02  0.00000000000E+00 0.  1.
</event>
<event>
 7    1  0.7961130E-006  0.5096538E+02  0.7818608E-02  0.1457832E+00
          2   -1    0    0  502    0  0.00000000000E+00  0.00000000000E+00  0.19594742382E+03  0.19594742382E+03  0.00000000000E+00 0. -1.
          1   -1    0    0  501    0 -0.00000000000E+00 -0.00000000000E+00 -0.36993968865E+03  0.36993968865E+03  0.00000000000E+00 0. -1.
         25    2    1    2    0    0 -0.71707360369E+02 -0.19608368084E+02 -0.22132021753E+02  0.14710915698E+03  0.12499937620E+03 0.  0.
          2    1    1    2  501    0  0.40182554803E+02 -0.19694850400E+02 -0.27871454082E+03  0.28228411239E+03  0.00000000000E+00 0. -1.
          1    1    1    2  502    0  0.31524805567E+02  0.39303218484E+02  0.12685429775E+03  0.13649384311E+03  0.00000000000E+00 0. -1.
         22    1    3    3    0    0 -0.10003109944E+03  0.14038802846E+02 -0.20663036310E+02  0.10310320029E+03  0.00000000000E+00 0. -1.
         22    1    3    3    0    0  0.28323739066E+02 -0.33647170930E+02 -0.14689854423E+01  0.44005956693E+02  0.00000000000E+00 0. -1.
</event>
<event>
 7    1  0.7961130E-006  0.1243578E+03  0.7818608E-02  0.1320857E+00
          2   -1    0    0  502    0  0.00000000000E+00  0.00000000000E+00  0.84851414316E+03  0.84851414316E+03  0.00000000000E+00 0. -1.
          1   -1    0    0  501    0 -0.00000000000E+00 -0.00000000000E+00 -0.66995162078E+03  0.66995162078E+03  0.00000000000E+00 0. -1.
         25    2    1    2    0    0 -0.29523521469E+02  0.68671096935E+02  0.28038571749E+02  0.14831645317E+03  0.12499700357E+03 0.  0.
          2    1    1    2  501    0 -0.34716722488E+02  0.43099015514E+02 -0.60307208847E+03  0.60560607646E+03  0.00000000000E+00 0. -1.
          1    1    1    2  502    0  0.64240243957E+02 -0.11177011245E+03  0.75359603910E+03  0.76454323431E+03  0.00000000000E+00 0. -1.
         22    1    3    3    0    0 -0.70066980233E+02  0.42370659935E+02  0.49236156265E+02  0.95545034544E+02  0.00000000000E+00 0. -1.
         22    1    3    3    0    0  0.40543458764E+02  0.26300436999E+02 -0.21197584516E+02  0.52771418630E+02  0.00000000000E+00 0. -1.
</event>
<event>
 7    1  0.7961130E-006  0.1254649E+03  0.7818608E-02  0.1378161E+00
          2   -1    0    0  502    0  0.00000000000E+00  0.00000000000E+00  0.77747657782E+03  0.77747657782E+03  0.00000000000E+00 0. -1.
          1   -1    0    0  501    0 -0.00000000000E+00 -0.00000000000E+00 -0.15296010550E+04  0.15296010550E+04  0.00000000000E+00 0. -1.
         25    2    1    2    0    0 -0.95855003449E+02 -0.39595134617E+02  0.40515049016E+03  0.43649572113E+03  0.12500255402E+03 0.  0.
          2    1    1    2  501    0  0.12385178802E+03  0.20976410191E+02 -0.15105231264E+04  0.15157372433E+04  0.00000000000E+00 0. -1.
          1    1    1    2  502    0 -0.27996784572E+02  0.18618724426E+02  0.35324815905E+03  0.35484466844E+03  0.00000000000E+00 0. -1.
         22    1    3    3    0    0 -0.11865295202E+03 -0.92104079572E+01  0.34874089762E+03  0.36848822004E+03  0.00000000000E+00 0. -1.
         22    1    3    3    0    0  0.22797948568E+02 -0.30384726660E+02  0.56409592547E+02  0.68007501089E+02  0.00000000000E+00 0. -1.
</event>
<event>
 7    1  0.7961130E-006  0.4889283E+02  0.7818608E-02  0.1464524E+00
          2   -1    0    0  502    0  0.00000000000E+00  0.00000000000E+00  0.33803701694E+02  0.33803701694E+02  0.00000000000E+00 0. -1.
          1   -1    0    0  501    0 -0.00000000000E+00 -0.00000000000E+00 -0.12860965792E+04  0.12860965792E+04  0.00000000000E+00 0. -1.
         25    2    1    2    0    0 -0.41781792197E+01 -0.35026030564E+02 -0.10443358928E+04  0.10523813655E+04  0.12499920594E+03 0.  0.
          2    1    1    2  501    0  0.40249851277E+02  0.60977630517E+02 -0.21068881271E+03  0.22299797701E+03  0.00000000000E+00 0. -1.
          1    1    1    2  502    0 -0.36071672057E+02 -0.25951599953E+02  0.27318280452E+01  0.44520938328E+02  0.00000000000E+00 0. -1.
         22    1    3    3    0    0 -0.86772093711E+01  0.46898783836E+02 -0.36081402651E+03  0.36395267772E+03  0.00000000000E+00 0.  1.
         22    1    3    3    0    0  0.44990301513E+01 -0.81924814399E+02 -0.68352186632E+03  0.68842868783E+03  0.00000000000E+00 0.  1.
</event>
<event>
 7    1  0.7961130E-006  0.2323035E+03  0.7818608E-02  0.1231981E+00
          2   -1    0    0  502    0  0.00000000000E+00  0.00000000000E+00  0.14169104587E+04  0.14169104587E+04  0.00000000000E+00 0. -1.
          1   -1    0    0  501    0 -0.00000000000E+00 -0.00000000000E+00 -0.46516351490E+03  0.46516351490E+03  0.00000000000E+00 0. -1.
         25    2    1    2    0    0 -0.17976769065E+03  0.23569301589E+03  0.34384285081E+03  0.47087049163E+03  0.12499397383E+03 0.  0.
          2    1    1    2  501    0  0.14175878268E+03 -0.17759441226E+03 -0.36817819706E+03  0.43265518895E+03  0.00000000000E+00 0. -1.
          1    1    1    2  502    0  0.38008907972E+02 -0.58098603630E+02  0.97608229001E+03  0.97854829298E+03  0.00000000000E+00 0. -1.
         22    1    3    3    0    0 -0.76065465224E+02  0.19451852577E+03  0.24355747568E+03  0.32084833774E+03  0.00000000000E+00 0. -1.
         22    1    3    3    0    0 -0.10370222542E+03  0.41174490119E+02  0.10028537513E+03  0.15002215390E+03  0.00000000000E+00 0. -1.
</event>
<event>
 7    1  0.8485877E-006  0.7421868E+02  0.7818608E-02  0.1379259E+00
          2   -1    0    0  502    0  0.00000000000E+00  0.00000000000E+00  0.21313991327E+04  0.21313991327E+04  0.00000000000E+00 0. -1.
          1   -1    0    0  501    0 -0.00000000000E+00 -0.00000000000E+00 -0.48792465097E+03  0.48792465097E+03  0.00000000000E+00 0. -1.
         25    2    1    2    0    0 -0.42464932668E+02  0.11305536133E+02 -0.61609581364E+02  0.14612398109E+03  0.12500156671E+03 0.  0.
          2    1    1    2  501    0  0.95153364095E+01  0.55521298516E+02 -0.38132375488E+03  0.38546201143E+03  0.00000000000E+00 0. -1.
          1    1    1    2  502    0  0.32949596258E+02 -0.66826834649E+02  0.20864078180E+04  0.20877377912E+04  0.00000000000E+00 0. -1.
         22    1    3    3    0    0  0.15325674230E+02  0.56068700857E+02 -0.37408023802E+02  0.69122613891E+02  0.00000000000E+00 0.  1.
         22    1    3    3    0    0 -0.57790606898E+02 -0.44763164723E+02 -0.24201557562E+02  0.77001367196E+02  0.00000000000E+00 0.  1.
</event>
<event>
 7    1  0.7961130E-006  0.1045195E+03  0.7818608E-02  0.1434071E+00
          2   -1    0    0  502    0  0.00000000000E+00  0.00000000000E+00  0.12009511643E+04  0.12009511643E+04  0.00000000000E+00 0. -1.
          1   -1    0    0  501    0 -0.00000000000E+00 -0.00000000000E+00 -0.13376361777E+03  0.13376361777E+03  0.00000000000E+00 0. -1.
         25    2    1    2    0    0 -0.61180650938E+02  0.11086826911E+03  0.20633313399E+03  0.27246505131E+03  0.12501598640E+03 0.  0.
          2    1    1    2  501    0  0.42252884323E+02 -0.93011542561E+02 -0.74559718547E+02  0.12647373211E+03  0.00000000000E+00 0. -1.
          1    1    1    2  502    0  0.18927766614E+02 -0.17856726551E+02  0.93541413111E+03  0.93577599868E+03  0.00000000000E+00 0. -1.
         22    1    3    3    0    0  0.23830971509E+02  0.28336654690E+02  0.30219942992E+01  0.37148534986E+02  0.00000000000E+00 0.  1.
         22    1    3    3    0    0 -0.85011622446E+02  0.82531614422E+02  0.20331113969E+03  0.23531651632E+03  0.00000000000E+00 0.  1.
</event>
<event>
 7    1  0.7961130E-006  0.5066217E+02  0.7818608E-02  0.1494179E+00
          2   -1    0    0  502    0  0.00000000000E+00  0.00000000000E+00  0.19012910268E+04  0.19012910268E+04  0.00000000000E+00 0. -1.
          1   -1    0    0  501    0 -0.00000000000E+00 -0.00000000000E+00 -0.87072415179E+03  0.87072415179E+03  0.00000000000E+00 0. -1.
         25    2    1    2    0    0  0.12471596505E+02 -0.14871460590E+02  0.30403044031E+03  0.32929475494E+03  0.12499530365E+03 0.  0.
          2    1    1    2  501    0  0.33724988165E+02 -0.84733414076E+01 -0.85731677090E+03  0.85802168854E+03  0.00000000000E+00 0. -1.
          1    1    1    2  502    0 -0.46196584670E+02  0.23344801998E+02  0.15838532055E+04  0.15846987351E+04  0.00000000000E+00 0. -1.
         22    1    3    3    0    0  0.57643458596E+02  0.99140428437E+01  0.78159734355E+02  0.97621722167E+02  0.00000000000E+00 0.  1.
         22    1    3    3    0    0 -0.45171862091E+02 -0.24785503434E+02  0.22587070596E+03  0.23167303277E+03  0.00000000000E+00 0.  1.
</event>
<event>
 7    1  0.7961130E-006  0.3009761E+02  0.7818608E-02  0.1608562E+00
          2   -1    0    0  502    0  0.00000000000E+00  0.00000000000E+00  0.20775937343E+04  0.20775937343E+04  0.00000000000E+00 0. -1.
          1   -1    0    0  501    0 -0.00000000000E+00 -0.00000000000E+00 -0.27459123838E+03  0.27459123838E+03  0.00000000000E+00 0. -1.
         25    2    1    2    0    0  0.35505675767E+02  0.40289444807E+02 -0.17382759715E+03  0.22073278697E+03  0.12499214910E+03 0.  0.
          2    1    1    2  501    0 -0.86541579009E+01 -0.26717539639E+02 -0.74646616395E+02  0.79754866388E+02  0.00000000000E+00 0. -1.
          1    1    1    2  502    0 -0.26851517866E+02 -0.13571905167E+02  0.20514767094E+04  0.20516973193E+04  0.00000000000E+00 0. -1.
         22    1    3    3    0    0  0.75750030953E+02  0.53548875565E+02 -0.10711266096E+03  0.14169922866E+03  0.00000000000E+00 0. -1.
         22    1    3    3    0    0 -0.40244355187E+02 -0.13259430758E+02 -0.66714936186E+02  0.79033558307E+02  0.00000000000E+00 0. -1.
</event>
<event>
 7    1  0.7961130E-006  0.6359846E+02  0.7818608E-02  0.1407383E+00
          2   -1    0    0  502    0  0.00000000000E+00  0.00000000000E+00  0.15865539950E+04  0.15865539950E+04  0.00000000000E+00 0. -1.
          1   -1    0    0  501    0 -0.00000000000E+00 -0.00000000000E+00 -0.67663973607E+02  0.67663973607E+02  0.00000000000E+00 0. -1.
         25    2    1    2    0    0 -0.36206636120E+02  0.20216809546E+02  0.59868429837E+03  0.61299822493E+03  0.12499717904E+03 0.  0.
          2    1    1    2  501    0  0.21408804677E+02  0.47933474610E+02 -0.47624325356E+02  0.70880401181E+02  0.00000000000E+00 0. -1.
          1    1    1    2  502    0  0.14797831443E+02 -0.68150284156E+02  0.96783004834E+03  0.97033934245E+03  0.00000000000E+00 0. -1.
         22    1    3    3    0    0 -0.13239355003E+02  0.61520286618E+02  0.16246862430E+03  0.17422996318E+03  0.00000000000E+00 0. -1.
         22    1    3    3    0    0 -0.22967281117E+02 -0.41303477072E+02  0.43621567407E+03  0.43876826175E+03  0.00000000000E+00 0. -1.
</event>
<event>
 7    1  0.7961130E-006  0.7335024E+02  0.7818608E-02  0.1413441E+00
          2   -1    0    0  502    0  0.00000000000E+00  0.00000000000E+00  0.28841526969E+03  0.28841526969E+03  0.00000000000E+00 0. -1.
          1   -1    0    0  501    0 -0.00000000000E+00 -0.00000000000E+00 -0.30536890591E+04  0.30536890591E+04  0.00000000000E+00 0. -1.
         25    2    1    2    0    0  0.50744858549E+02  0.37240586450E+02  0.13448169168E+03  0.19409988586E+03  0.12501015297E+03 0.  0.
          2    1    1    2  501    0 -0.22215474558E+02 -0.69969188701E+02 -0.30196233825E+04  0.30205156161E+04  0.00000000000E+00 0. -1.
          1    1    1    2  502    0 -0.28529383990E+02  0.32728602251E+02  0.11986790148E+03  0.12748882681E+03  0.00000000000E+00 0. -1.
         22    1    3    3    0    0  0.35389123497E+02  0.66880554423E+02  0.14106325023E+03  0.16007572954E+03  0.00000000000E+00 0.  1.
         22    1    3    3    0    0  0.15355735052E+02 -0.29639967973E+02 -0.65815585507E+01  0.34024156321E+02  0.00000000000E+00 0.  1.
</event>
<event>
 7    1  0.7961130E-006  0.2049081E+03  0.7818608E-02  0.1274151E+00
          2   -1    0    0  502    0  0.00000000000E+00  0.00000000000E+00  0.34815954124E+04  0.34815954124E+04  0.00000000000E+00 0. -1.
          1   -1    0    0  501    0 -0.00000000000E+00 -0.00000000000E+00 -0.10099656587E+04  0.10099656587E+04  0.00000000000E+00 0. -1.
         25    2    1    2    0    0  0.17070567126E+03  0.11511265450E+03 -0.88170931913E+03  0.91401630574E+03  0.12499253696E+03 0.  0.
          2    1    1    2  501    0 -0.19300113665E+03 -0.68406810234E+02 -0.18232801294E+02  0.20557569282E+03  0.00000000000E+00 0. -1.
          1    1    1    2  502    0  0.22295465392E+02 -0.46705844267E+02  0.33715718741E+04  0.33719690725E+04  0.00000000000E+00 0. -1.
         22    1    3    3    0    0  0.85575393462E+02  0.11907142008E+03 -0.66876777520E+03  0.68465428370E+03  0.00000000000E+00 0.  1.
         22    1    3    3    0    0  0.85130277799E+02 -0.39587655781E+01 -0.21294154393E+03  0.22936202204E+03  0.00000000000E+00 0.  1.
</event>
<event>
 7    1  0.7961130E-006  0.6932894E+02  0.7818608E-02  0.1473698E+00
          2   -1    0    0  502    0  0.00000000000E+00  0.00000000000E+00  0.23384546844E+02  0.23384546844E+02  0.00000000000E+00 0. -1.
          1   -1    0    0  501    0 -0.00000000000E+00 -0.00000000000E+00 -0.16741009114E+04  0.16741009114E+04  0.00000000000E+00 0. -1.
         25    2    1    2    0    0  0.13649950666E+02  0.41806190771E+02 -0.48985364382E+03  0.50746025165E+03  0.12500094362E+03 0.  0.
          2    1    1    2  501    0 -0.14727187676E+02 -0.71129180649E+02 -0.11582949385E+04  0.11605702973E+04  0.00000000000E+00 0. -1.
          1    1    1    2  502    0  0.10772370099E+01  0.29322989878E+02 -0.25677822119E+01  0.29454909276E+02  0.00000000000E+00 0. -1.
         22    1    3    3    0    0  0.27014348554E+02  0.63150615049E+02 -0.47105021056E+03  0.47603159147E+03  0.00000000000E+00 0. -1.
         22    1    3    3    0    0 -0.13364397888E+02 -0.21344424278E+02 -0.18803433262E+02  0.31428660186E+02  0.00000000000E+00 0. -1.
</event>
<event>
 7    1  0.7961130E-006  0.1529715E+03  0.7818608E-02  0.1265035E+00
          2   -1    0    0  502    0  0.00000000000E+00  0.00000000000E+00  0.27935667725E+04  0.27935667725E+04  0.00000000000E+00 0. -1.
          1   -1    0    0  501    0 -0.00000000000E+00 -0.00000000000E+00 -0.11954496712E+03  0.11954496712E+03  0.00000000000E+00 0. -1.
         25    2    1    2    0    0  0.60161211869E+02  0.10360736693E+03  0.13877776975E+04  0.13985369408E+04  0.12499911738E+03 0.  0.
          2    1    1    2  501    0  0.42030165194E+02  0.62982996869E+02 -0.93920363774E+02  0.12064173164E+03  0.00000000000E+00 0. -1.
          1    1    1    2  502    0 -0.10219137706E+03 -0.16659036380E+03  0.13801644716E+04  0.13939330671E+04  0.00000000000E+00 0. -1.
         22    1    3    3    0    0  0.74981979914E+02  0.61317015790E+02  0.48116954909E+03  0.49082197252E+03  0.00000000000E+00 0.  1.
         22    1    3    3    0    0 -0.14820768045E+02  0.42290351139E+02  0.90660814840E+03  0.90771496832E+03  0.00000000000E+00 0.  1.
</event>
<event>
 7    1  0.7961130E-006  0.2289056E+02  0.7818608E-02  0.1702463E+00
          2   -1    0    0  502    0  0.00000000000E+00  0.00000000000E+00  0.21097991110E+03  0.21097991110E+03  0.00000000000E+00 0. -1.
          1   -1    0    0  501    0 -0.00000000000E+00 -0.00000000000E+00 -0.11271135430E+04  0.11271135430E+04  0.00000000000E+00 0. -1.
         25    2    1    2    0    0 -0.89483489952E+01  0.17114081716E+02 -0.27850840786E+03  0.30588319525E+03  0.12499852456E+03 0.  0.
          2    1    1    2  501    0 -0.13970186760E+02 -0.16734996901E+02 -0.83410908304E+03  0.83439390497E+03  0.00000000000E+00 0. -1.
          1    1    1    2  502    0  0.22918535755E+02 -0.37908481512E+00  0.19648385904E+03  0.19781635385E+03  0.00000000000E+00 0. -1.
         22    1    3    3    0    0  0.37325380247E+02 -0.24339212329E+02 -0.41585203881E+02  0.60950065211E+02  0.00000000000E+00 0. -1.
         22    1    3    3    0    0 -0.46273729242E+02  0.41453294045E+02 -0.23692320398E+03  0.24493313004E+03  0.00000000000E+00 0. -1.
</event>
<event>
 7    1  0.7961130E-006  0.1284251E+03  0.7818608E-02  0.1348244E+00
          2   -1    0    0  502    0  0.00000000000E+00  0.00000000000E+00  0.17036891438E+03  0.17036891438E+03  0.00000000000E+00 0. -1.
          1   -1    0    0  501    0 -0.00000000000E+00 -0.00000000000E+00 -0.60483088192E+03  0.60483088192E+03  0.00000000000E+00 0. -1.
         25    2    1    2    0    0  0.11264274946E+03  0.10204072856E+03 -0.42007725552E+02  0.20122169337E+03  0.12499928633E+03 0.  0.
          2    1    1    2  501    0 -0.75197434543E+01 -0.41510619695E+02 -0.44122462897E+03  0.44323678920E+03  0.00000000000E+00 0. -1.
          1    1    1    2  502    0 -0.10512300601E+03 -0.60530108864E+02  0.48770386983E+02  0.13074131374E+03  0.00000000000E+00 0. -1.
         22    1    3    3    0    0  0.47513165023E+02 -0.59367190297E+01  0.29517602303E+02  0.56249749591E+02  0.00000000000E+00 0.  1.
         22    1    3    3    0    0  0.65129584440E+02  0.10797744759E+03 -0.71525327855E+02  0.14497194378E+03  0.00000000000E+00 0.  1.
</event>
<event>
 7    1  0.7961130E-006  0.2913251E+03  0.7818608E-02  0.1110745E+00
          2   -1    0    0  502    0  0.00000000000E+00  0.00000000000E+00  0.13588086899E+04  0.13588086899E+04  0.00000000000E+00 0. -1.
          1   -1    0    0  501    0 -0.00000000000E+00 -0.00000000000E+00 -0.18604398406E+04  0.18604398406E+04  0.00000000000E+00 0. -1.
         25    2    1    2    0    0 -0.21414313062E+03 -0.23709213145E+03  0.14520089811E+03  0.37253266376E+03  0.12500930192E+03 0.  0.
          2    1    1    2  501    0 -0.82947513132E+02  0.20551222313E+03 -0.17192418380E+04  0.17334670638E+04  0.00000000000E+00 0. -1.
          1    1    1    2  502    0  0.29709064375E+03  0.31579908320E+02  0.10724097892E+04  0.11132488029E+04  0.00000000000E+00 0. -1.
         22    1    3    3    0    0 -0.27445762289E+02 -0.10812102848E+03  0.19862549608E+02  0.11330466691E+03  0.00000000000E+00 0.  1.
         22    1    3    3    0    0 -0.18669736833E+03 -0.12897110297E+03  0.12533834850E+03  0.25922799684E+03  0.00000000000E+00 0.  1.
</event>
<event>
 7    1  0.7961130E-006  0.5855451E+02  0.7818608E-02  0.1433518E+00
          2   -1    0    0  502    0  0.00000000000E+00  0.00000000000E+00  0.11866839360E+04  0.11866839360E+04  0.00000000000E+00 0. -1.
          1   -1    0    0  501    0 -0.00000000000E+00 -0.00000000000E+00 -0.39744634539E+02  0.39744634539E+02  0.00000000000E+00 0. -1.
         25    2    1    2    0    0  0.20194831157E+01 -0.66861261325E+02  0.42020323553E+03  0.44347472699E+03  0.12499827099E+03 0.  0.
          2    1    1    2  501    0 -0.41055059863E+02  0.22136159845E+02 -0.66981797116E+01  0.47121047574E+02  0.00000000000E+00 0. -1.
          1    1    1    2  502    0  0.39035576747E+02  0.44725101480E+02  0.73343424568E+03  0.73583279601E+03  0.00000000000E+00 0. -1.
         22    1    3    3    0    0 -0.23154762901E+02 -0.14647728676E+02  0.99545295314E+01  0.29151186229E+02  0.00000000000E+00 0.  1.
         22    1    3    3    0    0  0.25174246016E+02 -0.52213532649E+02  0.41024870600E+03  0.41432354076E+03  0.00000000000E+00 0.  1.
</event>
<event>
 7    1  0.7961130E-006  0.4982589E+02  0.7818608E-02  0.1478443E+00
          2   -1    0    0  502    0  0.00000000000E+00  0.00000000000E+00  0.21573529778E+03  0.21573529778E+03  0.00000000000E+00 0. -1.
          1   -1    0    0  501    0 -0.00000000000E+00 -0.00000000000E+00 -0.19827563243E+04  0.19827563243E+04  0.00000000000E+00 0. -1.
         25    2    1    2    0    0 -0.73757852850E+02  0.50092426036E+02  0.46127011902E+02  0.16031637324E+03  0.12499666515E+03 0.  0.
          2    1    1    2  501    0  0.41623098116E+02 -0.27165341523E+02 -0.19218679662E+04  0.19225105768E+04  0.00000000000E+00 0. -1.
          1    1    1    2  502    0  0.32134754734E+02 -0.22927084513E+02  0.10871992781E+03  0.11566467209E+03  0.00000000000E+00 0. -1.
         22    1    3    3    0    0 -0.63847356174E+02  0.72445277083E+01  0.81565465597E+02  0.10383589577E+03  0.00000000000E+00 0.  1.
         22    1    3    3    0    0 -0.99104966763E+01  0.42847898327E+02 -0.35438453695E+02  0.56480477474E+02  0.00000000000E+00 0.  1.
</event>
<event>
 7    1  0.7961130E-006  0.4831637E+02  0.7818608E-02  0.1486636E+00
          2   -1    0    0  502    0  0.00000000000E+00  0.00000000000E+00  0.11088106368E+03  0.11088106368E+03  0.00000000000E+00 0. -1.
          1   -1    0    0  501    0 -0.00000000000E+00 -0.00000000000E+00 -0.21812097183E+03  0.21812097183E+03  0.00000000000E+00 0. -1.
         25    2    1    2    0    0  0.14323262178E+02  0.47067393369E+02 -0.16298178734E+03  0.21120807695E+03  0.12500117362E+03 0.  0.
          2    1    1    2  501    0 -0.38181557306E+02 -0.43407362960E+01 -0.61248355232E+01  0.38912554788E+02  0.00000000000E+00 0. -1.
          1    1    1    2  502    0  0.23858295128E+02 -0.42726657073E+02  0.61866714718E+02  0.78881403772E+02  0.00000000000E+00 0. -1.
         22    1    3    3    0    0 -0.51047805263E+02  0.18758749968E+02 -0.34815472338E+02  0.64574656303E+02  0.00000000000E+00 0. -1.
         22    1    3    3    0    0  0.65371067442E+02  0.28308643401E+02 -0.12816631500E+03  0.14663342065E+03  0.00000000000E+00 0. -1.
</event>
<event>
 7    1  0.7961130E-006  0.1707161E+03  0.7818608E-02  0.1320283E+00
          2   -1    0    0  502    0  0.00000000000E+00  0.00000000000E+00  0.20661645789E+04  0.20661645789E+04  0.00000000000E+00 0. -1.
          1   -1    0    0  501    0 -0.00000000000E+00 -0.00000000000E+00 -0.21731096303E+03  0.21731096303E+03  0.00000000000E+00 0. -1.
         25    2    1    2    0    0  0.41215607374E+02  0.13369831020E+03  0.44038115452E+03  0.47867704857E+03  0.12498876401E+03 0.  0.
          2    1    1    2  501    0  0.23565946227E+02  0.32963523163E+02 -0.19105642841E+03  0.19530618658E+03  0.00000000000E+00 0. -1.
          1    1    1    2  502    0 -0.64781553601E+02 -0.16666183337E+03  0.15995288898E+04  0.16094923068E+04  0.00000000000E+00 0. -1.
         22    1    3    3    0    0  0.24342400737E+02  0.11607206166E+03  0.17047633837E+03  0.20767151446E+03  0.00000000000E+00 0.  1.
         22    1    3    3    0    0  0.16873206638E+02  0.17626248538E+02  0.26990481615E+03  0.27100553411E+03  0.00000000000E+00 0.  1.
</event>
<event>
 7    1  0.7961130E-006  0.9394279E+02  0.7818608E-02  0.1474609E+00
          2   -1    0    0  502    0  0.00000000000E+00  0.00000000000E+00  0.14819616477E+03  0.14819616477E+03  0.00000000000E+00 0. -1.
          1   -1    0    0  501    0 -0.00000000000E+00 -0.00000000000E+00 -0.71265826070E+03  0.71265826070E+03  0.00000000000E+00 0. -1.
         25    2    1    2    0    0  0.60229796826E+00 -0.74453505808E+02 -0.82630500582E+02  0.16732105683E+03  0.12499939656E+03 0.  0.
          2    1    1    2  501    0 -0.42952327726E+01  0.95648808109E+02 -0.58264010050E+03  0.59045459625E+03  0.00000000000E+00 0. -1.
          1    1    1    2  502    0  0.36929348044E+01 -0.21195302301E+02  0.10080850516E+03  0.10307877240E+03  0.00000000000E+00 0. -1.
         22    1    3    3    0    0 -0.10164848384E+02 -0.43087661147E+02  0.27627536654E+02  0.52183823810E+02  0.00000000000E+00 0.  1.
         22    1    3    3    0    0  0.10767146353E+02 -0.31365844661E+02 -0.11025803724E+03  0.11513723302E+03  0.00000000000E+00 0.  1.
</event>
<event>
 7    1  0.7961130E-006  0.5957238E+02  0.7818608E-02  0.1407772E+00
          2   -1    0    0  502    0  0.00000000000E+00  0.00000000000E+00  0.13760706662E+03  0.13760706662E+03  0.00000000000E+00 0. -1.
          1   -1    0    0  501    0 -0.00000000000E+00 -0.00000000000E+00 -0.90161319014E+03  0.90161319014E+03  0.00000000000E+00 0. -1.
         25    2    1    2    0    0 -0.11826336923E+02 -0.65785954610E+02 -0.18876033751E+02  0.14299005237E+03  0.12498878493E+03 0.  0.
          2    1    1    2  501    0 -0.39902688798E+02  0.44665039002E+02 -0.80908879854E+03  0.81130257870E+03  0.00000000000E+00 0. -1.
          1    1    1    2  502    0  0.51729025722E+02  0.21120915608E+02  0.63958708769E+02  0.84927625691E+02  0.00000000000E+00 0. -1.
         22    1    3    3    0    0 -0.46133159156E+02 -0.17555944516E+02  0.36926892718E+02  0.61644748092E+02  0.00000000000E+00 0. -1.
         22    1    3    3    0    0  0.34306822232E+02 -0.48230010094E+02 -0.55802926469E+02  0.81345304277E+02  0.00000000000E+00 0. -1.
</event>
<event>
 7    1  0.7961130E-006  0.6760104E+02  0.7818608E-02  0.1429393E+00
          2   -1    0    0  502    0  0.00000000000E+00  0.00000000000E+00  0.26984935881E+02  0.26984935881E+02  0.00000000000E+00 0. -1.
          1   -1    0    0  501    0 -0.00000000000E+00 -0.00000000000E+00 -0.15115879280E+04  0.15115879280E+04  0.00000000000E+00 0. -1.
         25    2    1    2    0    0  0.70064085748E+02  0.44310407781E+02 -0.36615430133E+03  0.39568466900E+03  0.12499998618E+03 0.  0.
          2    1    1    2  501    0 -0.39254112982E+02  0.14016099271E+02 -0.10380748586E+04  0.10389113285E+04  0.00000000000E+00 0. -1.
          1    1    1    2  502    0 -0.30809972766E+02 -0.58326507052E+02 -0.80373832270E+02  0.10397686647E+03  0.00000000000E+00 0. -1.
         22    1    3    3    0    0  0.60388028915E+02  0.74337051692E+02 -0.15511320347E+03  0.18229870318E+03  0.00000000000E+00 0. -1.
         22    1    3    3    0    0  0.96760568331E+01 -0.30026643911E+02 -0.21104109787E+03  0.21338596582E+03  0.00000000000E+00 0. -1.
</event>
<event>
 7    1  0.7961130E-006  0.3611523E+02  0.7818608E-02  0.1600146E+00
          2   -1    0    0  502    0  0.00000000000E+00  0.00000000000E+00  0.11442204137E+04  0.11442204137E+04  0.00000000000E+00 0. -1.
          1   -1    0    0  501    0 -0.00000000000E+00 -0.00000000000E+00 -0.58144904738E+02  0.58144904738E+02  0.00000000000E+00 0. -1.
         25    2    1    2    0    0 -0.33283293857E+02  0.31612950698E+02  0.43746415017E+03  0.45728231323E+03  0.12500030003E+03 0.  0.
          2    1    1    2  501    0  0.35368741665E+02 -0.70881157735E+01 -0.41241627305E+02  0.54791067657E+02  0.00000000000E+00 0. -1.
          1    1    1    2  502    0 -0.20854478077E+01 -0.24524834924E+02  0.68985298610E+03  0.69029193756E+03  0.00000000000E+00 0. -1.
         22    1    3    3    0    0  0.29602568919E+02  0.30899253869E+02  0.33004451389E+03  0.33280693672E+03  0.00000000000E+00 0.  1.
         22    1    3    3    0    0 -0.62885862777E+02  0.71369682881E+00  0.10741963628E+03  0.12447537651E+03  0.00000000000E+00 0.  1.
</event>
<event>
 7    1  0.7961130E-006  0.8064272E+02  0.7818608E-02  0.1342706E+00
          2   -1    0    0  502    0  0.00000000000E+00  0.00000000000E+00  0.25085312278E+04  0.25085312278E+04  0.00000000000E+00 0. -1.
          1   -1    0    0  501    0 -0.00000000000E+00 -0.00000000000E+00 -0.44735200662E+03  0.44735200662E+03  0.00000000000E+00 0. -1.
         25    2    1    2    0    0  0.31343896746E+02  0.87481586904E+02  0.19585337869E+04  0.19647172936E+04  0.12499592494E+03 0.  0.
          2    1    1    2  501    0  0.37285830458E+02 -0.71542376995E+02 -0.43829419418E+03  0.44565720628E+03  0.00000000000E+00 0. -1.
          1    1    1    2  502    0 -0.68629727204E+02 -0.15939209909E+02  0.54093962850E+03  0.54550873462E+03  0.00000000000E+00 0. -1.
         22    1    3    3    0    0  0.25401310373E+02 -0.95925223469E+01  0.11550157643E+04  0.11553348687E+04  0.00000000000E+00 0. -1.
         22    1    3    3    0    0  0.59425863727E+01  0.97074109251E+02  0.80351802261E+03  0.80938242487E+03  0.00000000000E+00 0. -1.
</event>
<event>
 7    1  0.7961130E-006  0.1259303E+03  0.7818608E-02  0.1371450E+00
          2   -1    0    0  502    0  0.00000000000E+00  0.00000000000E+00  0.34395732557E+04  0.34395732557E+04  0.00000000000E+00 0. -1.
          1   -1    0    0  501    0 -0.00000000000E+00 -0.00000000000E+00 -0.19687367705E+04  0.19687367705E+04  0.00000000000E+00 0. -1.
         25    2    1    2    0    0 -0.26478107154E+02  0.14342854394E+03  0.24251405240E+03  0.30937209934E+03  0.12500077145E+03 0.  0.
          2    1    1    2  501    0 -0.21879398651E+02 -0.27826403946E+02 -0.19339048716E+04  0.19342288047E+04  0.00000000000E+00 0. -1.
          1    1    1    2  502    0  0.48357505806E+02 -0.11560213999E+03  0.31622273043E+04  0.31647091221E+04  0.00000000000E+00 0. -1.
         22    1    3    3    0    0 -0.59969740792E+02  0.46972978091E+02  0.16312634385E+03  0.18003620341E+03  0.00000000000E+00 0. -1.
         22    1    3    3    0    0  0.33491633638E+02  0.96455565845E+02  0.79387708558E+02  0.12933589593E+03  0.00000000000E+00 0. -1.
</event>
<event>
 7    1  0.7961130E-006  0.1441767E+03  0.7818608E-02  0.1309904E+00
          2   -1    0    0  502    0  0.00000000000E+00  0.00000000000E+00  0.76677327789E+02  0.76677327789E+02  0.00000000000E+00 0. -1.
          1   -1    0    0  501    0 -0.00000000000E+00 -0.00000000000E+00 -0.16470548476E+04  0.16470548476E+04  0.00000000000E+00 0. -1.
         25    2    1    2    0    0 -0.82258780005E+02 -0.58412744775E+02 -0.24794291649E+03  0.29543040238E+03  0.12499950869E+03 0.  0.
          2    1    1    2  501    0  0.11421420964E+03  0.10029319707E+03 -0.13568757887E+04  0.13653627785E+04  0.00000000000E+00 0. -1.
          1    1    1    2  502    0 -0.31955429640E+02 -0.41880452296E+02  0.34441185413E+02  0.62938994436E+02  0.00000000000E+00 0. -1.
         22    1    3    3    0    0 -0.16758123881E+02 -0.29131658412E+02 -0.21298368053E+03  0.21561896115E+03  0.00000000000E+00 0.  1.
         22    1    3    3    0    0 -0.65500656125E+02 -0.29281086362E+02 -0.34959235963E+02  0.79811441225E+02  0.00000000000E+00 0.  1.
</event>
<event>
 7    1  0.7961130E-006  0.6891151E+02  0.7818608E-02  0.1444368E+00
          2   -1    0    0  502    0  0.00000000000E+00  0.00000000000E+00  0.31172596788E+03  0.31172596788E+03  0.00000000000E+00 0. -1.
          1   -1    0    0  501    0 -0.00000000000E+00 -0.00000000000E+00 -0.12036943292E+04  0.12036943292E+04  0.00000000000E+00 0. -1.
         25    2    1    2    0    0  0.44809468458E+02 -0.42125307432E+02 -0.64697792099E+02  0.15360116163E+03  0.12500033024E+03 0.  0.
          2    1    1    2  501    0  0.23350024138E+02  0.28107980449E+02 -0.10897041580E+04  0.10903166669E+04  0.00000000000E+00 0. -1.
          1    1    1    2  502    0 -0.68159492597E+02  0.14017326983E+02  0.26243358880E+03  0.27150246852E+03  0.00000000000E+00 0. -1.
         22    1    3    3    0    0  0.24041912527E+01 -0.24508876769E+02  0.35602266842E+02  0.43289566645E+02  0.00000000000E+00 0. -1.
         22    1    3    3    0    0  0.42405277206E+02 -0.17616430663E+02 -0.10030005894E+03  0.11031159498E+03  0.00000000000E+00 0. -1.
</event>
<event>
 7    1  0.7961130E-006  0.2384791E+03  0.7818608E-02  0.1133913E+00
          2   -1    0    0  502    0  0.00000000000E+00  0.00000000000E+00  0.54116914308E+03  0.54116914308E+03  0.00000000000E+00 0. -1.
          1   -1    0    0  501    0 -0.00000000000E+00 -0.00000000000E+00 -0.13529316759E+04  0.13529316759E+04  0.00000000000E+00 0. -1.
         25    2    1    2    0    0 -0.55917737891E+02 -0.64301981392E+02 -0.54716552547E+02  0.16087066880E+03  0.12499573087E+03 0.  0.
          2    1    1    2  501    0  0.16354864775E+03  0.23627732418E+03 -0.12064255375E+04  0.12401764840E+04  0.00000000000E+00 0. -1.
          1    1    1    2  502    0 -0.10763090986E+03 -0.17197534279E+03  0.44937955719E+03  0.49305366615E+03  0.00000000000E+00 0. -1.
         22    1    3    3    0    0 -0.21584454141E+02 -0.95561480013E+02 -0.58799259792E+02  0.11425952072E+03  0.00000000000E+00 0.  1.
         22    1    3    3    0    0 -0.34333283751E+02  0.31259498621E+02  0.40827072443E+01  0.46611148083E+02  0.00000000000E+00 0.  1.
</event>
<event>
 7    1  0.7961130E-006  0.8639082E+02  0.7818608E-02  0.1384650E+00
          2   -1    0    0  502    0  0.00000000000E+00  0.00000000000E+00  0.27205796591E+02  0.27205796591E+02  0.00000000000E+00 0. -1.
          1   -1    0    0  501    0 -0.00000000000E+00 -0.00000000000E+00 -0.16950901936E+04  0.16950901936E+04  0.00000000000E+00 0. -1.
         25    2    1    2    0    0 -0.10121707134E+03 -0.66439129982E+02 -0.47299401018E+03  0.50400002051E+03  0.12503452919E+03 0.  0.
          2    1    1    2  501    0  0.55055535669E+02  0.62634018779E+02 -0.11524848062E+04  0.11554978844E+04  0.00000000000E+00 0. -1.
          1    1    1    2  502    0  0.46161535673E+02  0.38051112021E+01 -0.42405580641E+02  0.62798085293E+02  0.00000000000E+00 0. -1.
         22    1    3    3    0    0 -0.55389166874E+01 -0.49952233778E+02 -0.53445462700E+02  0.73364315172E+02  0.00000000000E+00 0.  1.
         22    1    3    3    0    0 -0.95678154654E+02 -0.16486896204E+02 -0.41954854748E+03  0.43063570534E+03  0.00000000000E+00 0.  1.
</event>
<event>
 7    1  0.7961130E-006  0.6496524E+02  0.7818608E-02  0.1422997E+00
          2   -1    0    0  502    0  0.00000000000E+00  0.00000000000E+00  0.10486376279E+04  0.10486376279E+04  0.00000000000E+00 0. -1.
          1   -1    0    0  501    0 -0.00000000000E+00 -0.00000000000E+00 -0.13598566354E+03  0.13598566354E+03  0.00000000000E+00 0. -1.
         25    2    1    2    0    0 -0.10329354197E+03  0.96894986874E+00  0.15112979199E+03  0.22166570065E+03  0.12499989656E+03 0.  0.
          2    1    1    2  501    0  0.41815293621E+02 -0.18036013800E+02 -0.94321207653E+02  0.10473923232E+03  0.00000000000E+00 0. -1.
          1    1    1    2  502    0  0.61478248351E+02  0.17067063931E+02  0.85584338001E+03  0.85821835846E+03  0.00000000000E+00 0. -1.
         22    1    3    3    0    0 -0.71239817146E+02  0.33626211658E+02  0.15687810063E+03  0.17554649560E+03  0.00000000000E+00 0. -1.
         22    1    3    3    0    0 -0.32053724825E+02 -0.32657261789E+02 -0.57483086406E+01  0.46119205056E+02  0.00000000000E+00 0. -1.
</event>
<event>
 7    1  0.7961130E-006  0.1118313E+03  0.7818608E-02  0.1334630E+00
          2   -1    0    0  502    0  0.00000000000E+00  0.00000000000E+00  0.22695614086E+04  0.22695614086E+04  0.00000000000E+00 0. -1.
          1   -1    0    0  501    0 -0.00000000000E+00 -0.00000000000E+00 -0.20555395218E+03  0.20555395218E+03  0.00000000000E+00 0. -1.
         25    2    1    2    0    0  0.97555117294E+02 -0.59336621050E+01  0.26290341731E+03  0.30707458962E+03  0.12499754998E+03 0.  0.
          2    1    1    2  501    0 -0.10259105565E+03 -0.48329196283E+02 -0.16553046215E+03  0.20065136384E+03  0.00000000000E+00 0. -1.
          1    1    1    2  502    0  0.50359383518E+01  0.54262858388E+02  0.19666345013E+04  0.19673894073E+04  0.00000000000E+00 0. -1.
         22    1    3    3    0    0  0.85681451486E+02 -0.34850377764E+02  0.82378248974E+02  0.12386297212E+03  0.00000000000E+00 0.  1.
         22    1    3    3    0    0  0.11873665809E+02  0.28916715659E+02  0.18052516834E+03  0.18321161750E+03  0.00000000000E+00 0.  1.
</event>
<event>
 7    1  0.7961130E-006  0.1158240E+03  0.7818608E-02  0.1417368E+00
          2   -1    0    0  502    0  0.00000000000E+00  0.00000000000E+00  0.52312490691E+02  0.52312490691E+02  0.00000000000E+00 0. -1.
          1   -1    0    0  501    0 -0.00000000000E+00 -0.00000000000E+00 -0.16445969795E+04  0.16445969795E+04  0.00000000000E+00 0. -1.
         25    2    1    2    0    0 -0.10105739670E+03  0.76519682251E+02 -0.54841714850E+03  0.57658863410E+03  0.12500090000E+03 0.  0.
          2    1    1    2  501    0  0.25073547429E+02  0.90960993329E+01 -0.99581673229E+03  0.99617387343E+03  0.00000000000E+00 0. -1.
          1    1    1    2  502    0  0.75983849270E+02 -0.85615781584E+02 -0.48050608013E+02  0.12414696265E+03  0.00000000000E+00 0. -1.
         22    1    3    3    0    0 -0.85636807657E+02  0.34658034080E+02 -0.50818842518E+03  0.51651749016E+03  0.00000000000E+00 0. -1.
         22    1    3    3    0    0 -0.15420589042E+02  0.41861648171E+02 -0.40228723320E+02  0.60071143937E+02  0.00000000000E+00 0. -1.
</event>
<event>
 7    1  0.7961130E-006  0.7573039E+02  0.7818608E-02  0.1347960E+00
          2   -1    0    0  502    0  0.00000000000E+00  0.00000000000E+00  0.62076310991E+03  0.62076310991E+03  0.00000000000E+00 0. -1.
          1   -1    0    0  501    0 -0.00000000000E+00 -0.00000000000E+00 -0.73659043020E+03  0.73659043020E+03  0.00000000000E+00 0. -1.
         25    2    1    2    0    0  0.11324087075E+03 -0.23690251750E+01 -0.14524661584E+03  0.22258486981E+03  0.12497334823E+03 0.  0.
          2    1    1    2  501    0 -0.55110175176E+02 -0.45889586436E+02 -0.54787646673E+03  0.55255009578E+03  0.00000000000E+00 0. -1.
          1    1    1    2  502    0 -0.58130695571E+02  0.48258611611E+02  0.57729576228E+03  0.58221857451E+03  0.00000000000E+00 0. -1.
         22    1    3    3    0    0 -0.16004989289E+02  0.29635144789E+02 -0.17043355816E+02  0.37747549143E+02  0.00000000000E+00 0. -1.
         22    1    3    3    0    0  0.12924586004E+03 -0.32004169964E+02 -0.12820326002E+03  0.18483732067E+03  0.00000000000E+00 0. -1.
</event>
<event>
 7    1  0.9482779E-006  0.6852454E+02  0.7818608E-02  0.1460076E+00
          2   -1    0    0  502    0  0.00000000000E+00  0.00000000000E+00  0.10853956047E+04  0.10853956047E+04  0.00000000000E+00 0. -1.
          1   -1    0    0  501    0 -0.00000000000E+00 -0.00000000000E+00 -0.12513555588E+04  0.12513555588E+04  0.00000000000E+00 0. -1.
         25    2    1    2    0    0 -0.54055601241E+02 -0.16096527005E+02 -0.35163798875E+03  0.37743289646E+03  0.12500083996E+03 0.  0.
          2    1    1    2  501    0  0.50933137088E+02  0.48691085573E+02 -0.88516980883E+03  0.88796993009E+03  0.00000000000E+00 0. -1.
          1    1    1    2  502    0  0.31224641531E+01 -0.32594558568E+02  0.10708478435E+04  0.10713483369E+04  0.00000000000E+00 0. -1.
         22    1    3    3    0    0 -0.88922758472E+02  0.13540511911E+02 -0.25758838486E+03  0.27284130635E+03  0.00000000000E+00 0. -1.
         22    1    3    3    0    0  0.34867157231E+02 -0.29637038916E+02 -0.94049603887E+02  0.10459159010E+03  0.00000000000E+00 0. -1.
</event>
<event>
 7    1  0.7961130E-006  0.2326666E+03  0.7818608E-02  0.1286857E+00
          2   -1    0    0  502    0  0.00000000000E+00  0.00000000000E+00  0.36770782503E+03  0.36770782503E+03  0.00000000000E+00 0. -1.
          1   -1    0    0  501    0 -0.00000000000E+00 -0.00000000000E+00 -0.96149891629E+03  0.96149891629E+03  0.00000000000E+00 0. -1.
         25    2    1    2    0    0  0.23194275869E+02 -0.23203279241E+03 -0.32986303672E+01  0.26459906973E+03  0.12499838220E+03 0.  0.
          2    1    1    2  501    0 -0.40384567208E+02 -0.82825600359E+00 -0.76939515521E+03  0.77045473854E+03  0.00000000000E+00 0. -1.
          1    1    1    2  502    0  0.17190291339E+02  0.23286104841E+03  0.17890269432E+03  0.29415293305E+03  0.00000000000E+00 0. -1.
         22    1    3    3    0    0  0.19513594522E+02 -0.12681966011E+03  0.60117035546E+02  0.14169708721E+03  0.00000000000E+00 0.  1.
         22    1    3    3    0    0  0.36806813470E+01 -0.10521313230E+03 -0.63415665913E+02  0.12290198252E+03  0.00000000000E+00 0.  1.
</event>
<event>
 7    1  0.7961130E-006  0.4687189E+02  0.7818608E-02  0.1473661E+00
          2   -1    0    0  502    0  0.00000000000E+00  0.00000000000E+00  0.12710760180E+04  0.12710760180E+04  0.00000000000E+00 0. -1.
          1   -1    0    0  501    0 -0.00000000000E+00 -0.00000000000E+00 -0.21660516673E+02  0.21660516673E+02  0.00000000000E+00 0. -1.
         25    2    1    2    0    0  0.40680176748E+02 -0.34819730657E+02  0.57299258451E+03  0.58890831496E+03  0.12500084441E+03 0.  0.
          2    1    1    2  501    0  0.67098870625E+01  0.42891190321E+02  0.23938853693E+02  0.49575654385E+02  0.00000000000E+00 0. -1.
          1    1    1    2  502    0 -0.47390063811E+02 -0.80714596641E+01  0.65248406310E+03  0.65425256530E+03  0.00000000000E+00 0. -1.
         22    1    3    3    0    0 -0.35442643410E+02 -0.20442965318E+02  0.35901564517E+03  0.36133963148E+03  0.00000000000E+00 0. -1.
         22    1    3    3    0    0  0.76122820158E+02 -0.14376765339E+02  0.21397693934E+03  0.22756868348E+03  0.00000000000E+00 0. -1.
</event>
<event>
 7    1  0.7961130E-006  0.1630976E+03  0.7818608E-02  0.1310180E+00
          2   -1    0    0  502    0  0.00000000000E+00  0.00000000000E+00  0.73476196392E+03  0.73476196392E+03  0.00000000000E+00 0. -1.
          1   -1    0    0  501    0 -0.00000000000E+00 -0.00000000000E+00 -0.96194054227E+03  0.96194054227E+03  0.00000000000E+00 0. -1.
         25    2    1    2    0    0  0.18920914156E+01 -0.12290805529E+03 -0.47932957986E+02  0.18173827991E+03  0.12498505453E+03 0.  0.
          2    1    1    2  501    0  0.18382319842E+02 -0.42659275040E+02 -0.83603491616E+03  0.83732437231E+03  0.00000000000E+00 0. -1.
          1    1    1    2  502    0 -0.20274411258E+02  0.16556733033E+03  0.65678929579E+03  0.67763985397E+03  0.00000000000E+00 0. -1.
         22    1    3    3    0    0  0.52956430689E+02 -0.10611502318E+03 -0.48113673804E+02  0.12798323055E+03  0.00000000000E+00 0. -1.
         22    1    3    3    0    0 -0.51064339273E+02 -0.16793032114E+02  0.18071581851E+00  0.53755049356E+02  0.00000000000E+00 0. -1.
</event>
<event>
 7    1  0.7961130E-006  0.6862707E+03  0.7818608E-02  0.1143306E+00
          2   -1    0    0  502    0  0.00000000000E+00  0.00000000000E+00  0.26569448755E+04  0.26569448755E+04  0.00000000000E+00 0. -1.
          1   -1    0    0  501    0 -0.00000000000E+00 -0.00000000000E+00 -0.12029699192E+04  0.12029699192E+04  0.00000000000E+00 0. -1.
         25    2    1    2    0    0  0.66993468591E+03 -0.29082602377E+03 -0.42110519848E+03  0.85225989817E+03  0.12500034544E+03 0.  0.
          2    1    1    2  501    0 -0.28475922353E+02  0.56120240015E+02 -0.51656424035E+03  0.52038348735E+03  0.00000000000E+00 0. -1.
          1    1    1    2  502    0 -0.64145876355E+03  0.23470578375E+03  0.23916443952E+04  0.24872714092E+04  0.00000000000E+00 0. -1.
         22    1    3    3    0    0  0.83803108896E+02 -0.12469956726E+02 -0.12990873072E+02  0.85715947551E+02  0.00000000000E+00 0. -1.
         22    1    3    3    0    0  0.58613157701E+03 -0.27835606704E+03 -0.40811432541E+03  0.76654395062E+03  0.00000000000E+00 0. -1.
</event>
<event>
 7    1  0.7961130E-006  0.6552189E+02  0.7818608E-02  0.1402616E+00
          2   -1    0    0  502    0  0.00000000000E+00  0.00000000000E+00  0.45792061884E+03  0.45792061884E+03  0.00000000000E+00 0. -1.
          1   -1    0    0  501    0 -0.00000000000E+00 -0.00000000000E+00 -0.10169985434E+04  0.10169985434E+04  0.00000000000E+00 0. -1.
         25    2    1    2    0    0 -0.28296105876E+02 -0.20344841606E+02 -0.11890313012E+03  0.17601014146E+03  0.12500813315E+03 0.  0.
          2    1    1    2  501    0  0.26275101684E+02 -0.45915056234E+02 -0.86617141530E+03  0.86778539631E+03  0.00000000000E+00 0. -1.
          1    1    1    2  502    0  0.20210041919E+01  0.66259897839E+02  0.42599662091E+03  0.43112362443E+03  0.00000000000E+00 0. -1.
         22    1    3    3    0    0  0.38332711355E+02  0.14471749069E+02 -0.83293359201E+02  0.92825707473E+02  0.00000000000E+00 0.  1.
         22    1    3    3    0    0 -0.66628817231E+02 -0.34816590675E+02 -0.35609770923E+02  0.83184433982E+02  0.00000000000E+00 0.  1.
</event>
<event>
 7    1  0.7961130E-006  0.4458968E+02  0.7818608E-02  0.1554246E+00
          2   -1    0    0  502    0  0.00000000000E+00  0.00000000000E+00  0.50263368787E+03  0.50263368787E+03  0.00000000000E+00 0. -1.
          1   -1    0    0  501    0 -0.00000000000E+00 -0.00000000000E+00 -0.50279960361E+02  0.50279960361E+02  0.00000000000E+00 0. -1.
         25    2    1    2    0    0 -0.27790973943E+02  0.65215321798E+00  0.18761876716E+03  0.22715346456E+03  0.12500052454E+03 0.  0.
          2    1    1    2  501    0 -0.12942110475E+02 -0.23120459268E+02 -0.22513443447E+02  0.34769368648E+02  0.00000000000E+00 0. -1.
          1    1    1    2  502    0  0.40733084419E+02  0.22468306050E+02  0.28724840380E+03  0.29099081503E+03  0.00000000000E+00 0. -1.
         22    1    3    3    0    0 -0.25116732724E+02 -0.59165294258E+02  0.69128790908E+02  0.94393707628E+02  0.00000000000E+00 0. -1.
         22    1    3    3    0    0 -0.26742412195E+01  0.59817447476E+02  0.11848997625E+03  0.13275975693E+03  0.00000000000E+00 0. -1.
</event>
<event>
 7    1  0.7961130E-006  0.1087777E+03  0.7818608E-02  0.1300879E+00
          2   -1    0    0  502    0  0.00000000000E+00  0.00000000000E+00  0.34640018773E+03  0.34640018773E+03  0.00000000000E+00 0. -1.
          1   -1    0    0  501    0 -0.00000000000E+00 -0.00000000000E+00 -0.27733972243E+04  0.27733972243E+04  0.00000000000E+00 0. -1.
         25    2    1    2    0    0 -0.13304593769E+03 -0.12671702877E+03  0.22632717610E+03  0.31718578430E+03  0.12499761679E+03 0.  0.
          2    1    1    2  501    0  0.73461355462E+02  0.79820163301E+02 -0.27073403863E+04  0.27095128338E+04  0.00000000000E+00 0. -1.
          1    1    1    2  502    0  0.59584582227E+02  0.46896865466E+02  0.54016173595E+02  0.93098793975E+02  0.00000000000E+00 0. -1.
         22    1    3    3    0    0 -0.15155786823E+03 -0.10212323292E+03  0.15549267407E+03  0.23995189896E+03  0.00000000000E+00 0. -1.
         22    1    3    3    0    0  0.18511930539E+02 -0.24593795847E+02  0.70834502034E+02  0.77233885341E+02  0.00000000000E+00 0. -1.
</event>
<event>
 7    1  0.7961130E-006  0.7210777E+02  0.7818608E-02  0.1413809E+00
          2   -1    0    0  502    0  0.00000000000E+00  0.00000000000E+00  0.10204832174E+04  0.10204832174E+04  0.00000000000E+00 0. -1.
          1   -1    0    0  501    0 -0.00000000000E+00 -0.00000000000E+00 -0.16321617804E+04  0.16321617804E+04  0.00000000000E+00 0. -1.
         25    2    1    2    0    0  0.26381997435E+02 -0.33580311571E+02  0.56490264609E+03  0.58013164912E+03  0.12495632691E+03 0.  0.
          2    1    1    2  501    0 -0.48481349515E+01  0.71996300950E+02 -0.16226611173E+04  0.16242647793E+04  0.00000000000E+00 0. -1.
          1    1    1    2  502    0 -0.21533862483E+02 -0.38415989379E+02  0.44607990820E+03  0.44824856941E+03  0.00000000000E+00 0. -1.
         22    1    3    3    0    0 -0.21965630386E+02 -0.34458944900E+02  0.58125119892E+02  0.71052356501E+02  0.00000000000E+00 0.  1.
         22    1    3    3    0    0  0.48347627821E+02  0.87863332916E+00  0.50677752620E+03  0.50907929262E+03  0.00000000000E+00 0.  1.
</event>
<event>
 7    1  0.7961130E-006  0.5298836E+02  0.7818608E-02  0.1556159E+00
          2   -1    0    0  502    0  0.00000000000E+00  0.00000000000E+00  0.42168258776E+02  0.42168258776E+02  0.00000000000E+00 0. -1.
          1   -1    0    0  501    0 -0.00000000000E+00 -0.00000000000E+00 -0.78532638821E+03  0.78532638821E+03  0.00000000000E+00 0. -1.
         25    2    1    2    0    0 -0.69346920301E+02  0.11493569362E+02 -0.28476195870E+03  0.31883720446E+03  0.12500676915E+03 0.  0.
          2    1    1    2  501    0  0.51644907138E+02  0.16133134881E+01 -0.47702170850E+03  0.47981195232E+03  0.00000000000E+00 0. -1.
          1    1    1    2  502    0  0.17702013164E+02 -0.13106882850E+02  0.18625537763E+02  0.28845490204E+02  0.00000000000E+00 0. -1.
         22    1    3    3    0    0 -0.82620173124E+02 -0.11865496888E+02 -0.92036744293E+02  0.12424832121E+03  0.00000000000E+00 0.  1.
         22    1    3    3    0    0  0.13273252822E+02  0.23359066250E+02 -0.19272521441E+03  0.19458888325E+03  0.00000000000E+00 0.  1.
</event>
<event>
 7    1  0.7961130E-006  0.1006306E+03  0.7818608E-02  0.1422674E+00
          2   -1    0    0  502    0  0.00000000000E+00  0.00000000000E+00  0.40909907962E+03  0.40909907962E+03  0.00000000000E+00 0. -1.
          1   -1    0    0  501    0 -0.00000000000E+00 -0.00000000000E+00 -0.52977640941E+03  0.52977640941E+03  0.00000000000E+00 0. -1.
         25    2    1    2    0    0 -0.24377479250E+02 -0.77497085039E+02 -0.20921595149E+02  0.15055668426E+03  0.12501816807E+03 0.  0.
          2    1    1    2  501    0  0.16085740576E+02 -0.24695241907E+02 -0.43589530995E+03  0.43689052090E+03  0.00000000000E+00 0. -1.
          1    1    1    2  502    0  0.82917386749E+01  0.10219232695E+03  0.33613957530E+03  0.35142828387E+03  0.00000000000E+00 0. -1.
         22    1    3    3    0    0  0.21941530695E+02 -0.60568460215E+02  0.37154663409E+02  0.74366915729E+02  0.00000000000E+00 0. -1.
         22    1    3    3    0    0 -0.46319009945E+02 -0.16928624824E+02 -0.58076258558E+02  0.76189768531E+02  0.00000000000E+00 0. -1.
</event>
<event>
 7    1  0.7961130E-006  0.6308740E+02  0.7818608E-02  0.1434794E+00
          2   -1    0    0  502    0  0.00000000000E+00  0.00000000000E+00  0.10362463643E+04  0.10362463643E+04  0.00000000000E+00 0. -1.
          1   -1    0    0  501    0 -0.00000000000E+00 -0.00000000000E+00 -0.14546678886E+03  0.14546678886E+03  0.00000000000E+00 0. -1.
         25    2    1    2    0    0 -0.86713091703E+02  0.43062662681E+02  0.84654776784E+03  0.86118580844E+03  0.12499728087E+03 0.  0.
          2    1    1    2  501    0  0.43879488136E+02 -0.44990482561E+02 -0.12823707121E+03  0.14280861120E+03  0.00000000000E+00 0. -1.
          1    1    1    2  502    0  0.42833603567E+02  0.19278198800E+01  0.17246887885E+03  0.17771873356E+03  0.00000000000E+00 0. -1.
         22    1    3    3    0    0  0.11809786682E+02  0.54182797122E+02  0.22225536404E+03  0.22906918913E+03  0.00000000000E+00 0.  1.
         22    1    3    3    0    0 -0.98522878385E+02 -0.11120134441E+02  0.62429240381E+03  0.63211661931E+03  0.00000000000E+00 0.  1.
</event>
<event>
 7    1  0.7961130E-006  0.1101237E+03  0.7818608E-02  0.1367861E+00
          2   -1    0    0  502    0  0.00000000000E+00  0.00000000000E+00  0.99468678819E+03  0.99468678819E+03  0.00000000000E+00 0. -1.
          1   -1    0    0  501    0 -0.00000000000E+00 -0.00000000000E+00 -0.28650792039E+03  0.28650792039E+03  0.00000000000E+00 0. -1.
         25    2    1    2    0    0  0.81211072388E+02  0.36031048285E+02 -0.21205292812E+03  0.26169666891E+03  0.12500090990E+03 0.  0.
          2    1    1    2  501    0  0.29102207909E+02 -0.29865337328E+02 -0.37098206939E+02  0.55813563199E+02  0.00000000000E+00 0. -1.
          1    1    1    2  502    0 -0.11031328030E+03 -0.61657109570E+01  0.95733000286E+03  0.96368447647E+03  0.00000000000E+00 0. -1.
         22    1    3    3    0    0  0.22532291180E+02 -0.46700101842E+02 -0.67811836413E+02  0.85364212733E+02  0.00000000000E+00 0. -1.
         22    1    3    3    0    0  0.58678781208E+02  0.82731150127E+02 -0.14424109171E+03  0.17633245618E+03  0.00000000000E+00 0. -1.
</event>
<event>
 7    1  0.7961130E-006  0.1324659E+03  0.7818608E-02  0.1257614E+00
          2   -1    0    0  502    0  0.00000000000E+00  0.00000000000E+00  0.16939945976E+03  0.16939945976E+03  0.00000000000E+00 0. -1.
          1   -1    0    0  501    0 -0.00000000000E+00 -0.00000000000E+00 -0.47806848160E+03  0.47806848160E+03  0.00000000000E+00 0. -1.
         25    2    1    2    0    0  0.16919194592E+03  0.15928030186E+02 -0.11388135538E+03  0.23973641709E+03  0.12499987946E+03 0.  0.
          2    1    1    2  501    0 -0.10057765321E+03 -0.80237880252E+02 -0.26217169138E+03  0.29204105450E+03  0.00000000000E+00 0. -1.
          1    1    1    2  502    0 -0.68614292707E+02  0.64309850066E+02  0.67384024929E+02  0.11569046977E+03  0.00000000000E+00 0. -1.
         22    1    3    3    0    0  0.16406972352E+03  0.20443680699E+02 -0.13756777509E+03  0.21508535747E+03  0.00000000000E+00 0. -1.
         22    1    3    3    0    0  0.51222223933E+01 -0.45156505132E+01  0.23686419703E+02  0.24651059615E+02  0.00000000000E+00 0. -1.
</event>
<event>
 7    1  0.7961130E-006  0.6223503E+02  0.7818608E-02  0.1502685E+00
          2   -1    0    0  502    0  0.00000000000E+00  0.00000000000E+00  0.18392599214E+03  0.18392599214E+03  0.00000000000E+00 0. -1.
          1   -1    0    0  501    0 -0.00000000000E+00 -0.00000000000E+00 -0.38784831808E+03  0.38784831808E+03  0.00000000000E+00 0. -1.
         25    2    1    2    0    0  0.74827494774E+02 -0.12819614070E+02 -0.20303127044E+03  0.25022106595E+03  0.12500155435E+03 0.  0.
          2    1    1    2  501    0 -0.13678359485E+02  0.22926170951E+02 -0.15404109369E+03  0.15633734480E+03  0.00000000000E+00 0. -1.
          1    1    1    2  502    0 -0.61149135289E+02 -0.10106556881E+02  0.15315003819E+03  0.16521589947E+03  0.00000000000E+00 0. -1.
         22    1    3    3    0    0  0.75259857625E+02  0.43378557547E+02 -0.96954627090E+02  0.13017659213E+03  0.00000000000E+00 0. -1.
         22    1    3    3    0    0 -0.43236285099E+00 -0.56198171617E+02 -0.10607664335E+03  0.12004447382E+03  0.00000000000E+00 0. -1.
</event>
<event>
 7    1  0.7961130E-006  0.5894766E+02  0.7818608E-02  0.1491670E+00
          2   -1    0    0  502    0  0.00000000000E+00  0.00000000000E+00  0.98761399060E+03  0.98761399060E+03  0.00000000000E+00 0. -1.
          1   -1    0    0  501    0 -0.00000000000E+00 -0.00000000000E+00 -0.86359149570E+02  0.86359149570E+02  0.00000000000E+00 0. -1.
         25    2    1    2    0    0 -0.27475299200E+02 -0.55559683696E+02  0.14305920664E+03  0.19983151074E+03  0.12499970224E+03 0.  0.
          2    1    1    2  501    0  0.30209007200E+02 -0.34929621114E+01 -0.52833782663E+02  0.60960589652E+02  0.00000000000E+00 0. -1.
          1    1    1    2  502    0 -0.27337079996E+01  0.59052645808E+02  0.81102941705E+03  0.81318103978E+03  0.00000000000E+00 0. -1.
         22    1    3    3    0    0 -0.32089212102E+02  0.35715822547E+02  0.45419203616E+02  0.66092674107E+02  0.00000000000E+00 0.  1.
         22    1    3    3    0    0  0.46139129016E+01 -0.91275506243E+02  0.97640003023E+02  0.13373883663E+03  0.00000000000E+00 0.  1.
</event>
<event>
 7    1  0.7961130E-006  0.8828781E+02  0.7818608E-02  0.1398856E+00
          2   -1    0    0  502    0  0.00000000000E+00  0.00000000000E+00  0.16965871168E+03  0.16965871168E+03  0.00000000000E+00 0. -1.
          1   -1    0    0  501    0 -0.00000000000E+00 -0.00000000000E+00 -0.12612261085E+04  0.12612261085E+04  0.00000000000E+00 0. -1.
         25    2    1    2    0    0 -0.37898162853E+02  0.10398924023E+03 -0.13698819869E+03  0.21596551740E+03  0.12500122117E+03 0.  0.
          2    1    1    2  501    0  0.36654919761E+02 -0.17095528050E+02 -0.10698201875E+04  0.10705844543E+04  0.00000000000E+00 0. -1.
          1    1    1    2  502    0  0.12432430926E+01 -0.86893712176E+02  0.11524098934E+03  0.14433484851E+03  0.00000000000E+00 0. -1.
         22    1    3    3    0    0  0.10613079455E+02  0.82366588138E+02 -0.13998862749E+03  0.16276887947E+03  0.00000000000E+00 0.  1.
         22    1    3    3    0    0 -0.48511242308E+02  0.21622652089E+02  0.30004288037E+01  0.53196637926E+02  0.00000000000E+00 0.  1.
</event>
<event>
 7    1  0.7961130E-006  0.9480570E+02  0.7818608E-02  0.1312080E+00
          2   -1    0    0  502    0  0.00000000000E+00  0.00000000000E+00  0.15388098123E+04  0.15388098123E+04  0.00000000000E+00 0. -1.
          1   -1    0    0  501    0 -0.00000000000E+00 -0.00000000000E+00 -0.51104433372E+03  0.51104433372E+03  0.00000000000E+00 0. -1.
         25    2    1    2    0    0  0.78312877607E+02  0.22292212137E+02  0.10073559421E+03  0.18001793095E+03  0.12501578301E+03 0.  0.
          2    1    1    2  501    0  0.25453960112E+00 -0.78547849639E+02 -0.46644624004E+03  0.47301366188E+03  0.00000000000E+00 0. -1.
          1    1    1    2  502    0 -0.78567417208E+02  0.56255637502E+02  0.13934761244E+04  0.13968225532E+04  0.00000000000E+00 0. -1.
         22    1    3    3    0    0  0.72857493461E+02 -0.22228487844E+02  0.74838539214E+01  0.76539715800E+02  0.00000000000E+00 0. -1.
         22    1    3    3    0    0  0.54553841463E+01  0.44520699982E+02  0.93251740291E+02  0.10347821515E+03  0.00000000000E+00 0. -1.
</event>
<event>
 7    1  0.7961130E-006  0.3841409E+02  0.7818608E-02  0.1561394E+00
          2   -1    0    0  502    0  0.00000000000E+00  0.00000000000E+00  0.20523005381E+03  0.20523005381E+03  0.00000000000E+00 0. -1.
          1   -1    0    0  501    0 -0.00000000000E+00 -0.00000000000E+00 -0.11021475679E+04  0.11021475679E+04  0.00000000000E+00 0. -1.
         25    2    1    2    0    0 -0.53175819550E+01 -0.65951759809E+02  0.64379168820E+02  0.15539467612E+03  0.12499966676E+03 0.  0.
          2    1    1    2  501    0  0.10148453611E+02  0.36961872624E+02 -0.10540183067E+04  0.10547150146E+04  0.00000000000E+00 0. -1.
          1    1    1    2  502    0 -0.48308716556E+01  0.28989887185E+02  0.92721623792E+02  0.97267930987E+02  0.00000000000E+00 0. -1.
         22    1    3    3    0    0  0.18781218443E+02 -0.51985339876E+02  0.97524990252E+02  0.11209965857E+03  0.00000000000E+00 0.  1.
         22    1    3    3    0    0 -0.24098800398E+02 -0.13966419932E+02 -0.33145821432E+02  0.43295017551E+02  0.00000000000E+00 0.  1.
</event>
<event>
 7    1  0.7961130E-006  0.1091526E+03  0.7818608E-02  0.1353582E+00
          2   -1    0    0  502    0  0.00000000000E+00  0.00000000000E+00  0.16176283908E+04  0.16176283908E+04  0.00000000000E+00 0. -1.
          1   -1    0    0  501    0 -0.00000000000E+00 -0.00000000000E+00 -0.13444726894E+03  0.13444726894E+03  0.00000000000E+00 0. -1.
         25    2    1    2    0    0  0.14099016887E+03  0.12382641048E+02  0.35162762082E+03  0.39912226161E+03  0.12500015389E+03 0.  0.
          2    1    1    2  501    0 -0.36140468253E+02 -0.30713324124E+02 -0.10322303230E+03  0.11359769417E+03  0.00000000000E+00 0. -1.
          1    1    1    2  502    0 -0.10484970061E+03  0.18330683076E+02  0.12347765334E+04  0.12393557040E+04  0.00000000000E+00 0. -1.
         22    1    3    3    0    0  0.11970911620E+03 -0.22389102816E+02  0.14901994115E+03  0.19245385756E+03  0.00000000000E+00 0. -1.
         22    1    3    3    0    0  0.21281052661E+02  0.34771743865E+02  0.20260767967E+03  0.20666840405E+03  0.00000000000E+00 0. -1.
</event>
<event>
 7    1  0.7961130E-006  0.1415204E+03  0.7818608E-02  0.1259683E+00
          2   -1    0    0  502    0  0.00000000000E+00  0.00000000000E+00  0.39989695977E+03  0.39989695977E+03  0.00000000000E+00 0. -1.
          1   -1    0    0  501    0 -0.00000000000E+00 -0.00000000000E+00 -0.39517776329E+03  0.39517776329E+03  0.00000000000E+00 0. -1.
         25    2    1    2    0    0  0.19492981450E+03  0.29825837170E+02  0.19837966392E+03  0.30637723488E+03  0.12500122341E+03 0.  0.
          2    1    1    2  501    0 -0.85311761909E+02  0.12676643424E+02 -0.31091239065E+03  0.32265354278E+03  0.00000000000E+00 0. -1.
          1    1    1    2  502    0 -0.10961805259E+03 -0.42502480593E+02  0.11725192320E+03  0.16604394540E+03  0.00000000000E+00 0. -1.
         22    1    3    3    0    0  0.23925441102E+02 -0.59808320723E+01  0.10582942733E+03  0.10866491970E+03  0.00000000000E+00 0. -1.
         22    1    3    3    0    0  0.17100437340E+03  0.35806669242E+02  0.92550236595E+02  0.19771231519E+03  0.00000000000E+00 0. -1.
</event>
<event>
 7    1  0.7961130E-006  0.1281923E+03  0.7818608E-02  0.1413877E+00
          2   -1    0    0  502    0  0.00000000000E+00  0.00000000000E+00  0.20693770336E+04  0.20693770336E+04  0.00000000000E+00 0. -1.
          1   -1    0    0  501    0 -0.00000000000E+00 -0.00000000000E+00 -0.43848705597E+02  0.43848705597E+02  0.00000000000E+00 0. -1.
         25    2    1    2    0    0  0.17705340158E+02 -0.10985389860E+03  0.14121281096E+04  0.14220100157E+04  0.12500131441E+03 0.  0.
          2    1    1    2  501    0 -0.38146560101E+02  0.12382427542E+03  0.70029413125E+02  0.14728112551E+03  0.00000000000E+00 0. -1.
          1    1    1    2  502    0  0.20441219943E+02 -0.13970376816E+02  0.54337080526E+03  0.54393459800E+03  0.00000000000E+00 0. -1.
         22    1    3    3    0    0 -0.39876694868E+02 -0.22408099872E+02  0.77391154357E+03  0.77526211761E+03  0.00000000000E+00 0. -1.
         22    1    3    3    0    0  0.57582035026E+02 -0.87445798727E+02  0.63821656606E+03  0.64674789808E+03  0.00000000000E+00 0. -1.
</event>
<event>
 7    1  0.7961130E-006  0.1501853E+03  0.7818608E-02  0.1290380E+00
          2   -1    0    0  502    0  0.00000000000E+00  0.00000000000E+00  0.41381227933E+03  0.41381227933E+03  0.00000000000E+00 0. -1.
          1   -1    0    0  501    0 -0.00000000000E+00 -0.00000000000E+00 -0.11301076526E+04  0.11301076526E+04  0.00000000000E+00 0. -1.
         25    2    1    2    0    0 -0.94395628112E+02 -0.15598083757E+03 -0.76748649060E+03  0.79868753479E+03  0.12500283472E+03 0.  0.
          2    1    1    2  501    0  0.47445483645E+02  0.11775825421E+03 -0.33295831590E+03  0.35634157838E+03  0.00000000000E+00 0. -1.
          1    1    1    2  502    0  0.46950144467E+02  0.38222583362E+02  0.38414943318E+03  0.38889081881E+03  0.00000000000E+00 0. -1.
         22    1    3    3    0    0 -0.11990085606E+03 -0.10489936394E+03 -0.62970318685E+03  0.64954306660E+03  0.00000000000E+00 0. -1.
         22    1    3    3    0    0  0.25505227948E+02 -0.51081473629E+02 -0.13778330375E+03  0.14914446819E+03  0.00000000000E+00 0. -1.
</event>
<event>
 7    1  0.7961130E-006  0.1350374E+03  0.7818608E-02  0.1412853E+00
          2   -1    0    0  502    0  0.00000000000E+00  0.00000000000E+00  0.11796187658E+04  0.11796187658E+04  0.00000000000E+00 0. -1.
          1   -1    0    0  501    0 -0.00000000000E+00 -0.00000000000E+00 -0.10717448975E+04  0.10717448975E+04  0.00000000000E+00 0. -1.
         25    2    1    2    0    0 -0.87441218807E+02 -0.11156853534E+03  0.53269284898E+03  0.56522549326E+03  0.12499872819E+03 0.  0.
          2    1    1    2  501    0  0.64769935539E+02  0.11844705844E+03 -0.10509368928E+04  0.10595721791E+04  0.00000000000E+00 0. -1.
          1    1    1    2  502    0  0.22671283268E+02 -0.68785231036E+01  0.62611791207E+03  0.62656599092E+03  0.00000000000E+00 0. -1.
         22    1    3    3    0    0 -0.54566182991E+02 -0.92706923818E+02  0.17422392679E+03  0.20475843992E+03  0.00000000000E+00 0.  1.
         22    1    3    3    0    0 -0.32875035816E+02 -0.18861611519E+02  0.35846892219E+03  0.36046705334E+03  0.00000000000E+00 0.  1.
</event>
<event>
 7    1  0.7961130E-006  0.1160125E+03  0.7818608E-02  0.1420598E+00
          2   -1    0    0  502    0  0.00000000000E+00  0.00000000000E+00  0.60642770024E+03  0.60642770024E+03  0.00000000000E+00 0. -1.
          1   -1    0    0  501    0 -0.00000000000E+00 -0.00000000000E+00 -0.18245651620E+03  0.18245651620E+03  0.00000000000E+00 0. -1.
         25    2    1    2    0    0 -0.79330769704E+02  0.54044016649E+02  0.11599580595E+03  0.19569545174E+03  0.12501022389E+03 0.  0.
          2    1    1    2  501    0 -0.25597430195E+02  0.44121341822E+01 -0.13332635436E+03  0.13583303033E+03  0.00000000000E+00 0. -1.
          1    1    1    2  502    0  0.10492819990E+03 -0.58456150831E+02  0.44130173244E+03  0.45735573437E+03  0.00000000000E+00 0. -1.
         22    1    3    3    0    0  0.80415112268E+01 -0.33081284099E+02  0.29002153227E+02  0.44723172431E+02  0.00000000000E+00 0.  1.
         22    1    3    3    0    0 -0.87372280931E+02  0.87125300748E+02  0.86993652728E+02  0.15097227931E+03  0.00000000000E+00 0.  1.
</event>
<event>
 7    1  0.7961130E-006  0.5982524E+02  0.7818608E-02  0.1449242E+00
          2   -1    0    0  502    0  0.00000000000E+00  0.00000000000E+00  0.96276525098E+02  0.96276525098E+02  0.00000000000E+00 0. -1.
          1   -1    0    0  501    0 -0.00000000000E+00 -0.00000000000E+00 -0.38978187927E+03  0.38978187927E+03  0.00000000000E+00 0. -1.
         25    2    1    2    0    0 -0.14922406649E+02  0.67075031855E+02 -0.11305578846E+03  0.18201247962E+03  0.12500077325E+03 0.  0.
          2    1    1    2  501    0  0.45042931750E+02 -0.39851567815E+02 -0.23129126695E+03  0.23898255862E+03  0.00000000000E+00 0. -1.
          1    1    1    2  502    0 -0.30120525101E+02 -0.27223464040E+02  0.50841701241E+02  0.65063366127E+02  0.00000000000E+00 0. -1.
         22    1    3    3    0    0 -0.36542010048E+02  0.73095422172E+01  0.14111022248E+02  0.39848072157E+02  0.00000000000E+00 0.  1.
         22    1    3    3    0    0  0.21619603399E+02  0.59765489638E+02 -0.12716681071E+03  0.14216440746E+03  0.00000000000E+00 0.  1.
</event>
<event>
 7    1  0.7961130E-006  0.6297331E+02  0.7818608E-02  0.1541267E+00
          2   -1    0    0  502    0  0.00000000000E+00  0.00000000000E+00  0.85784729722E+01  0.85784729722E+01  0.00000000000E+00 0. -1.
          1   -1    0    0  501    0 -0.00000000000E+00 -0.00000000000E+00 -0.17939935150E+04  0.17939935150E+04  0.00000000000E+00 0. -1.
         25    2    1    2    0    0 -0.96782559228E+01 -0.72762755801E+02 -0.99728045953E+03  0.10077600749E+04  0.12499586490E+03 0.  0.
          2    1    1    2  501    0  0.15956080607E+02  0.12706526880E+02 -0.50011013374E+03  0.50052592160E+03  0.00000000000E+00 0. -1.
          1    1    1    2  502    0 -0.62778246843E+01  0.60056228922E+02 -0.28802444875E+03  0.29428599150E+03  0.00000000000E+00 0. -1.
         22    1    3    3    0    0  0.27093716719E+02  0.23445037963E+02 -0.40584425386E+03  0.40742275057E+03  0.00000000000E+00 0.  1.
         22    1    3    3    0    0 -0.36771972642E+02 -0.96207793764E+02 -0.59143620567E+03  0.60033732428E+03  0.00000000000E+00 0.  1.
</event>
<event>
 7    1  0.7961130E-006  0.5471680E+02  0.7818608E-02  0.1447547E+00
          2   -1    0    0  502    0  0.00000000000E+00  0.00000000000E+00  0.22318710417E+04  0.22318710417E+04  0.00000000000E+00 0. -1.
          1   -1    0    0  501    0 -0.00000000000E+00 -0.00000000000E+00 -0.50787421539E+02  0.50787421539E+02  0.00000000000E+00 0. -1.
         25    2    1    2    0    0  0.75409752636E+01  0.34478512135E+02  0.28548181438E+03  0.31364128968E+03  0.12500143258E+03 0.  0.
          2    1    1    2  501    0  0.43350509526E+02 -0.11883841895E+02 -0.22389798800E+02  0.50217481664E+02  0.00000000000E+00 0. -1.
          1    1    1    2  502    0 -0.50891484790E+02 -0.22594670239E+02  0.19179916046E+04  0.19187996919E+04  0.00000000000E+00 0. -1.
         22    1    3    3    0    0  0.15540319834E+02 -0.44743576650E+02  0.76170939795E+02  0.89696718230E+02  0.00000000000E+00 0.  1.
         22    1    3    3    0    0 -0.79993445702E+01  0.79222088785E+02  0.20931087458E+03  0.22394457145E+03  0.00000000000E+00 0.  1.
</event>
<event>
 7    1  0.7961130E-006  0.5594262E+02  0.7818608E-02  0.1462332E+00
          2   -1    0    0  502    0  0.00000000000E+00  0.00000000000E+00  0.56011141761E+03  0.56011141761E+03  0.00000000000E+00 0. -1.
          1   -1    0    0  501    0 -0.00000000000E+00 -0.00000000000E+00 -0.15268193354E+03  0.15268193354E+03  0.00000000000E+00 0. -1.
         25    2    1    2    0    0  0.43567152877E+01 -0.44804828571E+02 -0.11674554009E+02  0.13337025376E+03  0.12499950298E+03 0.  0.
          2    1    1    2  501    0 -0.43622062349E+02  0.40917567634E+02 -0.68093530270E+02  0.90630351038E+02  0.00000000000E+00 0. -1.
          1    1    1    2  502    0  0.39265347061E+02  0.38872609368E+01  0.48719756835E+03  0.48879274635E+03  0.00000000000E+00 0. -1.
         22    1    3    3    0    0  0.38575178982E+02  0.14034408645E+02  0.32387635807E+02  0.52287359971E+02  0.00000000000E+00 0.  1.
         22    1    3    3    0    0 -0.34218463695E+02 -0.58839237216E+02 -0.44062189816E+02  0.81082893789E+02  0.00000000000E+00 0.  1.
</event>
<event>
 7    1  0.7961130E-006  0.1048238E+03  0.7818608E-02  0.1333260E+00
          2   -1    0    0  502    0  0.00000000000E+00  0.00000000000E+00  0.40471208560E+03  0.40471208560E+03  0.00000000000E+00 0. -1.
          1   -1    0    0  501    0 -0.00000000000E+00 -0.00000000000E+00 -0.46644302197E+03  0.46644302197E+03  0.00000000000E+00 0. -1.
         25    2    1    2    0    0 -0.93907300767E+02 -0.35629751854E+02  0.54478689716E+02  0.16935544334E+03  0.12500111280E+03 0.  0.
          2    1    1    2  501    0  0.62708097032E+02  0.85516893135E+02 -0.39905201567E+03  0.41290187170E+03  0.00000000000E+00 0. -1.
          1    1    1    2  502    0  0.31199203736E+02 -0.49887141281E+02  0.28284238959E+03  0.28889779253E+03  0.00000000000E+00 0. -1.
         22    1    3    3    0    0 -0.71006718023E+02 -0.15608630772E+02 -0.30692580402E+02  0.78915257401E+02  0.00000000000E+00 0. -1.
         22    1    3    3    0    0 -0.22900582744E+02 -0.20021121082E+02  0.85171270117E+02  0.90440185940E+02  0.00000000000E+00 0. -1.
</event>
<event>
 7    1  0.7961130E-006  0.1026043E+03  0.7818608E-02  0.1317595E+00
          2   -1    0    0  502    0  0.00000000000E+00  0.00000000000E+00  0.16131373518E+03  0.16131373518E+03  0.00000000000E+00 0. -1.
          1   -1    0    0  501    0 -0.00000000000E+00 -0.00000000000E+00 -0.84746051017E+03  0.84746051017E+03  0.00000000000E+00 0. -1.
         25    2    1    2    0    0 -0.89618996898E+02 -0.14190144482E+03 -0.40604433601E+03  0.45679855889E+03  0.12500134380E+03 0.  0.
          2    1    1    2  501    0  0.44293518824E+02  0.52986774961E+02 -0.39430661650E+03  0.40030890815E+03  0.00000000000E+00 0. -1.
          1    1    1    2  502    0  0.45325478074E+02  0.88914669856E+02  0.11420417752E+03  0.15166677830E+03  0.00000000000E+00 0. -1.
         22    1    3    3    0    0 -0.77333340898E+02 -0.65348838592E+02 -0.34062681253E+03  0.35535551457E+03  0.00000000000E+00 0. -1.
         22    1    3    3    0    0 -0.12285655999E+02 -0.76552606225E+02 -0.65417523481E+02  0.10144304432E+03  0.00000000000E+00 0. -1.
</event>
<event>
 7    1  0.7961130E-006  0.1523106E+03  0.7818608E-02  0.1293548E+00
          2   -1    0    0  502    0  0.00000000000E+00  0.00000000000E+00  0.26798017499E+03  0.26798017499E+03  0.00000000000E+00 0. -1.
          1   -1    0    0  501    0 -0.00000000000E+00 -0.00000000000E+00 -0.12544271142E+04  0.12544271142E+04  0.00000000000E+00 0. -1.
         25    2    1    2    0    0  0.53981635725E+02  0.13062943681E+03 -0.30640440149E+03  0.35984773642E+03  0.12501467673E+03 0.  0.
          2    1    1    2  501    0  0.53999483523E+02 -0.21049418437E+02 -0.89574370428E+03  0.89761673669E+03  0.00000000000E+00 0. -1.
          1    1    1    2  502    0 -0.10798111925E+03 -0.10958001837E+03  0.21570116656E+03  0.26494281608E+03  0.00000000000E+00 0. -1.
         22    1    3    3    0    0 -0.32475348529E+02  0.84850258752E+02 -0.14522582620E+03  0.17130310934E+03  0.00000000000E+00 0.  1.
         22    1    3    3    0    0  0.86456984254E+02  0.45779178058E+02 -0.16117857529E+03  0.18854462708E+03  0.00000000000E+00 0.  1.
</event>
<event>
 7    1  0.7961130E-006  0.2426409E+03  0.7818608E-02  0.1233717E+00
          2   -1    0    0  502    0  0.00000000000E+00  0.00000000000E+00  0.13853151142E+04  0.13853151142E+04  0.00000000000E+00 0. -1.
          1   -1    0    0  501    0 -0.00000000000E+00 -0.00000000000E+00 -0.31595690279E+03  0.31595690279E+03  0.00000000000E+00 0. -1.
         25    2    1    2    0    0 -0.19275522966E+03  0.46438580644E+02  0.13288907997E+03  0.26943593612E+03  0.12500038306E+03 0.  0.
          2    1    1    2  501    0 -0.38857055547E+02  0.52473576341E+02 -0.22969066377E+03  0.23879101323E+03  0.00000000000E+00 0. -1.
          1    1    1    2  502    0  0.23161228521E+03 -0.98912156985E+02  0.11661597952E+04  0.11930450676E+04  0.00000000000E+00 0. -1.
         22    1    3    3    0    0 -0.15167909952E+03 -0.19089880461E+02  0.11142830820E+03  0.18917515861E+03  0.00000000000E+00 0.  1.
         22    1    3    3    0    0 -0.41076130143E+02  0.65528461105E+02  0.21460771772E+02  0.80260777515E+02  0.00000000000E+00 0.  1.
</event>
<event>
 7    1  0.7961130E-006  0.1350644E+03  0.7818608E-02  0.1424436E+00
          2   -1    0    0  502    0  0.00000000000E+00  0.00000000000E+00  0.28260708352E+04  0.28260708352E+04  0.00000000000E+00 0. -1.
          1   -1    0    0  501    0 -0.00000000000E+00 -0.00000000000E+00 -0.18136381488E+02  0.18136381488E+02  0.00000000000E+00 0. -1.
         25    2    1    2    0    0  0.35918371720E+02  0.13262244807E+03  0.98804568942E+03  0.10053547013E+04  0.12499979150E+03 0.  0.
          2    1    1    2  501    0 -0.14282422904E+02 -0.13373062255E+03  0.47192996654E+03  0.49071963516E+03  0.00000000000E+00 0. -1.
          1    1    1    2  502    0 -0.21635948817E+02  0.11081744788E+01  0.13479587977E+04  0.13481328802E+04  0.00000000000E+00 0. -1.
         22    1    3    3    0    0  0.80823467813E+02  0.10225999600E+03  0.64314026454E+03  0.65621561974E+03  0.00000000000E+00 0.  1.
         22    1    3    3    0    0 -0.44905096092E+02  0.30362452079E+02  0.34490542489E+03  0.34913908155E+03  0.00000000000E+00 0.  1.
</event>
<event>
 7    1  0.7961130E-006  0.3393372E+02  0.7818608E-02  0.1568454E+00
          2   -1    0    0  502    0  0.00000000000E+00  0.00000000000E+00  0.22092153151E+03  0.22092153151E+03  0.00000000000E+00 0. -1.
          1   -1    0    0  501    0 -0.00000000000E+00 -0.00000000000E+00 -0.16368534566E+04  0.16368534566E+04  0.00000000000E+00 0. -1.
         25    2    1    2    0    0 -0.54098255035E+02  0.37233830082E+02  0.34837997802E+02  0.14543302676E+03  0.12499639948E+03 0.  0.
          2    1    1    2  501    0  0.27434484923E+02 -0.19862377082E+02 -0.15794358521E+04  0.15797989669E+04  0.00000000000E+00 0. -1.
          1    1    1    2  502    0  0.26663770112E+02 -0.17371453001E+02  0.12866592924E+03  0.13254299439E+03  0.00000000000E+00 0. -1.
         22    1    3    3    0    0 -0.60425882709E+02  0.65504663640E+02 -0.12442194631E+02  0.89983089895E+02  0.00000000000E+00 0.  1.
         22    1    3    3    0    0  0.63276276736E+01 -0.28270833558E+02  0.47280192434E+02  0.55449936868E+02  0.00000000000E+00 0.  1.
</event>
<event>
 7    1  0.7961130E-006  0.2834627E+03  0.7818608E-02  0.1170268E+00
          2   -1    0    0  502    0  0.00000000000E+00  0.00000000000E+00  0.63580946974E+03  0.63580946974E+03  0.00000000000E+00 0. -1.
          1   -1    0    0  501    0 -0.00000000000E+00 -0.00000000000E+00 -0.32011423380E+03  0.32011423380E+03  0.00000000000E+00 0. -1.
         25    2    1    2    0    0  0.16612591951E+03  0.11975221859E+03 -0.55797518276E+02  0.24632806023E+03  0.12500294086E+03 0.  0.
          2    1    1    2  501    0  0.51337649557E+02  0.98548096918E+02 -0.97905734858E+02  0.14809731458E+03  0.00000000000E+00 0. -1.
          1    1    1    2  502    0 -0.21746356907E+03 -0.21830031551E+03  0.46939848907E+03  0.56149832873E+03  0.00000000000E+00 0. -1.
         22    1    3    3    0    0  0.15331072186E+03  0.14137957290E+03 -0.30682756279E+02  0.21079324610E+03  0.00000000000E+00 0.  1.
         22    1    3    3    0    0  0.12815197652E+02 -0.21627354308E+02 -0.25114761997E+02  0.35534814132E+02  0.00000000000E+00 0.  1.
</event>
<event>
 7    1  0.7961130E-006  0.5417761E+02  0.7818608E-02  0.1424597E+00
          2   -1    0    0  502    0  0.00000000000E+00  0.00000000000E+00  0.17192841947E+03  0.17192841947E+03  0.00000000000E+00 0. -1.
          1   -1    0    0  501    0 -0.00000000000E+00 -0.00000000000E+00 -0.25241236306E+03  0.25241236306E+03  0.00000000000E+00 0. -1.
         25    2    1    2    0    0 -0.65633765487E+01 -0.23720782643E+01 -0.24873807218E+02  0.12764301806E+03  0.12500131642E+03 0.  0.
          2    1    1    2  501    0 -0.21765656961E+02 -0.49356455374E+02 -0.16435954667E+03  0.17298515569E+03  0.00000000000E+00 0. -1.
          1    1    1    2  502    0  0.28329033509E+02  0.51728533638E+02  0.10874941029E+03  0.12371260878E+03  0.00000000000E+00 0. -1.
         22    1    3    3    0    0 -0.21074534481E+02  0.44002767887E+02 -0.52562199627E+02  0.71715858880E+02  0.00000000000E+00 0. -1.
         22    1    3    3    0    0  0.14511157932E+02 -0.46374846151E+02  0.27688392409E+02  0.55927159183E+02  0.00000000000E+00 0. -1.
</event>
<event>
 7    1  0.7961130E-006  0.7352533E+02  0.7818608E-02  0.1363270E+00
          2   -1    0    0  502    0  0.00000000000E+00  0.00000000000E+00  0.83467454484E+03  0.83467454484E+03  0.00000000000E+00 0. -1.
          1   -1    0    0  501    0 -0.00000000000E+00 -0.00000000000E+00 -0.99782455088E+02  0.99782455088E+02  0.00000000000E+00 0. -1.
         25    2    1    2    0    0  0.69965904911E+02  0.39844782043E+02  0.55712973535E+02  0.15875433738E+03  0.12496467385E+03 0.  0.
          2    1    1    2  501    0 -0.16168070739E+02 -0.76133189684E+02 -0.14351143042E+02  0.79143062801E+02  0.00000000000E+00 0. -1.
          1    1    1    2  502    0 -0.53797834172E+02  0.36288407641E+02  0.69353025926E+03  0.69655959975E+03  0.00000000000E+00 0. -1.
         22    1    3    3    0    0  0.78855956679E+02 -0.24140326675E+02  0.42661085347E+02  0.92849262134E+02  0.00000000000E+00 0. -1.
         22    1    3    3    0    0 -0.88900517686E+01  0.63985108718E+02  0.13051888188E+02  0.65905075247E+02  0.00000000000E+00 0. -1.
</event>
<event>
 7    1  0.7961130E-006  0.1187032E+03  0.7818608E-02  0.1281347E+00
          2   -1    0    0  502    0  0.00000000000E+00  0.00000000000E+00  0.10149463564E+04  0.10149463564E+04  0.00000000000E+00 0. -1.
          1   -1    0    0  501    0 -0.00000000000E+00 -0.00000000000E+00 -0.41339275616E+03  0.41339275616E+03  0.00000000000E+00 0. -1.
         25    2    1    2    0    0  0.10811310726E+03  0.15428427007E+03  0.95756192244E+02  0.24553295755E+03  0.12500041975E+03 0.  0.
          2    1    1    2  501    0 -0.38438421901E+02 -0.10843654344E+03 -0.32658432344E+03  0.34625614297E+03  0.00000000000E+00 0. -1.
          1    1    1    2  502    0 -0.69674685357E+02 -0.45847726637E+02  0.83238173148E+03  0.83655001208E+03  0.00000000000E+00 0. -1.
         22    1    3    3    0    0  0.10165517901E+03  0.37011553183E+02  0.53718102486E+02  0.12078602992E+03  0.00000000000E+00 0.  1.
         22    1    3    3    0    0  0.64579282495E+01  0.11727271689E+03  0.42038089758E+02  0.12474692764E+03  0.00000000000E+00 0.  1.
</event>
<event>
 7    1  0.7961130E-006  0.2008180E+03  0.7818608E-02  0.1249087E+00
          2   -1    0    0  502    0  0.00000000000E+00  0.00000000000E+00  0.31602857384E+04  0.31602857384E+04  0.00000000000E+00 0. -1.
          1   -1    0    0  501    0 -0.00000000000E+00 -0.00000000000E+00 -0.98640429225E+03  0.98640429225E+03  0.00000000000E+00 0. -1.
         25    2    1    2    0    0  0.70443123844E+01 -0.14183416028E+03  0.16082288053E+03  0.24830954261E+03  0.12500831448E+03 0.  0.
          2    1    1    2  501    0  0.29855870532E+02 -0.60556039834E+02 -0.93786617083E+03  0.94029323158E+03  0.00000000000E+00 0. -1.
          1    1    1    2  502    0 -0.36900182917E+02  0.20239020012E+03  0.29509247364E+04  0.29580872564E+04  0.00000000000E+00 0. -1.
         22    1    3    3    0    0 -0.38999350615E+02 -0.15199313707E+02  0.47618868131E+01  0.42126524323E+02  0.00000000000E+00 0.  1.
         22    1    3    3    0    0  0.46043662999E+02 -0.12663484658E+03  0.15606099372E+03  0.20618301829E+03  0.00000000000E+00 0.  1.
</event>
<event>
 7    1  0.7961130E-006  0.9604383E+02  0.7818608E-02  0.1325460E+00
          2   -1    0    0  502    0  0.00000000000E+00  0.00000000000E+00  0.91305760532E+03  0.91305760532E+03  0.00000000000E+00 0. -1.
          1   -1    0    0  501    0 -0.00000000000E+00 -0.00000000000E+00 -0.38166675948E+03  0.38166675948E+03  0.00000000000E+00 0. -1.
         25    2    1    2    0    0  0.18043225115E+02 -0.15846816023E+03  0.21738350315E+03  0.29718318695E+03  0.12499817354E+03 0.  0.
          2    1    1    2  501    0 -0.12607187929E+02  0.67619131301E+02 -0.33509889908E+03  0.34208560372E+03  0.00000000000E+00 0. -1.
          1    1    1    2  502    0 -0.54360371854E+01  0.90849028931E+02  0.64910624177E+03  0.65545557413E+03  0.00000000000E+00 0. -1.
         22    1    3    3    0    0 -0.42343063835E+02 -0.13878145072E+02  0.34507300740E+02  0.56358599787E+02  0.00000000000E+00 0.  1.
         22    1    3    3    0    0  0.60386288950E+02 -0.14459001516E+03  0.18287620241E+03  0.24082458717E+03  0.00000000000E+00 0.  1.
</event>
<event>
 7    1  0.7961130E-006  0.1658647E+03  0.7818608E-02  0.1193517E+00
          2   -1    0    0  502    0  0.00000000000E+00  0.00000000000E+00  0.81163293171E+03  0.81163293171E+03  0.00000000000E+00 0. -1.
          1   -1    0    0  501    0 -0.00000000000E+00 -0.00000000000E+00 -0.40308744556E+03  0.40308744556E+03  0.00000000000E+00 0. -1.
         25    2    1    2    0    0  0.15104598931E+03  0.34885742955E+02  0.23900498507E+03  0.31109510123E+03  0.12499949267E+03 0.  0.
          2    1    1    2  501    0 -0.13091796132E+03  0.11007799066E+03 -0.33615914522E+03  0.37717323280E+03  0.00000000000E+00 0. -1.
          1    1    1    2  502    0 -0.20128027996E+02 -0.14496373361E+03  0.50569964630E+03  0.52645204325E+03  0.00000000000E+00 0. -1.
         22    1    3    3    0    0  0.17283820710E+03  0.34693600489E+02  0.20159944726E+03  0.26780408676E+03  0.00000000000E+00 0.  1.
         22    1    3    3    0    0 -0.21792217785E+02  0.19214246572E+00  0.37405537816E+02  0.43291014472E+02  0.00000000000E+00 0.  1.
</event>
<event>
 7    1  0.7961130E-006  0.1529738E+03  0.7818608E-02  0.1305483E+00
          2   -1    0    0  502    0  0.00000000000E+00  0.00000000000E+00  0.22904282526E+03  0.22904282526E+03  0.00000000000E+00 0. -1.
          1   -1    0    0  501    0 -0.00000000000E+00 -0.00000000000E+00 -0.11996296720E+04  0.11996296720E+04  0.00000000000E+00 0. -1.
         25    2    1    2    0    0  0.49522146630E+02 -0.14060655190E+03 -0.22367960852E+03  0.29644723440E+03  0.12500300024E+03 0.  0.
          2    1    1    2  501    0 -0.49826673312E+02 -0.13751416490E+02 -0.90779468062E+03  0.90926507740E+03  0.00000000000E+00 0. -1.
          1    1    1    2  502    0  0.30452668209E+00  0.15435796839E+03  0.16088744245E+03  0.22296018542E+03  0.00000000000E+00 0. -1.
         22    1    3    3    0    0  0.84813714406E+02 -0.99262537413E+02 -0.11111093055E+03  0.17144111634E+03  0.00000000000E+00 0.  1.
         22    1    3    3    0    0 -0.35291567776E+02 -0.41344014487E+02 -0.11256867798E+03  0.12500611806E+03  0.00000000000E+00 0.  1.
</event>
<event>
 7    1  0.7961130E-006  0.2813539E+03  0.7818608E-02  0.1207739E+00
          2   -1    0    0  502    0  0.00000000000E+00  0.00000000000E+00  0.53980006374E+03  0.53980006374E+03  0.00000000000E+00 0. -1.
          1   -1    0    0  501    0 -0.00000000000E+00 -0.00000000000E+00 -0.44561133585E+04  0.44561133585E+04  0.00000000000E+00 0. -1.
         25    2    1    2    0    0  0.69099277475E+02  0.33557272920E+03 -0.98812703104E+03  0.10532826354E+04  0.12500205497E+03 0.  0.
          2    1    1    2  501    0  0.20246408747E+02 -0.71117785301E+02 -0.33965708463E+04  0.33973756299E+04  0.00000000000E+00 0. -1.
          1    1    1    2  502    0 -0.89345686222E+02 -0.26445494390E+03  0.46838458261E+03  0.54525515699E+03  0.00000000000E+00 0. -1.
         22    1    3    3    0    0  0.35889005750E+02  0.18146064586E+02 -0.17948982053E+03  0.18393992516E+03  0.00000000000E+00 0. -1.
         22    1    3    3    0    0  0.33210271724E+02  0.31742666461E+03 -0.80863721051E+03  0.86934271020E+03  0.00000000000E+00 0. -1.
</event>
<event>
 7    1  0.7961130E-006  0.7620673E+02  0.7818608E-02  0.1459106E+00
          2   -1    0    0  502    0  0.00000000000E+00  0.00000000000E+00  0.13528596624E+03  0.13528596624E+03  0.00000000000E+00 0. -1.
          1   -1    0    0  501    0 -0.00000000000E+00 -0.00000000000E+00 -0.13936125262E+04  0.13936125262E+04  0.00000000000E+00 0. -1.
         25    2    1    2    0    0 -0.65983457056E+02  0.38918495543E+02 -0.30224771186E+03  0.33591803115E+03  0.12497511123E+03 0.  0.
          2    1    1    2  501    0  0.46262053945E+02 -0.61060587100E+02 -0.10712845704E+04  0.10740201132E+04  0.00000000000E+00 0. -1.
          1    1    1    2  502    0  0.19721403110E+02  0.22142091557E+02  0.11520572228E+03  0.11896034804E+03  0.00000000000E+00 0. -1.
         22    1    3    3    0    0 -0.36400685356E+02  0.60814905612E+02 -0.66088170577E+02  0.96907734104E+02  0.00000000000E+00 0.  1.
         22    1    3    3    0    0 -0.29582771700E+02 -0.21896410069E+02 -0.23615954128E+03  0.23901029705E+03  0.00000000000E+00 0.  1.
</event>
<event>
 7    1  0.7961130E-006  0.9628380E+02  0.7818608E-02  0.1470441E+00
          2   -1    0    0  502    0  0.00000000000E+00  0.00000000000E+00  0.27858381569E+04  0.27858381569E+04  0.00000000000E+00 0. -1.
          1   -1    0    0  501    0 -0.00000000000E+00 -0.00000000000E+00 -0.25032010922E+03  0.25032010922E+03  0.00000000000E+00 0. -1.
         25    2    1    2    0    0  0.10889117980E+03  0.20823613734E+01  0.15119658655E+04  0.15210280238E+04  0.12499538129E+03 0.  0.
          2    1    1    2  501    0 -0.94477412066E+02 -0.18203903990E+02 -0.23627671333E+03  0.25511575563E+03  0.00000000000E+00 0. -1.
          1    1    1    2  502    0 -0.14413767736E+02  0.16121542617E+02  0.12598288955E+04  0.12600144868E+04  0.00000000000E+00 0. -1.
         22    1    3    3    0    0  0.12694064423E+03  0.11025137438E+02  0.92706710966E+03  0.93578251032E+03  0.00000000000E+00 0. -1.
         22    1    3    3    0    0 -0.18049464424E+02 -0.89427760646E+01  0.58489875584E+03  0.58524551344E+03  0.00000000000E+00 0. -1.
</event>
<event>
 7    1  0.7961130E-006  0.1016201E+03  0.7818608E-02  0.1397812E+00
          2   -1    0    0  502    0  0.00000000000E+00  0.00000000000E+00  0.13547494458E+03  0.13547494458E+03  0.00000000000E+00 0. -1.
          1   -1    0    0  501    0 -0.00000000000E+00 -0.00000000000E+00 -0.25385112735E+04  0.25385112735E+04  0.00000000000E+00 0. -1.
         25    2    1    2    0    0  0.25144799302E+02  0.11583255174E+03 -0.25526587387E+03  0.30795310150E+03  0.12500002154E+03 0.  0.
          2    1    1    2  501    0  0.69610112127E+01 -0.10084550497E+03 -0.22528623745E+04  0.22551290761E+04  0.00000000000E+00 0. -1.
          1    1    1    2  502    0 -0.32105810515E+02 -0.14987046770E+02  0.10509191948E+03  0.11090404041E+03  0.00000000000E+00 0. -1.
         22    1    3    3    0    0  0.52619337172E+02  0.10015138752E+03 -0.10485650397E+03  0.15425297887E+03  0.00000000000E+00 0. -1.
         22    1    3    3    0    0 -0.27474537870E+02  0.15681164227E+02 -0.15040936990E+03  0.15370012263E+03  0.00000000000E+00 0. -1.
</event>
<event>
 7    1  0.7961130E-006  0.5366254E+02  0.7818608E-02  0.1503655E+00
          2   -1    0    0  502    0  0.00000000000E+00  0.00000000000E+00  0.13496637138E+04  0.13496637138E+04  0.00000000000E+00 0. -1.
          1   -1    0    0  501    0 -0.00000000000E+00 -0.00000000000E+00 -0.10765021187E+03  0.10765021187E+03  0.00000000000E+00 0. -1.
         25    2    1    2    0    0 -0.10155334685E+01 -0.43065017183E+02  0.42397619102E+03  0.44411655422E+03  0.12501230404E+03 0.  0.
          2    1    1    2  501    0  0.30562798795E+02 -0.34461657551E+01 -0.94304397815E+02  0.99193145811E+02  0.00000000000E+00 0. -1.
          1    1    1    2  502    0 -0.29547265326E+02  0.46511182938E+02  0.91234170871E+03  0.91400422564E+03  0.00000000000E+00 0. -1.
         22    1    3    3    0    0 -0.13288594980E+01 -0.64184292391E+02  0.41694049552E+03  0.42185396295E+03  0.00000000000E+00 0.  1.
         22    1    3    3    0    0  0.31332602951E+00  0.21119275208E+02  0.70356955066E+01  0.22262591264E+02  0.00000000000E+00 0.  1.
</event>
<event>
 7    1  0.7961130E-006  0.8349632E+02  0.7818608E-02  0.1372486E+00
          2   -1    0    0  502    0  0.00000000000E+00  0.00000000000E+00  0.13962634472E+04  0.13962634472E+04  0.00000000000E+00 0. -1.
          1   -1    0    0  501    0 -0.00000000000E+00 -0.00000000000E+00 -0.11184137327E+03  0.11184137327E+03  0.00000000000E+00 0. -1.
         25    2    1    2    0    0 -0.12724209606E+03  0.69269904922E+01  0.11253773839E+04  0.11394464577E+04  0.12500175755E+03 0.  0.
          2    1    1    2  501    0  0.80821751279E+02  0.18510650779E+02 -0.85116028347E+02  0.11882566202E+03  0.00000000000E+00 0. -1.
          1    1    1    2  502    0  0.46420344778E+02 -0.25437641271E+02  0.24416071836E+03  0.24983270081E+03  0.00000000000E+00 0. -1.
         22    1    3    3    0    0 -0.18509668691E+02 -0.22989028958E+01  0.70150423143E+03  0.70175214962E+03  0.00000000000E+00 0. -1.
         22    1    3    3    0    0 -0.10873242737E+03  0.92258933880E+01  0.42387315252E+03  0.43769430804E+03  0.00000000000E+00 0. -1.
</event>
<event>
 7    1  0.7961130E-006  0.1833508E+03  0.7818608E-02  0.1287458E+00
          2   -1    0    0  502    0  0.00000000000E+00  0.00000000000E+00  0.16820418086E+04  0.16820418086E+04  0.00000000000E+00 0. -1.
          1   -1    0    0  501    0 -0.00000000000E+00 -0.00000000000E+00 -0.11534573560E+04  0.11534573560E+04  0.00000000000E+00 0. -1.
         25    2    1    2    0    0 -0.13456482769E+03 -0.64258005246E+02  0.21404976629E+03  0.28927005209E+03  0.12499230575E+03 0.  0.
          2    1    1    2  501    0 -0.48521443717E+02  0.15604182437E+02 -0.11089869132E+04  0.11101575540E+04  0.00000000000E+00 0. -1.
          1    1    1    2  502    0  0.18308627141E+03  0.48653822808E+02  0.14235215994E+04  0.14360715586E+04  0.00000000000E+00 0. -1.
         22    1    3    3    0    0 -0.58424029936E+02 -0.95432537393E+02  0.13249527528E+03  0.17342356944E+03  0.00000000000E+00 0. -1.
         22    1    3    3    0    0 -0.76140797754E+02  0.31174532147E+02  0.81554491011E+02  0.11584648265E+03  0.00000000000E+00 0. -1.
</event>
<event>
 7    1  0.7961130E-006  0.8650168E+02  0.7818608E-02  0.1477756E+00
          2   -1    0    0  502    0  0.00000000000E+00  0.00000000000E+00  0.12894011323E+03  0.12894011323E+03  0.00000000000E+00 0. -1.
          1   -1    0    0  501    0 -0.00000000000E+00 -0.00000000000E+00 -0.38696064536E+03  0.38696064536E+03  0.00000000000E+00 0. -1.
         25    2    1    2    0    0  0.13280208483E+02  0.90923506448E+02 -0.94612169645E+02  0.18171211191E+03  0.12499752400E+03 0.  0.
          2    1    1    2  501    0 -0.22213059222E+02 -0.53536337539E+01 -0.22640543318E+03  0.22755549119E+03  0.00000000000E+00 0. -1.
          1    1    1    2  502    0  0.89328507393E+01 -0.85569872694E+02  0.62997070691E+02  0.10663315550E+03  0.00000000000E+00 0. -1.
         22    1    3    3    0    0 -0.47719845708E+02  0.79331440370E+02 -0.63492211143E+02  0.11225828246E+03  0.00000000000E+00 0.  1.
         22    1    3    3    0    0  0.61000054190E+02  0.11592066078E+02 -0.31119958503E+02  0.69453829444E+02  0.00000000000E+00 0.  1.
</event>
<event>
 7    1  0.7961130E-006  0.5212910E+02  0.7818608E-02  0.1518234E+00
          2   -1    0    0  502    0  0.00000000000E+00  0.00000000000E+00  0.11556644976E+03  0.11556644976E+03  0.00000000000E+00 0. -1.
          1   -1    0    0  501    0 -0.00000000000E+00 -0.00000000000E+00 -0.54594609678E+03  0.54594609678E+03  0.00000000000E+00 0. -1.
         25    2    1    2    0    0  0.70070768862E+00 -0.66190754655E+02 -0.43116447786E+02  0.14786765757E+03  0.12499643631E+03 0.  0.
          2    1    1    2  501    0 -0.21200049677E+02  0.19324196422E+02 -0.43955701117E+03  0.44049203483E+03  0.00000000000E+00 0. -1.
          1    1    1    2  502    0  0.20499341988E+02  0.46866558233E+02  0.52293811943E+02  0.73152854148E+02  0.00000000000E+00 0. -1.
         22    1    3    3    0    0  0.45084613764E+02  0.16092753464E+02 -0.12246811736E+02  0.49412382152E+02  0.00000000000E+00 0.  1.
         22    1    3    3    0    0 -0.44383906075E+02 -0.82283508119E+02 -0.30869636050E+02  0.98455275413E+02  0.00000000000E+00 0.  1.
</event>
<event>
 7    1  0.7961130E-006  0.6711599E+02  0.7818608E-02  0.1409103E+00
          2   -1    0    0  502    0  0.00000000000E+00  0.00000000000E+00  0.66736760303E+03  0.66736760303E+03  0.00000000000E+00 0. -1.
          1   -1    0    0  501    0 -0.00000000000E+00 -0.00000000000E+00 -0.58442383693E+03  0.58442383693E+03  0.00000000000E+00 0. -1.
         25    2    1    2    0    0  0.86691344767E+02 -0.44303228962E+02  0.10208185544E+03  0.18848424929E+03  0.12500976628E+03 0.  0.
          2    1    1    2  501    0 -0.48161594144E+02 -0.94551917543E+01 -0.53800635293E+03  0.54024047941E+03  0.00000000000E+00 0. -1.
          1    1    1    2  502    0 -0.38529750623E+02  0.53758420716E+02  0.51886826359E+03  0.52306671127E+03  0.00000000000E+00 0. -1.
         22    1    3    3    0    0  0.59252365412E+02 -0.61346332363E+02  0.41799917554E+01  0.85391379146E+02  0.00000000000E+00 0.  1.
         22    1    3    3    0    0  0.27438979355E+02  0.17043103402E+02  0.97901863682E+02  0.10309287014E+03  0.00000000000E+00 0.  1.
</event>
<event>
 7    1  0.7961130E-006  0.3218646E+02  0.7818608E-02  0.1621410E+00
          2   -1    0    0  502    0  0.00000000000E+00  0.00000000000E+00  0.45350556535E+03  0.45350556535E+03  0.00000000000E+00 0. -1.
          1   -1    0    0  501    0 -0.00000000000E+00 -0.00000000000E+00 -0.56769067630E+03  0.56769067630E+03  0.00000000000E+00 0. -1.
         25    2    1    2    0    0 -0.10660749267E+02 -0.32526998614E+02  0.77153876942E+02  0.15082945532E+03  0.12500058660E+03 0.  0.
          2    1    1    2  501    0 -0.13464037190E+02  0.29268376459E+02 -0.52992668048E+03  0.53090508082E+03  0.00000000000E+00 0. -1.
          1    1    1    2  502    0  0.24124786457E+02  0.32586221548E+01  0.33858769259E+03  0.33946170552E+03  0.00000000000E+00 0. -1.
         22    1    3    3    0    0  0.54526194998E+02 -0.22760785036E+02  0.16726182417E+02  0.61407853363E+02  0.00000000000E+00 0.  1.
         22    1    3    3    0    0 -0.65186944264E+02 -0.97662135778E+01  0.60427694525E+02  0.89421601952E+02  0.00000000000E+00 0.  1.
</event>
<event>
 7    1  0.7961130E-006  0.2216673E+03  0.7818608E-02  0.1173558E+00
          2   -1    0    0  502    0  0.00000000000E+00  0.00000000000E+00  0.42545297301E+04  0.42545297301E+04  0.00000000000E+00 0. -1.
          1   -1    0    0  501    0 -0.00000000000E+00 -0.00000000000E+00 -0.15842519157E+04  0.15842519157E+04  0.00000000000E+00 0. -1.
         25    2    1    2    0    0  0.22548293836E+03 -0.16121980838E+03 -0.15378932012E+03  0.34075027680E+03  0.12500085619E+03 0.  0.
          2    1    1    2  501    0 -0.54181801982E+01  0.13675811690E+03 -0.13305236153E+04  0.13375444778E+04  0.00000000000E+00 0. -1.
          1    1    1    2  502    0 -0.22006475816E+03  0.24461691475E+02  0.41545907499E+04  0.41604868911E+04  0.00000000000E+00 0. -1.
         22    1    3    3    0    0  0.13880962394E+02 -0.21592861623E+02  0.20709986068E+02  0.32982363665E+02  0.00000000000E+00 0. -1.
         22    1    3    3    0    0  0.21160197597E+03 -0.13962694675E+03 -0.17449930619E+03  0.30776791313E+03  0.00000000000E+00 0. -1.
</event>
<event>
 7    1  0.7961130E-006  0.1080941E+03  0.7818608E-02  0.1270105E+00
          2   -1    0    0  502    0  0.00000000000E+00  0.00000000000E+00  0.21641474272E+04  0.21641474272E+04  0.00000000000E+00 0. -1.
          1   -1    0    0  501    0 -0.00000000000E+00 -0.00000000000E+00 -0.98828587135E+03  0.98828587135E+03  0.00000000000E+00 0. -1.
         25    2    1    2    0    0 -0.18984835346E+02 -0.30213919429E+02  0.56932446055E+03  0.58397686972E+03  0.12500135230E+03 0.  0.
          2    1    1    2  501    0 -0.59264917796E+02 -0.83027359456E+02 -0.97531086735E+03  0.98063100138E+03  0.00000000000E+00 0. -1.
          1    1    1    2  502    0  0.78249753142E+02  0.11324127889E+03  0.15818479626E+04  0.15878254274E+04  0.00000000000E+00 0. -1.
         22    1    3    3    0    0  0.51737319748E+02 -0.10058981461E+02  0.30909359352E+03  0.31355507159E+03  0.00000000000E+00 0.  1.
         22    1    3    3    0    0 -0.70722155094E+02 -0.20154937968E+02  0.26023086703E+03  0.27042179813E+03  0.00000000000E+00 0.  1.
</event>
<event>
 7    1  0.7961130E-006  0.5927259E+02  0.7818608E-02  0.1480717E+00
          2   -1    0    0  502    0  0.00000000000E+00  0.00000000000E+00  0.43664443643E+02  0.43664443643E+02  0.00000000000E+00 0. -1.
          1   -1    0    0  501    0 -0.00000000000E+00 -0.00000000000E+00 -0.17969971911E+04  0.17969971911E+04  0.00000000000E+00 0. -1.
         25    2    1    2    0    0 -0.46784557382E+00  0.61730865995E+02 -0.85094045392E+03  0.86228415292E+03  0.12499354207E+03 0.  0.
          2    1    1    2  501    0 -0.30629690779E+02 -0.51766992988E+02 -0.93221519691E+03  0.93415372015E+03  0.00000000000E+00 0. -1.
          1    1    1    2  502    0  0.31097536352E+02 -0.99638730069E+01  0.29822903364E+02  0.44223761684E+02  0.00000000000E+00 0. -1.
         22    1    3    3    0    0  0.14164166965E+02  0.75209304595E+02 -0.82954924524E+03  0.83307203374E+03  0.00000000000E+00 0. -1.
         22    1    3    3    0    0 -0.14632012539E+02 -0.13478438601E+02 -0.21391208683E+02  0.29212119180E+02  0.00000000000E+00 0. -1.
</event>
<event>
 7    1  0.7961130E-006  0.1926850E+03  0.7818608E-02  0.1334153E+00
          2   -1    0    0  502    0  0.00000000000E+00  0.00000000000E+00  0.57014340697E+03  0.57014340697E+03  0.00000000000E+00 0. -1.
          1   -1    0    0  501    0 -0.00000000000E+00 -0.00000000000E+00 -0.73687620666E+03  0.73687620666E+03  0.00000000000E+00 0. -1.
         25    2    1    2    0    0 -0.16138350026E+03 -0.40808228644E+02 -0.28818540626E+03  0.35550804118E+03  0.12500077314E+03 0.  0.
          2    1    1    2  501    0 -0.30253371705E+02  0.96685086290E+01 -0.39680862840E+03  0.39807767349E+03  0.00000000000E+00 0. -1.
          1    1    1    2  502    0  0.19163687196E+03  0.31139720015E+02  0.51826123496E+03  0.55343389896E+03  0.00000000000E+00 0. -1.
         22    1    3    3    0    0 -0.68007839068E+02 -0.25206380255E+02 -0.23707689386E+03  0.24792313604E+03  0.00000000000E+00 0. -1.
         22    1    3    3    0    0 -0.93375661191E+02 -0.15601848389E+02 -0.51108512396E+02  0.10758490515E+03  0.00000000000E+00 0. -1.
</event>
<event>
 7    1  0.7961130E-006  0.5771091E+02  0.7818608E-02  0.1494601E+00
          2   -1    0    0  502    0  0.00000000000E+00  0.00000000000E+00  0.14973581142E+04  0.14973581142E+04  0.00000000000E+00 0. -1.
          1   -1    0    0  501    0 -0.00000000000E+00 -0.00000000000E+00 -0.12174418198E+04  0.12174418198E+04  0.00000000000E+00 0. -1.
         25    2    1    2    0    0  0.43484023064E+02  0.17695225595E+02  0.18684306143E+03  0.22965087877E+03  0.12500086097E+03 0.  0.
          2    1    1    2  501    0 -0.56968588057E+02  0.95915101181E+01 -0.11951604519E+04  0.11965558587E+04  0.00000000000E+00 0. -1.
          1    1    1    2  502    0  0.13484564993E+02 -0.27286735713E+02  0.12882336848E+04  0.12885931966E+04  0.00000000000E+00 0. -1.
         22    1    3    3    0    0  0.15178653277E+02  0.12990277940E+02  0.19789602136E+03  0.19890192082E+03  0.00000000000E+00 0. -1.
         22    1    3    3    0    0  0.28305369787E+02  0.47049476550E+01 -0.11052959933E+02  0.30748957942E+02  0.00000000000E+00 0. -1.
</event>
<event>
 7    1  0.7961130E-006  0.7569515E+02  0.7818608E-02  0.1463633E+00
          2   -1    0    0  502    0  0.00000000000E+00  0.00000000000E+00  0.33541143665E+03  0.33541143665E+03  0.00000000000E+00 0. -1.
          1   -1    0    0  501    0 -0.00000000000E+00 -0.00000000000E+00 -0.11135601900E+04  0.11135601900E+04  0.00000000000E+00 0. -1.
         25    2    1    2    0    0  0.25249272711E+02 -0.47051411239E+02 -0.25266140809E+03  0.28690485477E+03  0.12500098991E+03 0.  0.
          2    1    1    2  501    0  0.27924656540E+02 -0.73977993912E+01 -0.83897544715E+03  0.83947264089E+03  0.00000000000E+00 0. -1.
          1    1    1    2  502    0 -0.53173929252E+02  0.54449210630E+02  0.31348810192E+03  0.32259413097E+03  0.00000000000E+00 0. -1.
         22    1    3    3    0    0  0.26042075798E+02  0.12479426797E+02 -0.16449336797E+01  0.28924584904E+02  0.00000000000E+00 0. -1.
         22    1    3    3    0    0 -0.79280308684E+00 -0.59530838036E+02 -0.25101647441E+03  0.25798026987E+03  0.00000000000E+00 0. -1.
</event>
<event>
 7    1  0.7961130E-006  0.1185103E+03  0.7818608E-02  0.1330036E+00
          2   -1    0    0  502    0  0.00000000000E+00  0.00000000000E+00  0.18425719621E+04  0.18425719621E+04  0.00000000000E+00 0. -1.
          1   -1    0    0  501    0 -0.00000000000E+00 -0.00000000000E+00 -0.83537072116E+03  0.83537072116E+03  0.00000000000E+00 0. -1.
         25    2    1    2    0    0  0.79697815902E+02 -0.70441422461E+02  0.93033570858E+03  0.94470265696E+03  0.12499937418E+03 0.  0.
          2    1    1    2  501    0 -0.43856539166E+02  0.11021166448E+03 -0.82314045600E+03  0.83164308289E+03  0.00000000000E+00 0. -1.
          1    1    1    2  502    0 -0.35841276736E+02 -0.39770242015E+02  0.90000598840E+03  0.90159694345E+03  0.00000000000E+00 0. -1.
         22    1    3    3    0    0  0.35201549794E+02 -0.10307058344E+03  0.60808191427E+03  0.61775910251E+03  0.00000000000E+00 0.  1.
         22    1    3    3    0    0  0.44496266108E+02  0.32629160980E+02  0.32225379431E+03  0.32694355445E+03  0.00000000000E+00 0.  1.
</event>
<event>
 7    1  0.7961130E-006  0.9113960E+02  0.7818608E-02  0.1371691E+00
          2   -1    0    0  502    0  0.00000000000E+00  0.00000000000E+00  0.14731407540E+04  0.14731407540E+04  0.00000000000E+00 0. -1.
          1   -1    0    0  501    0 -0.00000000000E+00 -0.00000000000E+00 -0.49987663286E+02  0.49987663286E+02  0.00000000000E+00 0. -1.
         25    2    1    2    0    0 -0.29207300970E+01  0.67546276764E+02  0.20075640043E+03  0.24596563975E+03  0.12499973381E+03 0.  0.
          2    1    1    2  501    0  0.44231212813E+02 -0.93549462004E+02  0.72779896947E+02  0.12651013962E+03  0.00000000000E+00 0. -1.
          1    1    1    2  502    0 -0.41310482716E+02  0.26003185240E+02  0.11496167933E+04  0.11506526379E+04  0.00000000000E+00 0. -1.
         22    1    3    3    0    0  0.40371481959E+02  0.14791779149E+02  0.11101365572E+02  0.44406008642E+02  0.00000000000E+00 0. -1.
         22    1    3    3    0    0 -0.43292212056E+02  0.52754497615E+02  0.18965503486E+03  0.20155963111E+03  0.00000000000E+00 0. -1.
</event>
<event>
 7    1  0.7961130E-006  0.9717283E+02  0.7818608E-02  0.1383106E+00
          2   -1    0    0  502    0  0.00000000000E+00  0.00000000000E+00  0.81164116600E+03  0.81164116600E+03  0.00000000000E+00 0. -1.
          1   -1    0    0  501    0 -0.00000000000E+00 -0.00000000000E+00 -0.15451004808E+04  0.15451004808E+04  0.00000000000E+00 0. -1.
         25    2    1    2    0    0 -0.55956293637E+02  0.14389721846E+02  0.67824017071E+01  0.13787313766E+03  0.12499932089E+03 0.  0.
          2    1    1    2  501    0 -0.41507929699E+02  0.39729941503E+01 -0.14759331229E+04  0.14765220203E+04  0.00000000000E+00 0. -1.
          1    1    1    2  502    0  0.97464223336E+02 -0.18362715996E+02  0.73569140639E+03  0.74234648892E+03  0.00000000000E+00 0. -1.
         22    1    3    3    0    0  0.80986068485E+01  0.19659128094E+02  0.54056863383E+02  0.58087978352E+02  0.00000000000E+00 0.  1.
         22    1    3    3    0    0 -0.64054900486E+02 -0.52694062480E+01 -0.47274461676E+02  0.79785159304E+02  0.00000000000E+00 0.  1.
</event>
<event>
 7    1  0.7961130E-006  0.5223146E+02  0.7818608E-02  0.1449093E+00
          2   -1    0    0  502    0  0.00000000000E+00  0.00000000000E+00  0.34831079723E+03  0.34831079723E+03  0.00000000000E+00 0. -1.
          1   -1    0    0  501    0 -0.00000000000E+00 -0.00000000000E+00 -0.85709620052E+02  0.85709620052E+02  0.00000000000E+00 0. -1.
         25    2    1    2    0    0  0.10024237226E+02  0.89241596647E+02  0.10633671196E+03  0.18707681164E+03  0.12500275693E+03 0.  0.
          2    1    1    2  501    0  0.12223876127E+02 -0.44920646784E+02 -0.29206376219E+02  0.54957256727E+02  0.00000000000E+00 0. -1.
          1    1    1    2  502    0 -0.22248113352E+02 -0.44320949863E+02  0.18547084144E+03  0.19198634891E+03  0.00000000000E+00 0. -1.
         22    1    3    3    0    0  0.30197155105E+02  0.60927792764E+02  0.12882607586E+03  0.14567162363E+03  0.00000000000E+00 0. -1.
         22    1    3    3    0    0 -0.20172917879E+02  0.28313803884E+02 -0.22489363903E+02  0.41405188019E+02  0.00000000000E+00 0. -1.
</event>
<event>
 7    1  0.7961130E-006  0.2262516E+03  0.7818608E-02  0.1241647E+00
          2   -1    0    0  502    0  0.00000000000E+00  0.00000000000E+00  0.24278640725E+04  0.24278640725E+04  0.00000000000E+00 0. -1.
          1   -1    0    0  501    0 -0.00000000000E+00 -0.00000000000E+00 -0.18649028999E+03  0.18649028999E+03  0.00000000000E+00 0. -1.
         25    2    1    2    0    0  0.56683057310E+02  0.16191955623E+03  0.58800104736E+03  0.62514107594E+03  0.12500088581E+03 0.  0.
          2    1    1    2  501    0 -0.96306195714E+02 -0.21292375535E+03 -0.85723980918E+02  0.24891767681E+03  0.00000000000E+00 0. -1.
          1    1    1    2  502    0  0.39623138404E+02  0.51004199118E+02  0.17390967161E+04  0.17402956097E+04  0.00000000000E+00 0. -1.
         22    1    3    3    0    0 -0.35751581109E+01  0.13620037612E+02  0.25781038292E+03  0.25819465664E+03  0.00000000000E+00 0.  1.
         22    1    3    3    0    0  0.60258215421E+02  0.14829951862E+03  0.33019066444E+03  0.36694641929E+03  0.00000000000E+00 0.  1.
</event>
<event>
 7    1  0.7961130E-006  0.6180516E+02  0.7818608E-02  0.1429672E+00
          2   -1    0    0  502    0  0.00000000000E+00  0.00000000000E+00  0.21478344950E+04  0.21478344950E+04  0.00000000000E+00 0. -1.
          1   -1    0    0  501    0 -0.00000000000E+00 -0.00000000000E+00 -0.34324775188E+03  0.34324775188E+03  0.00000000000E+00 0. -1.
         25    2    1    2    0    0  0.78206623807E+02 -0.67343407871E+02  0.83184228614E+03  0.84748907681E+03  0.12499894278E+03 0.  0.
          2    1    1    2  501    0 -0.38023980705E+02  0.24977352354E+02 -0.33322640417E+03  0.33631759941E+03  0.00000000000E+00 0. -1.
          1    1    1    2  502    0 -0.40182643102E+02  0.42366055517E+02  0.13059708611E+04  0.13072755706E+04  0.00000000000E+00 0. -1.
         22    1    3    3    0    0  0.10538501621E+03 -0.79745174749E+02  0.68781587715E+03  0.70039701270E+03  0.00000000000E+00 0. -1.
         22    1    3    3    0    0 -0.27178392406E+02  0.12401766878E+02  0.14402640899E+03  0.14709206411E+03  0.00000000000E+00 0. -1.
</event>
<event>
 7    1  0.7961130E-006  0.3619838E+02  0.7818608E-02  0.1596248E+00
          2   -1    0    0  502    0  0.00000000000E+00  0.00000000000E+00  0.93213189802E+03  0.93213189802E+03  0.00000000000E+00 0. -1.
          1   -1    0    0  501    0 -0.00000000000E+00 -0.00000000000E+00 -0.10021983553E+04  0.10021983553E+04  0.00000000000E+00 0. -1.
         25    2    1    2    0    0  0.11062681023E+02  0.54068925668E+02 -0.21803013910E+03  0.25731033095E+03  0.12500253287E+03 0.  0.
          2    1    1    2  501    0 -0.19213526932E+02 -0.30285972751E+02 -0.76393412341E+03  0.76477561721E+03  0.00000000000E+00 0. -1.
          1    1    1    2  502    0  0.81508459089E+01 -0.23782952917E+02  0.91189780523E+03  0.91224430517E+03  0.00000000000E+00 0. -1.
         22    1    3    3    0    0  0.47926789425E+02 -0.16534876065E+02 -0.12471068356E+03  0.13462218935E+03  0.00000000000E+00 0. -1.
         22    1    3    3    0    0 -0.36864108402E+02  0.70603801734E+02 -0.93319455540E+02  0.12268814160E+03  0.00000000000E+00 0. -1.
</event>
<event>
 7    1  0.7961130E-006  0.4383538E+02  0.7818608E-02  0.1551753E+00
          2   -1    0    0  502    0  0.00000000000E+00  0.00000000000E+00  0.13824501190E+04  0.13824501190E+04  0.00000000000E+00 0. -1.
          1   -1    0    0  501    0 -0.00000000000E+00 -0.00000000000E+00 -0.31928711617E+02  0.31928711617E+02  0.00000000000E+00 0. -1.
         25    2    1    2    0    0  0.44042034024E+02  0.32626074340E+01  0.77337317118E+03  0.78465311267E+03  0.12499639978E+03 0.  0.
          2    1    1    2  501    0 -0.96784179653E+01  0.25618130313E+02 -0.18074798390E+02  0.32812477991E+02  0.00000000000E+00 0. -1.
          1    1    1    2  502    0 -0.34363616059E+02 -0.28880737747E+02  0.59522303462E+03  0.59691323998E+03  0.00000000000E+00 0. -1.
         22    1    3    3    0    0  0.30682175801E+02  0.51237700684E+02  0.19016178312E+03  0.19931934588E+03  0.00000000000E+00 0.  1.
         22    1    3    3    0    0  0.13359858223E+02 -0.47975093250E+02  0.58321138805E+03  0.58533376679E+03  0.00000000000E+00 0.  1.
</event>
<event>
 7    1  0.7961130E-006  0.5008028E+02  0.7818608E-02  0.1474156E+00
          2   -1    0    0  502    0  0.00000000000E+00  0.00000000000E+00  0.65777040349E+03  0.65777040349E+03  0.00000000000E+00 0. -1.
          1   -1    0    0  501    0 -0.00000000000E+00 -0.00000000000E+00 -0.11802421690E+04  0.11802421690E+04  0.00000000000E+00 0. -1.
         25    2    1    2    0    0  0.31516665220E+02 -0.12753859101E+02  0.92283414218E+02  0.15905247219E+03  0.12500199703E+03 0.  0.
          2    1    1    2  501    0 -0.12666353689E+02  0.48586590705E+02 -0.11455366997E+04  0.11466365700E+04  0.00000000000E+00 0. -1.
          1    1    1    2  502    0 -0.18850311531E+02 -0.35832731604E+02  0.53078152000E+03  0.53232353026E+03  0.00000000000E+00 0. -1.
         22    1    3    3    0    0  0.60142859872E+02 -0.12970672196E+02 -0.93987008418E+00  0.61532798462E+02  0.00000000000E+00 0. -1.
         22    1    3    3    0    0 -0.28626194652E+02  0.21681309536E+00  0.93223284302E+02  0.97519673729E+02  0.00000000000E+00 0. -1.
</event>
<event>
 7    1  0.7961130E-006  0.1020323E+03  0.7818608E-02  0.1348720E+00
          2   -1    0    0  502    0  0.00000000000E+00  0.00000000000E+00  0.83524020433E+03  0.83524020433E+03  0.00000000000E+00 0. -1.
          1   -1    0    0  501    0 -0.00000000000E+00 -0.00000000000E+00 -0.68478586682E+03  0.68478586682E+03  0.00000000000E+00 0. -1.
         25    2    1    2    0    0  0.12535553257E+03  0.69435713370E+02  0.22230856728E+03  0.29254880860E+03  0.12501351324E+03 0.  0.
          2    1    1    2  501    0 -0.31636930843E+02 -0.42375890489E+02 -0.64445796080E+03  0.64662405981E+03  0.00000000000E+00 0. -1.
          1    1    1    2  502    0 -0.93718601724E+02 -0.27059822881E+02  0.57260373104E+03  0.58085320273E+03  0.00000000000E+00 0. -1.
         22    1    3    3    0    0  0.25288620075E+02  0.17286791171E+02  0.16147550750E+03  0.16435536796E+03  0.00000000000E+00 0. -1.
         22    1    3    3    0    0  0.10006691249E+03  0.52148922199E+02  0.60833059779E+02  0.12819344064E+03  0.00000000000E+00 0. -1.
</event>
<event>
 7    1  0.7961130E-006  0.1111345E+03  0.7818608E-02  0.1391415E+00
          2   -1    0    0  502    0  0.00000000000E+00  0.00000000000E+00  0.20430892145E+04  0.20430892145E+04  0.00000000000E+00 0. -1.
          1   -1    0    0  501    0 -0.00000000000E+00 -0.00000000000E+00 -0.10005698483E+04  0.10005698483E+04  0.00000000000E+00 0. -1.
         25    2    1    2    0    0 -0.55721918708E+02 -0.11679916604E+03 -0.30915093223E+03  0.35769624253E+03  0.12500130244E+03 0.  0.
          2    1    1    2  501    0  0.33130603872E+02  0.80532861232E+01 -0.66518167739E+03  0.66605491986E+03  0.00000000000E+00 0. -1.
          1    1    1    2  502    0  0.22591314835E+02  0.10874587992E+03  0.20168519758E+04  0.20199079004E+04  0.00000000000E+00 0. -1.
         22    1    3    3    0    0 -0.78986290032E+02 -0.13035060639E+03 -0.25170691397E+03  0.29425581581E+03  0.00000000000E+00 0.  1.
         22    1    3    3    0    0  0.23264371324E+02  0.13551440347E+02 -0.57444018264E+02  0.63440426724E+02  0.00000000000E+00 0.  1.
</event>
<event>
 7    1  0.7961130E-006  0.6865022E+02  0.7818608E-02  0.1508741E+00
          2   -1    0    0  502    0  0.00000000000E+00  0.00000000000E+00  0.47447458709E+03  0.47447458709E+03  0.00000000000E+00 0. -1.
          1   -1    0    0  501    0 -0.00000000000E+00 -0.00000000000E+00 -0.39043454586E+03  0.39043454586E+03  0.00000000000E+00 0. -1.
         25    2    1    2    0    0 -0.16459832630E+02 -0.57929294892E+02  0.19757719686E+03  0.24142871838E+03  0.12499739215E+03 0.  0.
          2    1    1    2  501    0 -0.41144995838E+01  0.68699628425E+02 -0.36475522722E+03  0.37119124968E+03  0.00000000000E+00 0. -1.
          1    1    1    2  502    0  0.20574332214E+02 -0.10770333532E+02  0.25121807159E+03  0.25228916490E+03  0.00000000000E+00 0. -1.
         22    1    3    3    0    0 -0.33046864596E+02 -0.78309417600E+01  0.18376680920E+03  0.18687872825E+03  0.00000000000E+00 0.  1.
         22    1    3    3    0    0  0.16587031966E+02 -0.50098353132E+02  0.13810387655E+02  0.54549990130E+02  0.00000000000E+00 0.  1.
</event>
<event>
 7    1  0.7961130E-006  0.2160031E+03  0.7818608E-02  0.1244697E+00
          2   -1    0    0  502    0  0.00000000000E+00  0.00000000000E+00  0.17420766544E+04  0.17420766544E+04  0.00000000000E+00 0. -1.
          1   -1    0    0  501    0 -0.00000000000E+00 -0.00000000000E+00 -0.16397921959E+03  0.16397921959E+03  0.00000000000E+00 0. -1.
         25    2    1    2    0    0  0.15821771719E+03  0.45308731386E+02  0.36511376496E+03  0.41954729926E+03  0.12500459105E+03 0.  0.
          2    1    1    2  501    0 -0.21482130627E+03 -0.78462753092E+02 -0.39688344648E+02  0.23212014551E+03  0.00000000000E+00 0. -1.
          1    1    1    2  502    0  0.56603589084E+02  0.33154021706E+02  0.12526720145E+04  0.12543884292E+04  0.00000000000E+00 0. -1.
         22    1    3    3    0    0  0.13063790596E+03  0.85178876937E+02  0.25018788861E+03  0.29481465899E+03  0.00000000000E+00 0. -1.
         22    1    3    3    0    0  0.27579811228E+02 -0.39870145551E+02  0.11492587635E+03  0.12473264027E+03  0.00000000000E+00 0. -1.
</event>
<event>
 7    1  0.7961130E-006  0.8941014E+02  0.7818608E-02  0.1356657E+00
          2   -1    0    0  502    0  0.00000000000E+00  0.00000000000E+00  0.70311987567E+03  0.70311987567E+03  0.00000000000E+00 0. -1.
          1   -1    0    0  501    0 -0.00000000000E+00 -0.00000000000E+00 -0.39813260406E+03  0.39813260406E+03  0.00000000000E+00 0. -1.
         25    2    1    2    0    0  0.20017685216E+01  0.43647606392E+02  0.93558884162E+02  0.16212934982E+03  0.12499416245E+03 0.  0.
          2    1    1    2  501    0  0.37951430482E+02 -0.83474646874E+02 -0.35665063294E+03  0.36824991748E+03  0.00000000000E+00 0. -1.
          1    1    1    2  502    0 -0.39953199003E+02  0.39827040482E+02  0.56807902039E+03  0.57087321243E+03  0.00000000000E+00 0. -1.
         22    1    3    3    0    0 -0.46654547271E+02  0.36134440355E+02  0.96164918818E+02  0.11282746196E+03  0.00000000000E+00 0. -1.
         22    1    3    3    0    0  0.48656315792E+02  0.75131660366E+01 -0.26060346563E+01  0.49301887865E+02  0.00000000000E+00 0. -1.
</event>
<event>
 7    1  0.7961130E-006  0.2446299E+03  0.7818608E-02  0.1295268E+00
          2   -1    0    0  502    0  0.00000000000E+00  0.00000000000E+00  0.53511943143E+02  0.53511943143E+02  0.00000000000E+00 0. -1.
          1   -1    0    0  501    0 -0.00000000000E+00 -0.00000000000E+00 -0.24637959570E+04  0.24637959570E+04  0.00000000000E+00 0. -1.
         25    2    1    2    0    0 -0.13285064215E+03 -0.23671896018E+03 -0.14641964357E+04  0.14943832698E+04  0.12499998230E+03 0.  0.
          2    1    1    2  501    0  0.69926544491E+01  0.34817286364E+02 -0.61063548104E+03  0.61166725541E+03  0.00000000000E+00 0. -1.
          1    1    1    2  502    0  0.12585798770E+03  0.20190167381E+03 -0.33545209715E+03  0.41125737493E+03  0.00000000000E+00 0. -1.
         22    1    3    3    0    0 -0.98991060049E+02 -0.57305718005E+02 -0.48448373911E+03  0.49780284124E+03  0.00000000000E+00 0.  1.
         22    1    3    3    0    0 -0.33859582101E+02 -0.17941324217E+03 -0.97971269658E+03  0.99658042857E+03  0.00000000000E+00 0.  1.
</event>
<event>
 7    1  0.7961130E-006  0.6941351E+02  0.7818608E-02  0.1389097E+00
          2   -1    0    0  502    0  0.00000000000E+00  0.00000000000E+00  0.57592844872E+02  0.57592844872E+02  0.00000000000E+00 0. -1.
          1   -1    0    0  501    0 -0.00000000000E+00 -0.00000000000E+00 -0.18259594452E+04  0.18259594452E+04  0.00000000000E+00 0. -1.
         25    2    1    2    0    0 -0.58841556058E+01  0.14915789082E+02 -0.71436124511E+03  0.72539682752E+03  0.12502585653E+03 0.  0.
          2    1    1    2  501    0 -0.32633040078E+02  0.45033511172E+02 -0.10806501456E+04  0.10820802510E+04  0.00000000000E+00 0. -1.
          1    1    1    2  502    0  0.38517195684E+02 -0.59949300254E+02  0.26644790352E+02  0.76075211581E+02  0.00000000000E+00 0. -1.
         22    1    3    3    0    0 -0.36851041408E+02 -0.96268359431E+01 -0.64049310659E+03  0.64162457466E+03  0.00000000000E+00 0.  1.
         22    1    3    3    0    0  0.30966885803E+02  0.24542625025E+02 -0.73868138525E+02  0.83772252856E+02  0.00000000000E+00 0.  1.
</event>
<event>
 7    1  0.7961130E-006  0.3810854E+02  0.7818608E-02  0.1561125E+00
          2   -1    0    0  502    0  0.00000000000E+00  0.00000000000E+00  0.93701417407E+03  0.93701417407E+03  0.00000000000E+00 0. -1.
          1   -1    0    0  501    0 -0.00000000000E+00 -0.00000000000E+00 -0.24866032715E+04  0.24866032715E+04  0.00000000000E+00 0. -1.
         25    2    1    2    0    0 -0.27285999329E+02  0.20028842509E+02 -0.21266021544E+03  0.24898443650E+03  0.12499280818E+03 0.  0.
          2    1    1    2  501    0  0.37430215118E+02  0.78593239157E+01 -0.22553791630E+04  0.22557034288E+04  0.00000000000E+00 0. -1.
          1    1    1    2  502    0 -0.10144215789E+02 -0.27888166424E+02  0.91845028096E+03  0.91892958029E+03  0.00000000000E+00 0. -1.
         22    1    3    3    0    0  0.36436312912E+02 -0.25842815108E+02 -0.11694135136E+03  0.12518280892E+03  0.00000000000E+00 0. -1.
         22    1    3    3    0    0 -0.63722312241E+02  0.45871657616E+02 -0.95718864074E+02  0.12380162757E+03  0.00000000000E+00 0. -1.
</event>
<event>
 7    1  0.7961130E-006  0.3055462E+02  0.7818608E-02  0.1600258E+00
          2   -1    0    0  502    0  0.00000000000E+00  0.00000000000E+00  0.10659423296E+03  0.10659423296E+03  0.00000000000E+00 0. -1.
          1   -1    0    0  501    0 -0.00000000000E+00 -0.00000000000E+00 -0.27736294606E+04  0.27736294606E+04  0.00000000000E+00 0. -1.
         25    2    1    2    0    0  0.51914731368E+01 -0.25827156887E+01 -0.92046545741E+03  0.92893321994E+03  0.12500658790E+03 0.  0.
          2    1    1    2  501    0 -0.13547270437E+01  0.31401492740E+02 -0.18467293165E+04  0.18469967671E+04  0.00000000000E+00 0. -1.
          1    1    1    2  502    0 -0.38367460931E+01 -0.28818777052E+02  0.10015954624E+03  0.10429370659E+03  0.00000000000E+00 0. -1.
         22    1    3    3    0    0  0.60429085319E+02 -0.23844530035E+02 -0.53952945347E+03  0.54342641372E+03  0.00000000000E+00 0. -1.
         22    1    3    3    0    0 -0.55237612182E+02  0.21261814347E+02 -0.38093600394E+03  0.38550680623E+03  0.00000000000E+00 0. -1.
</event>
<event>
 7    1  0.7961130E-006  0.9602186E+02  0.7818608E-02  0.1388700E+00
          2   -1    0    0  502    0  0.00000000000E+00  0.00000000000E+00  0.67769221163E+03  0.67769221163E+03  0.00000000000E+00 0. -1.
          1   -1    0    0  501    0 -0.00000000000E+00 -0.00000000000E+00 -0.16966905424E+04  0.16966905424E+04  0.00000000000E+00 0. -1.
         25    2    1    2    0    0  0.86541905736E+02  0.42093648098E+02  0.68941897668E+02  0.17215980546E+03  0.12499854681E+03 0.  0.
          2    1    1    2  501    0 -0.96072974524E+02 -0.29043375390E+01 -0.16429452626E+04  0.16457544129E+04  0.00000000000E+00 0. -1.
          1    1    1    2  502    0  0.95310687883E+01 -0.39189310559E+02  0.55500503413E+03  0.55646853572E+03  0.00000000000E+00 0. -1.
         22    1    3    3    0    0  0.22202755725E+02 -0.33305109187E+02 -0.14522507785E+02  0.42580463738E+02  0.00000000000E+00 0. -1.
         22    1    3    3    0    0  0.64339150011E+02  0.75398757285E+02  0.83464405453E+02  0.12957934173E+03  0.00000000000E+00 0. -1.
</event>
<event>
 7    1  0.7961130E-006  0.6277436E+02  0.7818608E-02  0.1426667E+00
          2   -1    0    0  502    0  0.00000000000E+00  0.00000000000E+00  0.83917721592E+03  0.83917721592E+03  0.00000000000E+00 0. -1.
          1   -1    0    0  501    0 -0.00000000000E+00 -0.00000000000E+00 -0.76095094455E+03  0.76095094455E+03  0.00000000000E+00 0. -1.
         25    2    1    2    0    0 -0.69076946785E+02  0.21434915945E+02  0.34134846364E+03  0.37064142690E+03  0.12500085402E+03 0.  0.
          2    1    1    2  501    0  0.33635218205E+02  0.31123968365E+02 -0.74351676707E+03  0.74492765570E+03  0.00000000000E+00 0. -1.
          1    1    1    2  502    0  0.35441728579E+02 -0.52558884310E+02  0.48039457480E+03  0.48455907787E+03  0.00000000000E+00 0. -1.
         22    1    3    3    0    0 -0.83841091677E+02  0.52280102249E+02  0.30557744995E+03  0.32115434865E+03  0.00000000000E+00 0.  1.
         22    1    3    3    0    0  0.14764144892E+02 -0.30845186304E+02  0.35771013696E+02  0.49487078247E+02  0.00000000000E+00 0.  1.
</event>
<event>
 7    1  0.7961130E-006  0.1490769E+03  0.7818608E-02  0.1282575E+00
          2   -1    0    0  502    0  0.00000000000E+00  0.00000000000E+00  0.85762857478E+03  0.85762857478E+03  0.00000000000E+00 0. -1.
          1   -1    0    0  501    0 -0.00000000000E+00 -0.00000000000E+00 -0.39197669325E+03  0.39197669325E+03  0.00000000000E+00 0. -1.
         25    2    1    2    0    0 -0.20456175095E+02  0.15357489749E+03 -0.93204325537E+02  0.21980807157E+03  0.12499935115E+03 0.  0.
          2    1    1    2  501    0  0.80655327351E+02 -0.12739937911E+03 -0.20978846458E+03  0.25835456934E+03  0.00000000000E+00 0. -1.
          1    1    1    2  502    0 -0.60199152256E+02 -0.26175518378E+02  0.76864467165E+03  0.77144262712E+03  0.00000000000E+00 0. -1.
         22    1    3    3    0    0 -0.46237857782E+02  0.87550489670E+02  0.44873037988E+01  0.99111874310E+02  0.00000000000E+00 0.  1.
         22    1    3    3    0    0  0.25781682687E+02  0.66024407822E+02 -0.97691629336E+02  0.12069619726E+03  0.00000000000E+00 0.  1.
</event>
<event>
 7    1  0.7961130E-006  0.9950493E+02  0.7818608E-02  0.1419006E+00
          2   -1    0    0  502    0  0.00000000000E+00  0.00000000000E+00  0.94929783682E+02  0.94929783682E+02  0.00000000000E+00 0. -1.
          1   -1    0    0  501    0 -0.00000000000E+00 -0.00000000000E+00 -0.29424268034E+04  0.29424268034E+04  0.00000000000E+00 0. -1.
         25    2    1    2    0    0 -0.78046980455E+02 -0.10179739574E+03 -0.14980904512E+04  0.15087590315E+04  0.12499909723E+03 0.  0.
          2    1    1    2  501    0  0.24330985141E+02  0.18651444902E+02 -0.14114433387E+04  0.14117762470E+04  0.00000000000E+00 0. -1.
          1    1    1    2  502    0  0.53715995313E+02  0.83145950835E+02  0.62036770138E+02  0.11682130859E+03  0.00000000000E+00 0. -1.
         22    1    3    3    0    0 -0.67195305435E+01 -0.55274808074E+02 -0.19242289690E+03  0.20031731765E+03  0.00000000000E+00 0.  1.
         22    1    3    3    0    0 -0.71327449911E+02 -0.46522587663E+02 -0.13056675543E+04  0.13084417139E+04  0.00000000000E+00 0.  1.
</event>
<event>
 7    1  0.7961130E-006  0.5485439E+02  0.7818608E-02  0.1521282E+00
          2   -1    0    0  502    0  0.00000000000E+00  0.00000000000E+00  0.22122165891E+04  0.22122165891E+04  0.00000000000E+00 0. -1.
          1   -1    0    0  501    0 -0.00000000000E+00 -0.00000000000E+00 -0.18429162713E+03  0.18429162713E+03  0.00000000000E+00 0. -1.
         25    2    1    2    0    0  0.29898263416E+02 -0.12337193427E+02  0.33538948853E+03  0.35938342974E+03  0.12499691219E+03 0.  0.
          2    1    1    2  501    0  0.25590675636E+02  0.76527302198E+01 -0.17084098939E+03  0.17291642668E+03  0.00000000000E+00 0. -1.
          1    1    1    2  502    0 -0.55488939052E+02  0.46844632073E+01  0.18633764628E+04  0.18642083598E+04  0.00000000000E+00 0. -1.
         22    1    3    3    0    0 -0.19904814054E+02 -0.22328412548E+02  0.28915224644E+03  0.29069534096E+03  0.00000000000E+00 0. -1.
         22    1    3    3    0    0  0.49803077470E+02  0.99912191209E+01  0.46237242088E+02  0.68688088785E+02  0.00000000000E+00 0. -1.
</event>
<event>
 7    1  0.7961130E-006  0.1070808E+03  0.7818608E-02  0.1414105E+00
          2   -1    0    0  502    0  0.00000000000E+00  0.00000000000E+00  0.97892040246E+03  0.97892040246E+03  0.00000000000E+00 0. -1.
          1   -1    0    0  501    0 -0.00000000000E+00 -0.00000000000E+00 -0.33920876558E+03  0.33920876558E+03  0.00000000000E+00 0. -1.
         25    2    1    2    0    0  0.10584519410E+03 -0.83110717569E+02  0.52842715314E+03  0.55943734341E+03  0.12499715411E+03 0.  0.
          2    1    1    2  501    0 -0.88958353559E+02  0.58814725082E+02 -0.31439286481E+03  0.33198740036E+03  0.00000000000E+00 0. -1.
          1    1    1    2  502    0 -0.16886840538E+02  0.24295992487E+02  0.42567734854E+03  0.42670442427E+03  0.00000000000E+00 0. -1.
         22    1    3    3    0    0  0.41763617430E+02 -0.10727531812E+03  0.32401271552E+03  0.34385525071E+03  0.00000000000E+00 0. -1.
         22    1    3    3    0    0  0.64081576667E+02  0.24164600547E+02  0.20441443762E+03  0.21558209270E+03  0.00000000000E+00 0. -1.
</event>
<event>
 7    1  0.7961130E-006  0.1027584E+03  0.7818608E-02  0.1349166E+00
          2   -1    0    0  502    0  0.00000000000E+00  0.00000000000E+00  0.36107209627E+02  0.36107209627E+02  0.00000000000E+00 0. -1.
          1   -1    0    0  501    0 -0.00000000000E+00 -0.00000000000E+00 -0.10659738359E+04  0.10659738359E+04  0.00000000000E+00 0. -1.
         25    2    1    2    0    0  0.89125419811E+01 -0.72884908534E+02 -0.49852234207E+03  0.51917436120E+03  0.12500339391E+03 0.  0.
          2    1    1    2  501    0  0.15741587738E+01  0.12413256888E+03 -0.51247652106E+03  0.52729835697E+03  0.00000000000E+00 0. -1.
          1    1    1    2  502    0 -0.10486700755E+02 -0.51247660342E+02 -0.18867763123E+02  0.55608327330E+02  0.00000000000E+00 0. -1.
         22    1    3    3    0    0  0.20095821867E+01 -0.20319881842E+02 -0.43896037271E+03  0.43943502913E+03  0.00000000000E+00 0. -1.
         22    1    3    3    0    0  0.69029597944E+01 -0.52565026692E+02 -0.59561969362E+02  0.79739332072E+02  0.00000000000E+00 0. -1.
</event>
<event>
 7    1  0.7961130E-006  0.1352097E+03  0.7818608E-02  0.1345371E+00
          2   -1    0    0  502    0  0.00000000000E+00  0.00000000000E+00  0.96524121504E+03  0.96524121504E+03  0.00000000000E+00 0. -1.
          1   -1    0    0  501    0 -0.00000000000E+00 -0.00000000000E+00 -0.38141766916E+03  0.38141766916E+03  0.00000000000E+00 0. -1.
         25    2    1    2    0    0 -0.70741346164E+02 -0.14379409407E+03 -0.11906507660E+02  0.20358103671E+03  0.12498957572E+03 0.  0.
          2    1    1    2  501    0  0.80607122692E+02  0.10392782098E+03 -0.25734921374E+03  0.28901058461E+03  0.00000000000E+00 0. -1.
          1    1    1    2  502    0 -0.98657765280E+01  0.39866273084E+02  0.85307926727E+03  0.85406726288E+03  0.00000000000E+00 0. -1.
         22    1    3    3    0    0 -0.33546112556E+02 -0.91158378165E+02  0.54218192343E+02  0.11124209616E+03  0.00000000000E+00 0. -1.
         22    1    3    3    0    0 -0.37195233608E+02 -0.52635715903E+02 -0.66124700003E+02  0.92338940552E+02  0.00000000000E+00 0. -1.
</event>
<event>
 7    1  0.7961130E-006  0.6296734E+02  0.7818608E-02  0.1452943E+00
          2   -1    0    0  502    0  0.00000000000E+00  0.00000000000E+00  0.43225827130E+02  0.43225827130E+02  0.00000000000E+00 0. -1.
          1   -1    0    0  501    0 -0.00000000000E+00 -0.00000000000E+00 -0.54530049546E+03  0.54530049546E+03  0.00000000000E+00 0. -1.
         25    2    1    2    0    0  0.21354493787E+01 -0.22678290989E+02 -0.96422399189E+02  0.15948929824E+03  0.12498276746E+03 0.  0.
          2    1    1    2  501    0 -0.62904729431E+02 -0.28071859735E+01 -0.28175642872E+03  0.28870672039E+03  0.00000000000E+00 0. -1.
          1    1    1    2  502    0  0.60769280052E+02  0.25485476963E+02 -0.12389584042E+03  0.14033030395E+03  0.00000000000E+00 0. -1.
         22    1    3    3    0    0 -0.36406245142E+02  0.23678120208E+02 -0.88634815725E+02  0.98702576565E+02  0.00000000000E+00 0. -1.
         22    1    3    3    0    0  0.38541694521E+02 -0.46356411197E+02 -0.77875834643E+01  0.60786721673E+02  0.00000000000E+00 0. -1.
</event>
<event>
 7    1  0.7961130E-006  0.7236357E+02  0.7818608E-02  0.1372775E+00
          2   -1    0    0  502    0  0.00000000000E+00  0.00000000000E+00  0.35604544066E+03  0.35604544066E+03  0.00000000000E+00 0. -1.
          1   -1    0    0  501    0 -0.00000000000E+00 -0.00000000000E+00 -0.21640663089E+03  0.21640663089E+03  0.00000000000E+00 0. -1.
         25    2    1    2    0    0  0.85343699989E+02 -0.94975898142E+02  0.46527015450E+02  0.18464368544E+03  0.12499823619E+03 0.  0.
          2    1    1    2  501    0 -0.53202068176E+02  0.43212186637E+02 -0.13515961985E+03  0.15154496353E+03  0.00000000000E+00 0. -1.
          1    1    1    2  502    0 -0.32141631813E+02  0.51763711505E+02  0.22827141417E+03  0.23626342258E+03  0.00000000000E+00 0. -1.
         22    1    3    3    0    0  0.84962142804E+02 -0.10965377303E+03  0.30463582503E+01  0.13875084125E+03  0.00000000000E+00 0.  1.
         22    1    3    3    0    0  0.38155718474E+00  0.14677874888E+02  0.43480657200E+02  0.45892844188E+02  0.00000000000E+00 0.  1.
</event>
<event>
 7    1  0.7961130E-006  0.9708168E+02  0.7818608E-02  0.1374161E+00
          2   -1    0    0  502    0  0.00000000000E+00  0.00000000000E+00  0.18059733398E+04  0.18059733398E+04  0.00000000000E+00 0. -1.
          1   -1    0    0  501    0 -0.00000000000E+00 -0.00000000000E+00 -0.10582902494E+04  0.10582902494E+04  0.00000000000E+00 0. -1.
         25    2    1    2    0    0  0.38426107521E+02 -0.77498913290E+02  0.11778624333E+02  0.15246691868E+03  0.12499911199E+03 0.  0.
          2    1    1    2  501    0 -0.78758595184E+02  0.57763597546E+02 -0.98523859453E+03  0.99006799649E+03  0.00000000000E+00 0. -1.
          1    1    1    2  502    0  0.40332487663E+02  0.19735315743E+02  0.17211430606E+04  0.17217286741E+04  0.00000000000E+00 0. -1.
         22    1    3    3    0    0 -0.37913654492E+02 -0.49854645509E+02 -0.19287093026E+02  0.65535660775E+02  0.00000000000E+00 0.  1.
         22    1    3    3    0    0  0.76339762013E+02 -0.27644267781E+02  0.31065717359E+02  0.86931257901E+02  0.00000000000E+00 0.  1.
</event>
<event>
 7    1  0.7961130E-006  0.1916991E+03  0.7818608E-02  0.1208891E+00
          2   -1    0    0  502    0  0.00000000000E+00  0.00000000000E+00  0.89730630648E+03  0.89730630648E+03  0.00000000000E+00 0. -1.
          1   -1    0    0  501    0 -0.00000000000E+00 -0.00000000000E+00 -0.14378851130E+04  0.14378851130E+04  0.00000000000E+00 0. -1.
         25    2    1    2    0    0 -0.25218255843E+02 -0.10794161274E+03  0.59999623516E+02  0.17751666127E+03  0.12499943208E+03 0.  0.
          2    1    1    2  501    0 -0.40030600457E+02  0.19299063157E+03 -0.13683418496E+04  0.13824641949E+04  0.00000000000E+00 0. -1.
          1    1    1    2  502    0  0.65248856300E+02 -0.85049018831E+02  0.76776341962E+03  0.77521056324E+03  0.00000000000E+00 0. -1.
         22    1    3    3    0    0  0.14068008097E+02 -0.30372154412E+02  0.81363755572E+02  0.87979755263E+02  0.00000000000E+00 0. -1.
         22    1    3    3    0    0 -0.39286263940E+02 -0.77569458327E+02 -0.21364132056E+02  0.89536906011E+02  0.00000000000E+00 0. -1.
</event>
<event>
 7    1  0.7961130E-006  0.1032426E+03  0.7818608E-02  0.1422936E+00
          2   -1    0    0  502    0  0.00000000000E+00  0.00000000000E+00  0.25227479865E+04  0.25227479865E+04  0.00000000000E+00 0. -1.
          1   -1    0    0  501    0 -0.00000000000E+00 -0.00000000000E+00 -0.93753348025E+03  0.93753348025E+03  0.00000000000E+00 0. -1.
         25    2    1    2    0    0 -0.85926878618E+02  0.15481376505E+02 -0.18751131859E+02  0.15362321130E+03  0.12500153845E+03 0.  0.
          2    1    1    2  501    0 -0.17287010210E+02 -0.22870668749E+02 -0.85001427693E+03  0.85049760681E+03  0.00000000000E+00 0. -1.
          1    1    1    2  502    0  0.10321388883E+03  0.73892922437E+01  0.24539799151E+04  0.24561606487E+04  0.00000000000E+00 0. -1.
         22    1    3    3    0    0 -0.91156096500E+02 -0.19461113682E+02  0.25845247168E+02  0.96727171343E+02  0.00000000000E+00 0. -1.
         22    1    3    3    0    0  0.52292178821E+01  0.34942490187E+02 -0.44596379027E+02  0.56896039954E+02  0.00000000000E+00 0. -1.
</event>
<event>
 7    1  0.7961130E-006  0.5185411E+02  0.7818608E-02  0.1489492E+00
          2   -1    0    0  502    0  0.00000000000E+00  0.00000000000E+00  0.31428223325E+04  0.31428223325E+04  0.00000000000E+00 0. -1.
          1   -1    0    0  501    0 -0.00000000000E+00 -0.00000000000E+00 -0.43237634151E+03  0.43237634151E+03  0.00000000000E+00 0. -1.
         25    2    1    2    0    0  0.18894081442E+02  0.39210075098E+02  0.24870889024E+03  0.28173645430E+03  0.12499960518E+03 0.  0.
          2    1    1    2  501    0 -0.33373005858E+02  0.10869253559E+02 -0.41488541209E+03  0.41636738988E+03  0.00000000000E+00 0. -1.
          1    1    1    2  502    0  0.14478924417E+02 -0.50079328657E+02  0.28766225128E+04  0.28770948298E+04  0.00000000000E+00 0. -1.
         22    1    3    3    0    0  0.47279008306E+02 -0.20481834911E+02  0.17639613156E+03  0.18376725883E+03  0.00000000000E+00 0.  1.
         22    1    3    3    0    0 -0.28384926865E+02  0.59691910010E+02  0.72312758680E+02  0.97969195473E+02  0.00000000000E+00 0.  1.
</event>
<event>
 7    1  0.7961130E-006  0.7203298E+02  0.7818608E-02  0.1436552E+00
          2   -1    0    0  502    0  0.00000000000E+00  0.00000000000E+00  0.16061281669E+04  0.16061281669E+04  0.00000000000E+00 0. -1.
          1   -1    0    0  501    0 -0.00000000000E+00 -0.00000000000E+00 -0.62743154313E+02  0.62743154313E+02  0.00000000000E+00 0. -1.
         25    2    1    2    0    0 -0.44057450931E+02 -0.18679646171E+02  0.79908987618E+03  0.81022195108E+03  0.12499996657E+03 0.  0.
          2    1    1    2  501    0 -0.20977237599E+02 -0.30550720130E+02 -0.48852574417E+02  0.61318553676E+02  0.00000000000E+00 0. -1.
          1    1    1    2  502    0  0.65034688531E+02  0.49230366301E+02  0.79314771079E+03  0.79733081642E+03  0.00000000000E+00 0. -1.
         22    1    3    3    0    0  0.66333453969E+01 -0.28913863892E+02  0.67676765157E+03  0.67741749831E+03  0.00000000000E+00 0. -1.
         22    1    3    3    0    0 -0.50690796328E+02  0.10234217721E+02  0.12232222461E+03  0.13280445278E+03  0.00000000000E+00 0. -1.
</event>
<event>
 7    1  0.7961130E-006  0.1555367E+03  0.7818608E-02  0.1259764E+00
          2   -1    0    0  502    0  0.00000000000E+00  0.00000000000E+00  0.28673287638E+03  0.28673287638E+03  0.00000000000E+00 0. -1.
          1   -1    0    0  501    0 -0.00000000000E+00 -0.00000000000E+00 -0.32689791470E+03  0.32689791470E+03  0.00000000000E+00 0. -1.
         25    2    1    2    0    0  0.36478443033E+02 -0.13689550754E+03  0.34301707826E+02  0.19202272640E+03  0.12500025401E+03 0.  0.
          2    1    1    2  501    0 -0.11242437403E+03  0.11737947740E+03 -0.20968316469E+03  0.26530022831E+03  0.00000000000E+00 0. -1.
          1    1    1    2  502    0  0.75945930992E+02  0.19516030144E+02  0.13521641854E+03  0.15630783637E+03  0.00000000000E+00 0. -1.
         22    1    3    3    0    0 -0.29307031798E+01  0.14968612740E+02 -0.20747828424E+02  0.25751131486E+02  0.00000000000E+00 0.  1.
         22    1    3    3    0    0  0.39409146213E+02 -0.15186412028E+03  0.55049536250E+02  0.16627159491E+03  0.00000000000E+00 0.  1.
</event>
<event>
 7    1  0.7961130E-006  0.2374798E+03  0.7818608E-02  0.1300809E+00
          2   -1    0    0  502    0  0.00000000000E+00  0.00000000000E+00  0.14221875679E+04  0.14221875679E+04  0.00000000000E+00 0. -1.
          1   -1    0    0  501    0 -0.00000000000E+00 -0.00000000000E+00 -0.54490011449E+02  0.54490011449E+02  0.00000000000E+00 0. -1.
         25    2    1    2    0    0 -0.22322475427E+03 -0.91012374710E+02  0.85363777056E+03  0.89578742464E+03  0.12500049420E+03 0.  0.
          2    1    1    2  501    0  0.21272841366E+02 -0.27483619332E+02  0.47337240036E+02  0.58725611156E+02  0.00000000000E+00 0. -1.
          1    1    1    2  502    0  0.20195191290E+03  0.11849599404E+03  0.46672254581E+03  0.52216454351E+03  0.00000000000E+00 0. -1.
         22    1    3    3    0    0 -0.21521602273E+03 -0.82443558780E+02  0.85348879874E+03  0.88405769404E+03  0.00000000000E+00 0. -1.
         22    1    3    3    0    0 -0.80087315360E+01 -0.85688159292E+01  0.14897181940E+00  0.11729730596E+02  0.00000000000E+00 0. -1.
</event>
<event>
 7    1  0.7961130E-006  0.1025900E+03  0.7818608E-02  0.1437970E+00
          2   -1    0    0  502    0  0.00000000000E+00  0.00000000000E+00  0.74339518130E+03  0.74339518130E+03  0.00000000000E+00 0. -1.
          1   -1    0    0  501    0 -0.00000000000E+00 -0.00000000000E+00 -0.77083510784E+03  0.77083510784E+03  0.00000000000E+00 0. -1.
         25    2    1    2    0    0  0.31128222484E+02  0.76428698615E+02 -0.16091824308E+03  0.21984025208E+03  0.12499897308E+03 0.  0.
          2    1    1    2  501    0 -0.28548924870E+02 -0.10204469110E+03 -0.57538430032E+03  0.58506004234E+03  0.00000000000E+00 0. -1.
          1    1    1    2  502    0 -0.25792976144E+01  0.25615992489E+02  0.70886261685E+03  0.70932999472E+03  0.00000000000E+00 0. -1.
         22    1    3    3    0    0  0.55186551317E+01 -0.34882698855E+02 -0.43512646841E+02  0.56041133723E+02  0.00000000000E+00 0. -1.
         22    1    3    3    0    0  0.25609567352E+02  0.11131139747E+03 -0.11740559624E+03  0.16379911836E+03  0.00000000000E+00 0. -1.
</event>
<event>
 7    1  0.7961130E-006  0.3889503E+02  0.7818608E-02  0.1559438E+00
          2   -1    0    0  502    0  0.00000000000E+00  0.00000000000E+00  0.19602636936E+03  0.19602636936E+03  0.00000000000E+00 0. -1.
          1   -1    0    0  501    0 -0.00000000000E+00 -0.00000000000E+00 -0.15423356428E+03  0.15423356428E+03  0.00000000000E+00 0. -1.
         25    2    1    2    0    0  0.19434757261E+02  0.67470629396E+01  0.14339402195E+02  0.12749788109E+03  0.12500743410E+03 0.  0.
          2    1    1    2  501    0 -0.17988029395E+02 -0.36099527103E+02 -0.91625766564E+02  0.10011007021E+03  0.00000000000E+00 0. -1.
          1    1    1    2  502    0 -0.14467278658E+01  0.29352464163E+02  0.11907916945E+03  0.12265198233E+03  0.00000000000E+00 0. -1.
         22    1    3    3    0    0 -0.24755455678E+02 -0.33322389455E+02  0.44329523324E+02  0.60731547510E+02  0.00000000000E+00 0. -1.
         22    1    3    3    0    0  0.44190212938E+02  0.40069452394E+02 -0.29990121130E+02  0.66766333583E+02  0.00000000000E+00 0. -1.
</event>
<event>
 7    1  0.7961130E-006  0.4489552E+02  0.7818608E-02  0.1531653E+00
          2   -1    0    0  502    0  0.00000000000E+00  0.00000000000E+00  0.17582280703E+03  0.17582280703E+03  0.00000000000E+00 0. -1.
          1   -1    0    0  501    0 -0.00000000000E+00 -0.00000000000E+00 -0.39037042498E+03  0.39037042498E+03  0.00000000000E+00 0. -1.
         25    2    1    2    0    0 -0.37385017821E+02 -0.45177795504E+02  0.20424031386E+02  0.13957467812E+03  0.12500110780E+03 0.  0.
          2    1    1    2  501    0  0.42168388568E+02  0.15088273998E+02 -0.32680680185E+03  0.32986135685E+03  0.00000000000E+00 0. -1.
          1    1    1    2  502    0 -0.47833707470E+01  0.30089521506E+02  0.91835152513E+02  0.96757197031E+02  0.00000000000E+00 0. -1.
         22    1    3    3    0    0 -0.10038980542E+02  0.23078969864E+02 -0.38055111808E+02  0.45624680986E+02  0.00000000000E+00 0.  1.
         22    1    3    3    0    0 -0.27346037278E+02 -0.68256765368E+02  0.58479143194E+02  0.93949997137E+02  0.00000000000E+00 0.  1.
</event>
<event>
 7    1  0.7961130E-006  0.1256347E+03  0.7818608E-02  0.1287521E+00
          2   -1    0    0  502    0  0.00000000000E+00  0.00000000000E+00  0.18208458883E+04  0.18208458883E+04  0.00000000000E+00 0. -1.
          1   -1    0    0  501    0 -0.00000000000E+00 -0.00000000000E+00 -0.12185794685E+04  0.12185794685E+04  0.00000000000E+00 0. -1.
         25    2    1    2    0    0  0.16294891255E+03  0.74758013118E+02 -0.13380817414E+02  0.21896577349E+03  0.12500342018E+03 0.  0.
          2    1    1    2  501    0 -0.38676803090E+02 -0.63485509818E+02 -0.10988829591E+04  0.11013945990E+04  0.00000000000E+00 0. -1.
          1    1    1    2  502    0 -0.12427210946E+03 -0.11272503300E+02  0.17145301962E+04  0.17190649843E+04  0.00000000000E+00 0. -1.
         22    1    3    3    0    0  0.42762084682E+02 -0.33505928009E+02 -0.17738845795E+02  0.57148138624E+02  0.00000000000E+00 0.  1.
         22    1    3    3    0    0  0.12018682787E+03  0.10826394113E+03  0.43580283810E+01  0.16181763486E+03  0.00000000000E+00 0.  1.
</event>
<event>
 7    1  0.7961130E-006  0.9510726E+02  0.7818608E-02  0.1362158E+00
          2   -1    0    0  502    0  0.00000000000E+00  0.00000000000E+00  0.52542464767E+03  0.52542464767E+03  0.00000000000E+00 0. -1.
          1   -1    0    0  501    0 -0.00000000000E+00 -0.00000000000E+00 -0.24179645717E+03  0.24179645717E+03  0.00000000000E+00 0. -1.
         25    2    1    2    0    0  0.88923847162E+02  0.39151530189E+01 -0.12116703007E+02  0.15392980025E+03  0.12499915958E+03 0.  0.
          2    1    1    2  501    0 -0.82572328556E+02 -0.54151292307E+02 -0.14181768692E+03  0.17280858840E+03  0.00000000000E+00 0. -1.
          1    1    1    2  502    0 -0.63515186052E+01  0.50236139288E+02  0.43756258042E+03  0.44048271619E+03  0.00000000000E+00 0. -1.
         22    1    3    3    0    0  0.94100405356E+02  0.43757808886E+02 -0.32673306512E+02  0.10879879174E+03  0.00000000000E+00 0.  1.
         22    1    3    3    0    0 -0.51765581939E+01 -0.39842655867E+02  0.20556603505E+02  0.45131008508E+02  0.00000000000E+00 0.  1.
</event>
<event>
 7    1  0.7961130E-006  0.9421319E+02  0.7818608E-02  0.1406762E+00
          2   -1    0    0  502    0  0.00000000000E+00  0.00000000000E+00  0.84473454261E+03  0.84473454261E+03  0.00000000000E+00 0. -1.
          1   -1    0    0  501    0 -0.00000000000E+00 -0.00000000000E+00 -0.79713773216E+03  0.79713773216E+03  0.00000000000E+00 0. -1.
         25    2    1    2    0    0  0.66084134710E+02 -0.81819640953E+02 -0.13137041451E+03  0.20962898707E+03  0.12499823961E+03 0.  0.
          2    1    1    2  501    0 -0.34915561285E+02 -0.70033120940E+01 -0.62337833837E+03  0.62439466329E+03  0.00000000000E+00 0. -1.
          1    1    1    2  502    0 -0.31168573425E+02  0.88822953047E+02  0.80234556334E+03  0.80784862441E+03  0.00000000000E+00 0. -1.
         22    1    3    3    0    0  0.51109853178E+02 -0.55193430233E+01 -0.12064015536E+03  0.13113629293E+03  0.00000000000E+00 0.  1.
         22    1    3    3    0    0  0.14974281533E+02 -0.76300297930E+02 -0.10730259157E+02  0.78492694139E+02  0.00000000000E+00 0.  1.
</event>
<event>
 7    1  0.7961130E-006  0.1050222E+03  0.7818608E-02  0.1374149E+00
          2   -1    0    0  502    0  0.00000000000E+00  0.00000000000E+00  0.65769203594E+03  0.65769203594E+03  0.00000000000E+00 0. -1.
          1   -1    0    0  501    0 -0.00000000000E+00 -0.00000000000E+00 -0.34510994667E+03  0.34510994667E+03  0.00000000000E+00 0. -1.
         25    2    1    2    0    0 -0.60369831763E+02 -0.47798917810E+02 -0.13559986168E+02  0.14743910247E+03  0.12500065032E+03 0.  0.
          2    1    1    2  501    0 -0.40030089904E+02  0.10989213885E+02 -0.25809912844E+03  0.26141601141E+03  0.00000000000E+00 0. -1.
          1    1    1    2  502    0  0.10039992167E+03  0.36809703925E+02  0.58424120388E+03  0.59394686873E+03  0.00000000000E+00 0. -1.
         22    1    3    3    0    0 -0.32540514543E+02  0.33274330352E+01 -0.63053053475E+02  0.71032699864E+02  0.00000000000E+00 0. -1.
         22    1    3    3    0    0 -0.27829317219E+02 -0.51126350846E+02  0.49493067307E+02  0.76406402606E+02  0.00000000000E+00 0. -1.
</event>
<event>
 7    1  0.7961130E-006  0.3750359E+02  0.7818608E-02  0.1536658E+00
          2   -1    0    0  502    0  0.00000000000E+00  0.00000000000E+00  0.19596477929E+04  0.19596477929E+04  0.00000000000E+00 0. -1.
          1   -1    0    0  501    0 -0.00000000000E+00 -0.00000000000E+00 -0.23070109028E+02  0.23070109028E+02  0.00000000000E+00 0. -1.
         25    2    1    2    0    0 -0.99552233713E+01  0.43811943354E+02  0.50611082618E+03  0.52324540172E+03  0.12497595447E+03 0.  0.
          2    1    1    2  501    0 -0.23492158589E+02 -0.26340240312E+02  0.75974457476E+01  0.36102783227E+02  0.00000000000E+00 0. -1.
          1    1    1    2  502    0  0.33447381960E+02 -0.17471703042E+02  0.14228694119E+04  0.14233697170E+04  0.00000000000E+00 0. -1.
         22    1    3    3    0    0 -0.34039523962E+02  0.80506174811E+02  0.37216864161E+03  0.38229495311E+03  0.00000000000E+00 0.  1.
         22    1    3    3    0    0  0.24084300591E+02 -0.36694231457E+02  0.13394218457E+03  0.14095044861E+03  0.00000000000E+00 0.  1.
</event>
<event>
 7    1  0.7961130E-006  0.2884890E+02  0.7818608E-02  0.1626361E+00
          2   -1    0    0  502    0  0.00000000000E+00  0.00000000000E+00  0.16906338836E+03  0.16906338836E+03  0.00000000000E+00 0. -1.
          1   -1    0    0  501    0 -0.00000000000E+00 -0.00000000000E+00 -0.11410124507E+04  0.11410124507E+04  0.00000000000E+00 0. -1.
         25    2    1    2    0    0  0.16307417603E+01  0.14838415301E+02 -0.58788670626E+03  0.60121417443E+03  0.12499946499E+03 0.  0.
          2    1    1    2  501    0  0.24624351357E+02 -0.17469859632E+02 -0.54496957570E+03  0.54580527032E+03  0.00000000000E+00 0. -1.
          1    1    1    2  502    0 -0.26255093118E+02  0.26314443312E+01  0.16090721960E+03  0.16305639433E+03  0.00000000000E+00 0. -1.
         22    1    3    3    0    0 -0.42739000801E+02  0.52279646362E+02 -0.33686604302E+03  0.34356733627E+03  0.00000000000E+00 0.  1.
         22    1    3    3    0    0  0.44369742561E+02 -0.37441231061E+02 -0.25102066324E+03  0.25764683816E+03  0.00000000000E+00 0.  1.
</event>
<event>
 7    1  0.7961130E-006  0.2332421E+03  0.7818608E-02  0.1238920E+00
          2   -1    0    0  502    0  0.00000000000E+00  0.00000000000E+00  0.12601236956E+04  0.12601236956E+04  0.00000000000E+00 0. -1.
          1   -1    0    0  501    0 -0.00000000000E+00 -0.00000000000E+00 -0.50253955512E+03  0.50253955512E+03  0.00000000000E+00 0. -1.
         25    2    1    2    0    0 -0.27719732271E+03  0.33905217613E+02  0.43041200594E+03  0.52807808948E+03  0.12499621687E+03 0.  0.
          2    1    1    2  501    0  0.22111814874E+03 -0.65585824815E+02 -0.42292575108E+03  0.48172702545E+03  0.00000000000E+00 0. -1.
          1    1    1    2  502    0  0.56079173976E+02  0.31680607202E+02  0.75009788559E+03  0.75285813577E+03  0.00000000000E+00 0. -1.
         22    1    3    3    0    0 -0.81244529684E+02  0.68210210072E+02  0.16986879488E+03  0.20027160017E+03  0.00000000000E+00 0. -1.
         22    1    3    3    0    0 -0.19595279303E+03 -0.34304992459E+02  0.26054321106E+03  0.32780648931E+03  0.00000000000E+00 0. -1.
</event>
<event>
 7    1  0.7961130E-006  0.1161602E+03  0.7818608E-02  0.1288382E+00
          2   -1    0    0  502    0  0.00000000000E+00  0.00000000000E+00  0.15654096553E+04  0.15654096553E+04  0.00000000000E+00 0. -1.
          1   -1    0    0  501    0 -0.00000000000E+00 -0.00000000000E+00 -0.54893322005E+03  0.54893322005E+03  0.00000000000E+00 0. -1.
         25    2    1    2    0    0 -0.98617136865E+02  0.56885659594E+02 -0.16438738548E+02  0.16987200999E+03  0.12499979881E+03 0.  0.
          2    1    1    2  501    0  0.40684260212E+02 -0.11169975990E+03 -0.44693414155E+03  0.46247396929E+03  0.00000000000E+00 0. -1.
          1    1    1    2  502    0  0.57932876653E+02  0.54814100309E+02  0.14798493154E+04  0.14819968961E+04  0.00000000000E+00 0. -1.
         22    1    3    3    0    0  0.10405968457E+02  0.25175840202E+02  0.35721026941E+02  0.44923255394E+02  0.00000000000E+00 0.  1.
         22    1    3    3    0    0 -0.10902310532E+03  0.31709819392E+02 -0.52159765489E+02  0.12494875460E+03  0.00000000000E+00 0.  1.
</event>
<event>
 7    1  0.7961130E-006  0.5239275E+02  0.7818608E-02  0.1469540E+00
          2   -1    0    0  502    0  0.00000000000E+00  0.00000000000E+00  0.85479163076E+03  0.85479163076E+03  0.00000000000E+00 0. -1.
          1   -1    0    0  501    0 -0.00000000000E+00 -0.00000000000E+00 -0.14208021429E+03  0.14208021429E+03  0.00000000000E+00 0. -1.
         25    2    1    2    0    0 -0.30150255084E+02  0.73345436516E+02  0.35843996420E+03  0.38780358800E+03  0.12499529585E+03 0.  0.
          2    1    1    2  501    0 -0.72577804048E+01 -0.39335030313E+02 -0.12289007521E+03  0.12923579446E+03  0.00000000000E+00 0. -1.
          1    1    1    2  502    0  0.37408035488E+02 -0.34010406204E+02  0.47716152748E+03  0.47983246259E+03  0.00000000000E+00 0. -1.
         22    1    3    3    0    0 -0.11090321307E+02  0.29933091185E+02  0.33197317192E+03  0.33350438085E+03  0.00000000000E+00 0.  1.
         22    1    3    3    0    0 -0.19059933777E+02  0.43412345331E+02  0.26466792288E+02  0.54299207147E+02  0.00000000000E+00 0.  1.
</event>
<event>
 7    1  0.7961130E-006  0.1295773E+03  0.7818608E-02  0.1302394E+00
          2   -1    0    0  502    0  0.00000000000E+00  0.00000000000E+00  0.32285322366E+03  0.32285322366E+03  0.00000000000E+00 0. -1.
          1   -1    0    0  501    0 -0.00000000000E+00 -0.00000000000E+00 -0.12485798688E+04  0.12485798688E+04  0.00000000000E+00 0. -1.
         25    2    1    2    0    0 -0.21886262857E+02  0.78777864957E+02  0.67605243380E+02  0.16394878151E+03  0.12499509398E+03 0.  0.
          2    1    1    2  501    0  0.79021687909E+02 -0.10478115949E+03 -0.11919648912E+04  0.11991679701E+04  0.00000000000E+00 0. -1.
          1    1    1    2  502    0 -0.57135425052E+02  0.26003294532E+02  0.19863300269E+03  0.20831634088E+03  0.00000000000E+00 0. -1.
         22    1    3    3    0    0 -0.29162601060E+02  0.44031703362E+02  0.10178374733E+03  0.11466987147E+03  0.00000000000E+00 0.  1.
         22    1    3    3    0    0  0.72763382035E+01  0.34746161595E+02 -0.34178503949E+02  0.49278910047E+02  0.00000000000E+00 0.  1.
</event>
<event>
 7    1  0.7961130E-006  0.7243529E+02  0.7818608E-02  0.1401378E+00
          2   -1    0    0  502    0  0.00000000000E+00  0.00000000000E+00  0.23859630242E+04  0.23859630242E+04  0.00000000000E+00 0. -1.
          1   -1    0    0  501    0 -0.00000000000E+00 -0.00000000000E+00 -0.82463767680E+03  0.82463767680E+03  0.00000000000E+00 0. -1.
         25    2    1    2    0    0  0.69955415744E+01 -0.33325732436E+02  0.75738425792E+02  0.15006798887E+03  0.12499820038E+03 0.  0.
          2    1    1    2  501    0  0.44669914285E+02 -0.18429981280E+02 -0.78614264179E+03  0.78762638268E+03  0.00000000000E+00 0. -1.
          1    1    1    2  502    0 -0.51665455859E+02  0.51755713716E+02  0.22717295634E+04  0.22729063295E+04  0.00000000000E+00 0. -1.
         22    1    3    3    0    0  0.31557860462E+02 -0.55695756595E+02 -0.35370550297E+01  0.64112608883E+02  0.00000000000E+00 0.  1.
         22    1    3    3    0    0 -0.24562318887E+02  0.22370024159E+02  0.79275480821E+02  0.85955379991E+02  0.00000000000E+00 0.  1.
</event>
<event>
 7    1  0.7961130E-006  0.2622786E+03  0.7818608E-02  0.1240588E+00
          2   -1    0    0  502    0  0.00000000000E+00  0.00000000000E+00  0.19315583496E+04  0.19315583496E+04  0.00000000000E+00 0. -1.
          1   -1    0    0  501    0 -0.00000000000E+00 -0.00000000000E+00 -0.30447694357E+04  0.30447694357E+04  0.00000000000E+00 0. -1.
         25    2    1    2    0    0  0.17555858983E+02  0.23505398047E+03  0.15422267264E+03  0.30816780293E+03  0.12499672031E+03 0.  0.
          2    1    1    2  501    0  0.51775534826E+02  0.22153381405E+02 -0.29570936962E+04  0.29576298968E+04  0.00000000000E+00 0. -1.
          1    1    1    2  502    0 -0.69331393810E+02 -0.25720736187E+03  0.16896599375E+04  0.17105300856E+04  0.00000000000E+00 0. -1.
         22    1    3    3    0    0 -0.44756702927E+02  0.49127739366E+02  0.16293190459E+02  0.68426349365E+02  0.00000000000E+00 0. -1.
         22    1    3    3    0    0  0.62312561910E+02  0.18592624110E+03  0.13792948218E+03  0.23974145356E+03  0.00000000000E+00 0. -1.
</event>
<event>
 7    1  0.7961130E-006  0.7121183E+02  0.7818608E-02  0.1434921E+00
          2   -1    0    0  502    0  0.00000000000E+00  0.00000000000E+00  0.72992692690E+03  0.72992692690E+03  0.00000000000E+00 0. -1.
          1   -1    0    0  501    0 -0.00000000000E+00 -0.00000000000E+00 -0.21060649844E+03  0.21060649844E+03  0.00000000000E+00 0. -1.
         25    2    1    2    0    0  0.35008928005E+01 -0.43185925068E+02  0.17580222583E+03  0.22002066650E+03  0.12500156281E+03 0.  0.
          2    1    1    2  501    0 -0.36035467174E+02  0.62721037802E+02 -0.18084650229E+03  0.19477664354E+03  0.00000000000E+00 0. -1.
          1    1    1    2  502    0  0.32534574374E+02 -0.19535112734E+02  0.52436470493E+03  0.52573611530E+03  0.00000000000E+00 0. -1.
         22    1    3    3    0    0  0.12710089469E+02  0.11152151644E+02 -0.14266069454E+02  0.22123236613E+02  0.00000000000E+00 0.  1.
         22    1    3    3    0    0 -0.92091966680E+01 -0.54338076712E+02  0.19006829528E+03  0.19789742989E+03  0.00000000000E+00 0.  1.
</event>
<event>
 7    1  0.7961130E-006  0.9936149E+02  0.7818608E-02  0.1329512E+00
          2   -1    0    0  502    0  0.00000000000E+00  0.00000000000E+00  0.79386086926E+03  0.79386086926E+03  0.00000000000E+00 0. -1.
          1   -1    0    0  501    0 -0.00000000000E+00 -0.00000000000E+00 -0.10742242429E+04  0.10742242429E+04  0.00000000000E+00 0. -1.
         25    2    1    2    0    0 -0.14945442911E+03  0.12914676851E+02 -0.17242840901E+03  0.26049933359E+03  0.12499972523E+03 0.  0.
          2    1    1    2  501    0  0.58692667396E+02  0.25893658929E+02 -0.85330246014E+03  0.85571046462E+03  0.00000000000E+00 0. -1.
          1    1    1    2  502    0  0.90761761710E+02 -0.38808335780E+02  0.74536749553E+03  0.75187531393E+03  0.00000000000E+00 0. -1.
         22    1    3    3    0    0  0.25966604383E+01 -0.44548215625E+01 -0.83174489260E+02  0.83334169128E+02  0.00000000000E+00 0. -1.
         22    1    3    3    0    0 -0.15205108954E+03  0.17369498413E+02 -0.89253919754E+02  0.17716516446E+03  0.00000000000E+00 0. -1.
</event>
<event>
 7    1  0.7961130E-006  0.1767365E+03  0.7818608E-02  0.1190834E+00
          2   -1    0    0  502    0  0.00000000000E+00  0.00000000000E+00  0.12075656353E+03  0.12075656353E+03  0.00000000000E+00 0. -1.
          1   -1    0    0  501    0 -0.00000000000E+00 -0.00000000000E+00 -0.10626674734E+04  0.10626674734E+04  0.00000000000E+00 0. -1.
         25    2    1    2    0    0  0.44285956058E+02  0.20158289112E+02 -0.14650851860E+03  0.19864206907E+03  0.12500529212E+03 0.  0.
          2    1    1    2  501    0  0.11749661674E+03  0.13202400098E+03 -0.73309421879E+03  0.75409742434E+03  0.00000000000E+00 0. -1.
          1    1    1    2  502    0 -0.16178257280E+03 -0.15218229009E+03 -0.62308172526E+02  0.23068454357E+03  0.00000000000E+00 0. -1.
         22    1    3    3    0    0 -0.35695300631E+01  0.21083174538E+02 -0.14917849533E+03  0.15070323574E+03  0.00000000000E+00 0.  1.
         22    1    3    3    0    0  0.47855486121E+02 -0.92488542684E+00  0.26699767312E+01  0.47938833326E+02  0.00000000000E+00 0.  1.
</event>
<event>
 7    1  0.7961130E-006  0.5364311E+02  0.7818608E-02  0.1486854E+00
          2   -1    0    0  502    0  0.00000000000E+00  0.00000000000E+00  0.88521869902E+03  0.88521869902E+03  0.00000000000E+00 0. -1.
          1   -1    0    0  501    0 -0.00000000000E+00 -0.00000000000E+00 -0.69761521201E+03  0.69761521201E+03  0.00000000000E+00 0. -1.
         25    2    1    2    0    0  0.33850587759E+02  0.34906324391E+02 -0.63295140675E+02  0.14831014694E+03  0.12500124431E+03 0.  0.
          2    1    1    2  501    0  0.19538428498E+02 -0.28505531361E+02 -0.59044905048E+03  0.59145954783E+03  0.00000000000E+00 0. -1.
          1    1    1    2  502    0 -0.53389016257E+02 -0.64007930306E+01  0.84134767816E+03  0.84306421627E+03  0.00000000000E+00 0. -1.
         22    1    3    3    0    0 -0.92172203836E+01 -0.39154649200E+02 -0.45641136219E+02  0.60837135213E+02  0.00000000000E+00 0. -1.
         22    1    3    3    0    0  0.43067808142E+02  0.74060973591E+02 -0.17654004456E+02  0.87473011728E+02  0.00000000000E+00 0. -1.
</event>
<event>
 7    1  0.7961130E-006  0.7440189E+02  0.7818608E-02  0.1386813E+00
          2   -1    0    0  502    0  0.00000000000E+00  0.00000000000E+00  0.14702429434E+03  0.14702429434E+03  0.00000000000E+00 0. -1.
          1   -1    0    0  501    0 -0.00000000000E+00 -0.00000000000E+00 -0.14578856465E+03  0.14578856465E+03  0.00000000000E+00 0. -1.
         25    2    1    2    0    0  0.31894487324E+01 -0.36224583109E+02 -0.49593259598E+02  0.13931104993E+03  0.12500273690E+03 0.  0.
          2    1    1    2  501    0  0.36780187024E+02 -0.37950729444E+02 -0.39580688587E+01  0.52997229475E+02  0.00000000000E+00 0. -1.
          1    1    1    2  502    0 -0.39969635757E+02  0.74175312553E+02  0.54787058149E+02  0.10050457957E+03  0.00000000000E+00 0. -1.
         22    1    3    3    0    0 -0.32515337402E+02  0.28721430644E+02 -0.48659855158E+02  0.65191634805E+02  0.00000000000E+00 0.  1.
         22    1    3    3    0    0  0.35704786134E+02 -0.64946013753E+02 -0.93340444044E+00  0.74119415130E+02  0.00000000000E+00 0.  1.
</event>
<event>
 7    1  0.7961130E-006  0.2261448E+03  0.7818608E-02  0.1364232E+00
          2   -1    0    0  502    0  0.00000000000E+00  0.00000000000E+00  0.53171835038E+03  0.53171835038E+03  0.00000000000E+00 0. -1.
          1   -1    0    0  501    0 -0.00000000000E+00 -0.00000000000E+00 -0.35827694484E+03  0.35827694484E+03  0.00000000000E+00 0. -1.
         25    2    1    2    0    0 -0.17634703883E+03  0.16622853866E+03 -0.12186031025E+03  0.29867160413E+03  0.12499834691E+03 0.  0.
          2    1    1    2  501    0  0.20137713003E+02 -0.57014392423E+01 -0.11874445223E+03  0.12057478522E+03  0.00000000000E+00 0. -1.
          1    1    1    2  502    0  0.15620932583E+03 -0.16052709942E+03  0.41404616802E+03  0.47074890587E+03  0.00000000000E+00 0. -1.
         22    1    3    3    0    0 -0.27391622027E+02 -0.53016021132E+01 -0.55305259197E+02  0.61944165481E+02  0.00000000000E+00 0. -1.
         22    1    3    3    0    0 -0.14895541680E+03  0.17153014078E+03 -0.66555051048E+02  0.23672743865E+03  0.00000000000E+00 0. -1.
</event>
<event>
 7    1  0.7961130E-006  0.9243869E+02  0.7818608E-02  0.1390386E+00
          2   -1    0    0  502    0  0.00000000000E+00  0.00000000000E+00  0.27079387151E+04  0.27079387151E+04  0.00000000000E+00 0. -1.
          1   -1    0    0  501    0 -0.00000000000E+00 -0.00000000000E+00 -0.55366366252E+02  0.55366366252E+02  0.00000000000E+00 0. -1.
         25    2    1    2    0    0 -0.13141172045E+02  0.55905642772E+02  0.31686604753E+03  0.34543810814E+03  0.12500105273E+03 0.  0.
          2    1    1    2  501    0  0.24202973029E+02 -0.95728803265E+02  0.18705024698E+02  0.10049709263E+03  0.00000000000E+00 0. -1.
          1    1    1    2  502    0 -0.11061800984E+02  0.39823160493E+02  0.23170012766E+04  0.23173698806E+04  0.00000000000E+00 0. -1.
         22    1    3    3    0    0  0.49974999658E+02  0.72858934057E+01  0.72073175194E+02  0.88006405540E+02  0.00000000000E+00 0. -1.
         22    1    3    3    0    0 -0.63116171703E+02  0.48619749366E+02  0.24479287233E+03  0.25743170260E+03  0.00000000000E+00 0. -1.
</event>
<event>
 7    1  0.7961130E-006  0.8938770E+02  0.7818608E-02  0.1452451E+00
          2   -1    0    0  502    0  0.00000000000E+00  0.00000000000E+00  0.63565863266E+03  0.63565863266E+03  0.00000000000E+00 0. -1.
          1   -1    0    0  501    0 -0.00000000000E+00 -0.00000000000E+00 -0.36583223073E+03  0.36583223073E+03  0.00000000000E+00 0. -1.
         25    2    1    2    0    0  0.38509843204E+02  0.92417202983E+02  0.53501413363E+02  0.16885609822E+03  0.12500413290E+03 0.  0.
          2    1    1    2  501    0 -0.26172527711E+02 -0.43931903753E+01 -0.30380642416E+03  0.30496334975E+03  0.00000000000E+00 0. -1.
          1    1    1    2  502    0 -0.12337315493E+02 -0.88024012608E+02  0.52013141273E+03  0.52767141543E+03  0.00000000000E+00 0. -1.
         22    1    3    3    0    0  0.65746670185E+01  0.64443591902E+02  0.91345443578E+02  0.11198300249E+03  0.00000000000E+00 0. -1.
         22    1    3    3    0    0  0.31935176185E+02  0.27973611082E+02 -0.37844030216E+02  0.56873095730E+02  0.00000000000E+00 0. -1.
</event>
<event>
 7    1  0.7961130E-006  0.2704029E+03  0.7818608E-02  0.1187278E+00
          2   -1    0    0  502    0  0.00000000000E+00  0.00000000000E+00  0.73210996939E+03  0.73210996939E+03  0.00000000000E+00 0. -1.
          1   -1    0    0  501    0 -0.00000000000E+00 -0.00000000000E+00 -0.51203208093E+03  0.51203208093E+03  0.00000000000E+00 0. -1.
         25    2    1    2    0    0 -0.89951399705E+02 -0.21051194849E+03 -0.13282068368E+03  0.29270077355E+03  0.12500349618E+03 0.  0.
          2    1    1    2  501    0  0.78323964210E+02  0.30598111714E+03 -0.21071308581E+03  0.37968288340E+03  0.00000000000E+00 0. -1.
          1    1    1    2  502    0  0.11627435495E+02 -0.95469168653E+02  0.56361165794E+03  0.57175839337E+03  0.00000000000E+00 0. -1.
         22    1    3    3    0    0  0.26917465281E+02 -0.83336999274E+02 -0.35920114913E+02  0.94656537231E+02  0.00000000000E+00 0.  1.
         22    1    3    3    0    0 -0.11686886499E+03 -0.12717494922E+03 -0.96900568769E+02  0.19804423632E+03  0.00000000000E+00 0.  1.
</event>
<event>
 7    1  0.7961130E-006  0.3692720E+02  0.7818608E-02  0.1542889E+00
          2   -1    0    0  502    0  0.00000000000E+00  0.00000000000E+00  0.72317538627E+03  0.72317538627E+03  0.00000000000E+00 0. -1.
          1   -1    0    0  501    0 -0.00000000000E+00 -0.00000000000E+00 -0.84738874040E+02  0.84738874040E+02  0.00000000000E+00 0. -1.
         25    2    1    2    0    0  0.37174750222E+02  0.54823257927E+02  0.92403318654E+02  0.16896962919E+03  0.12499924250E+03 0.  0.
          2    1    1    2  501    0 -0.28249254879E+02 -0.21580531069E+02 -0.39074316527E+02  0.52825580305E+02  0.00000000000E+00 0. -1.
          1    1    1    2  502    0 -0.89254953428E+01 -0.33242726858E+02  0.58510751010E+03  0.58611905082E+03  0.00000000000E+00 0. -1.
         22    1    3    3    0    0  0.54787574181E+02  0.76439313905E+02  0.10269186474E+03  0.13924893565E+03  0.00000000000E+00 0. -1.
         22    1    3    3    0    0 -0.17612823959E+02 -0.21616055979E+02 -0.10288546085E+02  0.29720693539E+02  0.00000000000E+00 0. -1.
</event>
<event>
 7    1  0.7961130E-006  0.4410732E+02  0.7818608E-02  0.1500356E+00
          2   -1    0    0  502    0  0.00000000000E+00  0.00000000000E+00  0.27211346335E+03  0.27211346335E+03  0.00000000000E+00 0. -1.
          1   -1    0    0  501    0 -0.00000000000E+00 -0.00000000000E+00 -0.15371815171E+04  0.15371815171E+04  0.00000000000E+00 0. -1.
         25    2    1    2    0    0  0.23316405207E+02  0.67983735771E+02 -0.46806047631E+03  0.48976753728E+03  0.12500475195E+03 0.  0.
          2    1    1    2  501    0 -0.30743436371E+02 -0.30436310351E+02 -0.10564205909E+04  0.10573060071E+04  0.00000000000E+00 0. -1.
          1    1    1    2  502    0  0.74270311637E+01 -0.37547425420E+02  0.25941301347E+03  0.26222143602E+03  0.00000000000E+00 0. -1.
         22    1    3    3    0    0 -0.42020974203E+02  0.16888211588E+01 -0.76519490524E+02  0.87314642643E+02  0.00000000000E+00 0. -1.
         22    1    3    3    0    0  0.65337379410E+02  0.66294914612E+02 -0.39154098579E+03  0.40245289464E+03  0.00000000000E+00 0. -1.
</event>
<event>
 7    1  0.7961130E-006  0.6108492E+02  0.7818608E-02  0.1457034E+00
          2   -1    0    0  502    0  0.00000000000E+00  0.00000000000E+00  0.47335972120E+02  0.47335972120E+02  0.00000000000E+00 0. -1.
          1   -1    0    0  501    0 -0.00000000000E+00 -0.00000000000E+00 -0.25237166862E+04  0.25237166862E+04  0.00000000000E+00 0. -1.
         25    2    1    2    0    0  0.45182726862E+01  0.24617344841E+02 -0.59656292050E+03  0.61003252115E+03  0.12500372108E+03 0.  0.
          2    1    1    2  501    0  0.97940458157E+01  0.36254428869E+02 -0.18960452750E+04  0.18964171461E+04  0.00000000000E+00 0. -1.
          1    1    1    2  502    0 -0.14312318502E+02 -0.60871773710E+02  0.16227481512E+02  0.64602991043E+02  0.00000000000E+00 0. -1.
         22    1    3    3    0    0  0.59279010177E+02  0.19558783048E+02 -0.19568401649E+03  0.20539907826E+03  0.00000000000E+00 0.  1.
         22    1    3    3    0    0 -0.54760737491E+02  0.50585617933E+01 -0.40087890402E+03  0.40463344289E+03  0.00000000000E+00 0.  1.
</event>
<event>
 7    1  0.7961130E-006  0.1141603E+03  0.7818608E-02  0.1346759E+00
          2   -1    0    0  502    0  0.00000000000E+00  0.00000000000E+00  0.93037903715E+02  0.93037903715E+02  0.00000000000E+00 0. -1.
          1   -1    0    0  501    0 -0.00000000000E+00 -0.00000000000E+00 -0.98352407389E+03  0.98352407389E+03  0.00000000000E+00 0. -1.
         25    2    1    2    0    0  0.14467414003E+03  0.53367371972E+02 -0.44995210500E+03  0.49180124854E+03  0.12503154837E+03 0.  0.
          2    1    1    2  501    0 -0.36189816081E+02 -0.31631378709E+02 -0.46824290078E+03  0.47070336842E+03  0.00000000000E+00 0. -1.
          1    1    1    2  502    0 -0.10848432395E+03 -0.21735993263E+02  0.27708835613E+02  0.11405736064E+03  0.00000000000E+00 0. -1.
         22    1    3    3    0    0 -0.36409262679E+01  0.37896007041E+02 -0.38430386656E+02  0.54094900982E+02  0.00000000000E+00 0.  1.
         22    1    3    3    0    0  0.14831506630E+03  0.15471364931E+02 -0.41152171835E+03  0.43770634756E+03  0.00000000000E+00 0.  1.
</event>
<event>
 7    1  0.7961130E-006  0.4928700E+02  0.7818608E-02  0.1485672E+00
          2   -1    0    0  502    0  0.00000000000E+00  0.00000000000E+00  0.71338382549E+03  0.71338382549E+03  0.00000000000E+00 0. -1.
          1   -1    0    0  501    0 -0.00000000000E+00 -0.00000000000E+00 -0.45791073738E+02  0.45791073738E+02  0.00000000000E+00 0. -1.
         25    2    1    2    0    0  0.35068088123E+02  0.64859276773E+02  0.17599578205E+03  0.22811118876E+03  0.12499481009E+03 0.  0.
          2    1    1    2  501    0 -0.34222610347E+02 -0.16345805963E+02  0.86181575571E+00  0.37935671313E+02  0.00000000000E+00 0. -1.
          1    1    1    2  502    0 -0.84547777559E+00 -0.48513470811E+02  0.49073515394E+03  0.49312803915E+03  0.00000000000E+00 0. -1.
         22    1    3    3    0    0  0.33779447391E+02  0.99280411716E+02  0.15691965881E+03  0.18873640491E+03  0.00000000000E+00 0. -1.
         22    1    3    3    0    0  0.12886407320E+01 -0.34421134943E+02  0.19076123246E+02  0.39374783857E+02  0.00000000000E+00 0. -1.
</event>
<event>
 7    1  0.7961130E-006  0.1363528E+03  0.7818608E-02  0.1278515E+00
          2   -1    0    0  502    0  0.00000000000E+00  0.00000000000E+00  0.12191102013E+04  0.12191102013E+04  0.00000000000E+00 0. -1.
          1   -1    0    0  501    0 -0.00000000000E+00 -0.00000000000E+00 -0.82957500504E+02  0.82957500504E+02  0.00000000000E+00 0. -1.
         25    2    1    2    0    0 -0.18071357355E+03 -0.32570441972E+02  0.56303336593E+03  0.60526821408E+03  0.12499924185E+03 0.  0.
          2    1    1    2  501    0  0.11395303240E+03  0.65845744286E+02  0.13577701925E+02  0.13230763252E+03  0.00000000000E+00 0. -1.
          1    1    1    2  502    0  0.66760541153E+02 -0.33275302314E+02  0.55954163293E+03  0.56449185520E+03  0.00000000000E+00 0. -1.
         22    1    3    3    0    0 -0.51996786918E+02 -0.47206817075E+02  0.34142329396E+03  0.34857139166E+03  0.00000000000E+00 0. -1.
         22    1    3    3    0    0 -0.12871678664E+03  0.14636375103E+02  0.22161007197E+03  0.25669682242E+03  0.00000000000E+00 0. -1.
</event>
<event>
 7    1  0.7961130E-006  0.6442024E+02  0.7818608E-02  0.1449496E+00
          2   -1    0    0  502    0  0.00000000000E+00  0.00000000000E+00  0.17933805866E+04  0.17933805866E+04  0.00000000000E+00 0. -1.
          1   -1    0    0  501    0 -0.00000000000E+00 -0.00000000000E+00 -0.51088921006E+02  0.51088921006E+02  0.00000000000E+00 0. -1.
         25    2    1    2    0    0  0.35452951154E+02 -0.27672904362E+02  0.27660887229E+03  0.30685143254E+03  0.12499052780E+03 0.  0.
          2    1    1    2  501    0 -0.66864223191E+02  0.69453629082E+01 -0.41044027128E+01  0.67349153896E+02  0.00000000000E+00 0. -1.
          1    1    1    2  502    0  0.31411272037E+02  0.20727541454E+02  0.14697871961E+04  0.14702689212E+04  0.00000000000E+00 0. -1.
         22    1    3    3    0    0 -0.19155442351E+02 -0.64247980154E+02  0.13477875109E+03  0.15053254024E+03  0.00000000000E+00 0. -1.
         22    1    3    3    0    0  0.54608393505E+02  0.36575075792E+02  0.14183012120E+03  0.15631889230E+03  0.00000000000E+00 0. -1.
</event>
<event>
 7    1  0.7961130E-006  0.6278465E+02  0.7818608E-02  0.1415446E+00
          2   -1    0    0  502    0  0.00000000000E+00  0.00000000000E+00  0.23554846061E+04  0.23554846061E+04  0.00000000000E+00 0. -1.
          1   -1    0    0  501    0 -0.00000000000E+00 -0.00000000000E+00 -0.18505232480E+02  0.18505232480E+02  0.00000000000E+00 0. -1.
         25    2    1    2    0    0  0.72928016084E+02 -0.43764014098E+02  0.60720104246E+03  0.62574108342E+03  0.12500005223E+03 0.  0.
          2    1    1    2  501    0 -0.60993522735E+02 -0.47306430224E+01  0.96828175090E+02  0.11453507886E+03  0.00000000000E+00 0. -1.
          1    1    1    2  502    0 -0.11934493349E+02  0.48494657120E+02  0.16329501561E+04  0.16337136763E+04  0.00000000000E+00 0. -1.
         22    1    3    3    0    0  0.43601672246E+02 -0.81175069859E+02  0.50077159587E+03  0.50917844517E+03  0.00000000000E+00 0.  1.
         22    1    3    3    0    0  0.29326343839E+02  0.37411055761E+02  0.10642944659E+03  0.11656263826E+03  0.00000000000E+00 0.  1.
</event>
<event>
 7    1  0.7961130E-006  0.2553654E+03  0.7818608E-02  0.1149297E+00
          2   -1    0    0  502    0  0.00000000000E+00  0.00000000000E+00  0.94352533918E+03  0.94352533918E+03  0.00000000000E+00 0. -1.
          1   -1    0    0  501    0 -0.00000000000E+00 -0.00000000000E+00 -0.98550014343E+03  0.98550014343E+03  0.00000000000E+00 0. -1.
         25    2    1    2    0    0  0.13892408530E+03 -0.30956923746E+02 -0.44262339120E+02  0.19453133334E+03  0.12500020953E+03 0.  0.
          2    1    1    2  501    0 -0.29408361481E+03  0.41368632793E+01 -0.83356972872E+03  0.88393482722E+03  0.00000000000E+00 0. -1.
          1    1    1    2  502    0  0.15515952951E+03  0.26820060467E+02  0.83585726359E+03  0.85055932205E+03  0.00000000000E+00 0. -1.
         22    1    3    3    0    0  0.14873525634E+03 -0.36808757020E+02 -0.68423235562E+02  0.16780584089E+03  0.00000000000E+00 0.  1.
         22    1    3    3    0    0 -0.98111710408E+01  0.58518332737E+01  0.24160896442E+02  0.26725492451E+02  0.00000000000E+00 0.  1.
</event>
<event>
 7    1  0.7961130E-006  0.9874415E+02  0.7818608E-02  0.1407277E+00
          2   -1    0    0  502    0  0.00000000000E+00  0.00000000000E+00  0.86449660462E+02  0.86449660462E+02  0.00000000000E+00 0. -1.
          1   -1    0    0  501    0 -0.00000000000E+00 -0.00000000000E+00 -0.37954368665E+03  0.37954368665E+03  0.00000000000E+00 0. -1.
         25    2    1    2    0    0  0.10403644655E+03  0.45209104356E+02 -0.24953775467E+03  0.30126453857E+03  0.12499514339E+03 0.  0.
          2    1    1    2  501    0 -0.86995718487E+02 -0.15972712356E+02 -0.76912110729E+02  0.11721286342E+03  0.00000000000E+00 0. -1.
          1    1    1    2  502    0 -0.17040728062E+02 -0.29236392000E+02  0.33355839214E+02  0.47515945110E+02  0.00000000000E+00 0. -1.
         22    1    3    3    0    0  0.30527266076E+02  0.75402146321E+02 -0.80333402184E+02  0.11432783191E+03  0.00000000000E+00 0. -1.
         22    1    3    3    0    0  0.73509180473E+02 -0.30193041965E+02 -0.16920435248E+03  0.18693670666E+03  0.00000000000E+00 0. -1.
</event>
<event>
 7    1  0.7961130E-006  0.1202380E+03  0.7818608E-02  0.1303702E+00
          2   -1    0    0  502    0  0.00000000000E+00  0.00000000000E+00  0.79520678773E+03  0.79520678773E+03  0.00000000000E+00 0. -1.
          1   -1    0    0  501    0 -0.00000000000E+00 -0.00000000000E+00 -0.47605823422E+03  0.47605823422E+03  0.00000000000E+00 0. -1.
         25    2    1    2    0    0  0.65017708356E+01  0.96769395079E+02  0.64120101017E+02  0.17071113410E+03  0.12499726038E+03 0.  0.
          2    1    1    2  501    0 -0.73310023738E+02 -0.98935301266E+02 -0.41209060948E+03  0.43009443595E+03  0.00000000000E+00 0. -1.
          1    1    1    2  502    0  0.66808252903E+02  0.21659061870E+01  0.66711906197E+03  0.67045945191E+03  0.00000000000E+00 0. -1.
         22    1    3    3    0    0 -0.52767815139E+02  0.80026781798E+02  0.30787331367E+02  0.10068062322E+03  0.00000000000E+00 0.  1.
         22    1    3    3    0    0  0.59269585974E+02  0.16742613282E+02  0.33332769650E+02  0.70030510877E+02  0.00000000000E+00 0.  1.
</event>
<event>
 7    1  0.7961130E-006  0.1238471E+03  0.7818608E-02  0.1292540E+00
          2   -1    0    0  502    0  0.00000000000E+00  0.00000000000E+00  0.53632246071E+03  0.53632246071E+03  0.00000000000E+00 0. -1.
          1   -1    0    0  501    0 -0.00000000000E+00 -0.00000000000E+00 -0.30959627037E+03  0.30959627037E+03  0.00000000000E+00 0. -1.
         25    2    1    2    0    0 -0.97629236373E+02  0.61064363132E+01  0.12918084793E+02  0.15924569903E+03  0.12499423741E+03 0.  0.
          2    1    1    2  501    0 -0.14241345432E+02 -0.70526505321E+02 -0.22136063926E+03  0.23276025539E+03  0.00000000000E+00 0. -1.
          1    1    1    2  502    0  0.11187058180E+03  0.64420069007E+02  0.43516874481E+03  0.45391277667E+03  0.00000000000E+00 0. -1.
         22    1    3    3    0    0 -0.12380582982E+03 -0.14604404159E+02  0.16170797071E+02  0.12570865840E+03  0.00000000000E+00 0.  1.
         22    1    3    3    0    0  0.26176593445E+02  0.20710840472E+02 -0.32527122778E+01  0.33537040636E+02  0.00000000000E+00 0.  1.
</event>
<event>
 7    1  0.7961130E-006  0.6192057E+02  0.7818608E-02  0.1464272E+00
          2   -1    0    0  502    0  0.00000000000E+00  0.00000000000E+00  0.15059754741E+04  0.15059754741E+04  0.00000000000E+00 0. -1.
          1   -1    0    0  501    0 -0.00000000000E+00 -0.00000000000E+00 -0.36366748128E+03  0.36366748128E+03  0.00000000000E+00 0. -1.
         25    2    1    2    0    0  0.26545034759E+02  0.69024385016E+02  0.31790406786E+03  0.34951373859E+03  0.12501140951E+03 0.  0.
          2    1    1    2  501    0 -0.34279479759E+02 -0.77815775241E+01 -0.34615929188E+03  0.34793949335E+03  0.00000000000E+00 0. -1.
          1    1    1    2  502    0  0.77344450006E+01 -0.61242807491E+02  0.11705632169E+04  0.11721897235E+04  0.00000000000E+00 0. -1.
         22    1    3    3    0    0  0.66966252589E+01  0.37632922538E+02  0.30895521871E+03  0.31131079136E+03  0.00000000000E+00 0. -1.
         22    1    3    3    0    0  0.19848409500E+02  0.31391462477E+02  0.89488491436E+01  0.38202947231E+02  0.00000000000E+00 0. -1.
</event>
<event>
 7    1  0.7961130E-006  0.4804842E+02  0.7818608E-02  0.1526328E+00
          2   -1    0    0  502    0  0.00000000000E+00  0.00000000000E+00  0.26756580940E+04  0.26756580940E+04  0.00000000000E+00 0. -1.
          1   -1    0    0  501    0 -0.00000000000E+00 -0.00000000000E+00 -0.89842756986E+02  0.89842756986E+02  0.00000000000E+00 0. -1.
         25    2    1    2    0    0  0.19018465041E+01 -0.37642239454E+02  0.49274947193E+03  0.50975184783E+03  0.12499739621E+03 0.  0.
          2    1    1    2  501    0 -0.31375037226E+02  0.36732302068E+02 -0.74060019778E+02  0.88422516961E+02  0.00000000000E+00 0. -1.
          1    1    1    2  502    0  0.29473190722E+02  0.90993738607E+00  0.21671258848E+04  0.21673264862E+04  0.00000000000E+00 0. -1.
         22    1    3    3    0    0  0.37916143098E+02  0.22707855346E+02  0.83140040883E+02  0.94157033725E+02  0.00000000000E+00 0.  1.
         22    1    3    3    0    0 -0.36014296593E+02 -0.60350094801E+02  0.40960943105E+03  0.41559481410E+03  0.00000000000E+00 0.  1.
</event>
<event>
 7    1  0.7961130E-006  0.2830323E+02  0.7818608E-02  0.1666091E+00
          2   -1    0    0  502    0  0.00000000000E+00  0.00000000000E+00  0.12632355243E+03  0.12632355243E+03  0.00000000000E+00 0. -1.
          1   -1    0    0  501    0 -0.00000000000E+00 -0.00000000000E+00 -0.31261968164E+03  0.31261968164E+03  0.00000000000E+00 0. -1.
         25    2    1    2    0    0  0.93959332591E+01 -0.72976306082E+01 -0.11870437054E+03  0.17279192934E+03  0.12499913713E+03 0.  0.
          2    1    1    2  501    0 -0.48294338883E+01 -0.20916783416E+02 -0.16410077992E+03  0.16549894631E+03  0.00000000000E+00 0. -1.
          1    1    1    2  502    0 -0.45664993708E+01  0.28214414024E+02  0.96509021248E+02  0.10065235843E+03  0.00000000000E+00 0. -1.
         22    1    3    3    0    0  0.67100307751E+02 -0.77960514516E+01 -0.70002080346E+02  0.97280629990E+02  0.00000000000E+00 0. -1.
         22    1    3    3    0    0 -0.57704374491E+02  0.49842084332E+00 -0.48702290193E+02  0.75511299345E+02  0.00000000000E+00 0. -1.
</event>
<event>
 7    1  0.7961130E-006  0.1561061E+03  0.7818608E-02  0.1274386E+00
          2   -1    0    0  502    0  0.00000000000E+00  0.00000000000E+00  0.17269600143E+04  0.17269600143E+04  0.00000000000E+00 0. -1.
          1   -1    0    0  501    0 -0.00000000000E+00 -0.00000000000E+00 -0.52943837515E+03  0.52943837515E+03  0.00000000000E+00 0. -1.
         25    2    1    2    0    0  0.10865469861E+03  0.36603075810E+02 -0.46198083248E+01  0.16968206563E+03  0.12500012832E+03 0.  0.
          2    1    1    2  501    0  0.49317277365E+02 -0.46497947168E+02 -0.43585311986E+03  0.44109204825E+03  0.00000000000E+00 0. -1.
          1    1    1    2  502    0 -0.15797197597E+03  0.98948713579E+01  0.16379945674E+04  0.16456242756E+04  0.00000000000E+00 0. -1.
         22    1    3    3    0    0  0.78126736036E+02  0.82962971925E+02 -0.64727474102E+01  0.11414262155E+03  0.00000000000E+00 0.  1.
         22    1    3    3    0    0  0.30527962569E+02 -0.46359896115E+02  0.18529390854E+01  0.55539444088E+02  0.00000000000E+00 0.  1.
</event>
<event>
 7    1  0.7961130E-006  0.1390237E+03  0.7818608E-02  0.1326618E+00
          2   -1    0    0  502    0  0.00000000000E+00  0.00000000000E+00  0.10172570749E+04  0.10172570749E+04  0.00000000000E+00 0. -1.
          1   -1    0    0  501    0 -0.00000000000E+00 -0.00000000000E+00 -0.46413780975E+03  0.46413780975E+03  0.00000000000E+00 0. -1.
         25    2    1    2    0    0  0.12043239016E+03  0.12755493713E+03  0.39621512633E+03  0.45098371504E+03  0.12500264924E+03 0.  0.
          2    1    1    2  501    0 -0.24813680099E+02 -0.39956873756E+02 -0.42836922121E+03  0.43094368561E+03  0.00000000000E+00 0. -1.
          1    1    1    2  502    0 -0.95618710060E+02 -0.87598063371E+02  0.58527336000E+03  0.59946748398E+03  0.00000000000E+00 0. -1.
         22    1    3    3    0    0 -0.18660973805E+02  0.23394172376E+01  0.88669732248E+01  0.20792499382E+02  0.00000000000E+00 0. -1.
         22    1    3    3    0    0  0.13909336396E+03  0.12521551989E+03  0.38734815310E+03  0.43019121566E+03  0.00000000000E+00 0. -1.
</event>
<event>
 7    1  0.7961130E-006  0.7554631E+02  0.7818608E-02  0.1460728E+00
          2   -1    0    0  502    0  0.00000000000E+00  0.00000000000E+00  0.17916769959E+04  0.17916769959E+04  0.00000000000E+00 0. -1.
          1   -1    0    0  501    0 -0.00000000000E+00 -0.00000000000E+00 -0.22723134992E+03  0.22723134992E+03  0.00000000000E+00 0. -1.
         25    2    1    2    0    0  0.12001054704E+02 -0.55483193513E+02  0.12598308520E+03  0.18633119293E+03  0.12500066250E+03 0.  0.
          2    1    1    2  501    0  0.92551228754E+01  0.76025326183E+02 -0.18947667487E+03  0.20436956193E+03  0.00000000000E+00 0. -1.
          1    1    1    2  502    0 -0.21256177579E+02 -0.20542132670E+02  0.16279392357E+04  0.16282075910E+04  0.00000000000E+00 0. -1.
         22    1    3    3    0    0 -0.36366813089E+02 -0.76369744330E+02  0.78968389222E+02  0.11571901071E+03  0.00000000000E+00 0.  1.
         22    1    3    3    0    0  0.48367867792E+02  0.20886550817E+02  0.47014695981E+02  0.70612182221E+02  0.00000000000E+00 0.  1.
</event>
<event>
 7    1  0.7961130E-006  0.6855822E+02  0.7818608E-02  0.1410286E+00
          2   -1    0    0  502    0  0.00000000000E+00  0.00000000000E+00  0.10890152859E+04  0.10890152859E+04  0.00000000000E+00 0. -1.
          1   -1    0    0  501    0 -0.00000000000E+00 -0.00000000000E+00 -0.24969132246E+04  0.24969132246E+04  0.00000000000E+00 0. -1.
         25    2    1    2    0    0 -0.26258448980E+02  0.27798081711E+01  0.12832430900E+01  0.12777431016E+03  0.12500957622E+03 0.  0.
          2    1    1    2  501    0  0.56317543272E+02 -0.39696706018E+02 -0.24326265683E+04  0.24336021686E+04  0.00000000000E+00 0. -1.
          1    1    1    2  502    0 -0.30059094292E+02  0.36916897847E+02  0.10234453865E+04  0.10245520317E+04  0.00000000000E+00 0. -1.
         22    1    3    3    0    0  0.21448097120E+02  0.53640976088E+02  0.46704806412E+01  0.57958507358E+02  0.00000000000E+00 0. -1.
         22    1    3    3    0    0 -0.47706546100E+02 -0.50861167917E+02 -0.33872375512E+01  0.69815802802E+02  0.00000000000E+00 0. -1.
</event>
<event>
 7    1  0.7961130E-006  0.1319900E+03  0.7818608E-02  0.1315254E+00
          2   -1    0    0  502    0  0.00000000000E+00  0.00000000000E+00  0.78177910368E+03  0.78177910368E+03  0.00000000000E+00 0. -1.
          1   -1    0    0  501    0 -0.00000000000E+00 -0.00000000000E+00 -0.30621557996E+04  0.30621557996E+04  0.00000000000E+00 0. -1.
         25    2    1    2    0    0  0.61393809660E+02 -0.64287769212E+02 -0.32637338196E+02  0.15677361296E+03  0.12494259779E+03 0.  0.
          2    1    1    2  501    0 -0.11621709284E+03  0.64920241867E+02 -0.29649105071E+04  0.29678974654E+04  0.00000000000E+00 0. -1.
          1    1    1    2  502    0  0.54823283177E+02 -0.63247265455E+00  0.71717114931E+03  0.71926382490E+03  0.00000000000E+00 0. -1.
         22    1    3    3    0    0 -0.49913080137E+01 -0.55338738595E+02 -0.62331418921E+02  0.83501466632E+02  0.00000000000E+00 0. -1.
         22    1    3    3    0    0  0.66385117674E+02 -0.89490306177E+01  0.29694080725E+02  0.73272146329E+02  0.00000000000E+00 0. -1.
</event>
<event>
 7    1  0.7961130E-006  0.1142756E+03  0.7818608E-02  0.1328793E+00
          2   -1    0    0  502    0  0.00000000000E+00  0.00000000000E+00  0.71879394377E+03  0.71879394377E+03  0.00000000000E+00 0. -1.
          1   -1    0    0  501    0 -0.00000000000E+00 -0.00000000000E+00 -0.68393818028E+03  0.68393818028E+03  0.00000000000E+00 0. -1.
         25    2    1    2    0    0  0.86707825479E+02  0.33857335649E+02 -0.20160801566E+03  0.25482409069E+03  0.12499983616E+03 0.  0.
          2    1    1    2  501    0 -0.84279036681E+02 -0.89937503634E+02 -0.44621521747E+03  0.46292518929E+03  0.00000000000E+00 0. -1.
          1    1    1    2  502    0 -0.24287887978E+01  0.56080167985E+02  0.68267899662E+03  0.68498284407E+03  0.00000000000E+00 0. -1.
         22    1    3    3    0    0  0.10282679694E+02 -0.43554295048E+02 -0.40045464175E+02  0.60052887690E+02  0.00000000000E+00 0. -1.
         22    1    3    3    0    0  0.76425145785E+02  0.77411630697E+02 -0.16156255148E+03  0.19477120300E+03  0.00000000000E+00 0. -1.
</event>
<event>
 7    1  0.7961130E-006  0.1121841E+03  0.7818608E-02  0.1260041E+00
          2   -1    0    0  502    0  0.00000000000E+00  0.00000000000E+00  0.11837601939E+04  0.11837601939E+04  0.00000000000E+00 0. -1.
          1   -1    0    0  501    0 -0.00000000000E+00 -0.00000000000E+00 -0.10391973952E+04  0.10391973952E+04  0.00000000000E+00 0. -1.
         25    2    1    2    0    0  0.18283236342E+03 -0.74983737454E+02  0.11799149938E+02  0.23412551748E+03  0.12500121598E+03 0.  0.
          2    1    1    2  501    0 -0.72538358194E+02  0.80579415499E+02 -0.92197484012E+03  0.92832777693E+03  0.00000000000E+00 0. -1.
          1    1    1    2  502    0 -0.11029400523E+03 -0.55956780448E+01  0.10547384889E+04  0.10605042947E+04  0.00000000000E+00 0. -1.
         22    1    3    3    0    0 -0.10320736637E+01  0.24657970277E+02  0.29922917031E+00  0.24681373793E+02  0.00000000000E+00 0. -1.
         22    1    3    3    0    0  0.18386443709E+03 -0.99641707731E+02  0.11499920768E+02  0.20944414368E+03  0.00000000000E+00 0. -1.
</event>
<event>
 7    1  0.7961130E-006  0.4592216E+02  0.7818608E-02  0.1513700E+00
          2   -1    0    0  502    0  0.00000000000E+00  0.00000000000E+00  0.46746543080E+02  0.46746543080E+02  0.00000000000E+00 0. -1.
          1   -1    0    0  501    0 -0.00000000000E+00 -0.00000000000E+00 -0.24414602210E+04  0.24414602210E+04  0.00000000000E+00 0. -1.
         25    2    1    2    0    0 -0.73610891371E+02 -0.23648590327E+02 -0.25320156197E+03  0.29276746923E+03  0.12499576354E+03 0.  0.
          2    1    1    2  501    0  0.32550727584E+02  0.82125616608E+01 -0.21504167832E+04  0.21506788086E+04  0.00000000000E+00 0. -1.
          1    1    1    2  502    0  0.41060163787E+02  0.15436028666E+02  0.89046672920E+01  0.44760486266E+02  0.00000000000E+00 0. -1.
         22    1    3    3    0    0 -0.37242584087E+02  0.27652706334E+02 -0.18755979576E+02  0.50034678043E+02  0.00000000000E+00 0.  1.
         22    1    3    3    0    0 -0.36368307284E+02 -0.51301296661E+02 -0.23444558240E+03  0.24273279119E+03  0.00000000000E+00 0.  1.
</event>
<event>
 7    1  0.7961130E-006  0.4081754E+02  0.7818608E-02  0.1567215E+00
          2   -1    0    0  502    0  0.00000000000E+00  0.00000000000E+00  0.13387801654E+04  0.13387801654E+04  0.00000000000E+00 0. -1.
          1   -1    0    0  501    0 -0.00000000000E+00 -0.00000000000E+00 -0.46647047352E+03  0.46647047352E+03  0.00000000000E+00 0. -1.
         25    2    1    2    0    0 -0.46881777706E+02  0.48183647229E+02  0.14319003765E+03  0.20161516009E+03  0.12500288379E+03 0.  0.
          2    1    1    2  501    0  0.26997050617E+02 -0.30421223046E+02 -0.43615925101E+03  0.43805157663E+03  0.00000000000E+00 0. -1.
          1    1    1    2  502    0  0.19884727089E+02 -0.17762424183E+02  0.11652789052E+04  0.11655839022E+04  0.00000000000E+00 0. -1.
         22    1    3    3    0    0  0.26577213158E+02 -0.23298758761E+02  0.59867827410E+02  0.69522206365E+02  0.00000000000E+00 0.  1.
         22    1    3    3    0    0 -0.73458990865E+02  0.71482405990E+02  0.83322210241E+02  0.13209295373E+03  0.00000000000E+00 0.  1.
</event>
<event>
 7    1  0.7961130E-006  0.7272933E+02  0.7818608E-02  0.1427589E+00
          2   -1    0    0  502    0  0.00000000000E+00  0.00000000000E+00  0.28404777848E+04  0.28404777848E+04  0.00000000000E+00 0. -1.
          1   -1    0    0  501    0 -0.00000000000E+00 -0.00000000000E+00 -0.10558816300E+04  0.10558816300E+04  0.00000000000E+00 0. -1.
         25    2    1    2    0    0 -0.43557183348E+02  0.63076609591E+02  0.10231032254E+03  0.17879442103E+03  0.12499662394E+03 0.  0.
          2    1    1    2  501    0  0.38103000610E+02  0.95307922976E+01 -0.10167694444E+04  0.10175277774E+04  0.00000000000E+00 0. -1.
          1    1    1    2  502    0  0.54541827377E+01 -0.72607401889E+02  0.26990552767E+04  0.27000372164E+04  0.00000000000E+00 0. -1.
         22    1    3    3    0    0 -0.58350698080E+02 -0.18944653569E+02  0.29270260326E+02  0.67973906794E+02  0.00000000000E+00 0.  1.
         22    1    3    3    0    0  0.14793514732E+02  0.82021263160E+02  0.73040062211E+02  0.11082051424E+03  0.00000000000E+00 0.  1.
</event>
<event>
 7    1  0.7961130E-006  0.1292936E+03  0.7818608E-02  0.1405396E+00
          2   -1    0    0  502    0  0.00000000000E+00  0.00000000000E+00  0.14168161899E+04  0.14168161899E+04  0.00000000000E+00 0. -1.
          1   -1    0    0  501    0 -0.00000000000E+00 -0.00000000000E+00 -0.19521794709E+03  0.19521794709E+03  0.00000000000E+00 0. -1.
         25    2    1    2    0    0  0.38275309753E+02 -0.13076413521E+03  0.92667554199E+03  0.94494154009E+03  0.12499078233E+03 0.  0.
          2    1    1    2  501    0 -0.12134976890E+02  0.12861324820E+03 -0.16324388625E+03  0.20817586718E+03  0.00000000000E+00 0. -1.
          1    1    1    2  502    0 -0.26140332862E+02  0.21508870110E+01  0.45816658704E+03  0.45891672970E+03  0.00000000000E+00 0. -1.
         22    1    3    3    0    0  0.50411942570E+02 -0.87234259173E+02  0.29655998496E+03  0.31320760624E+03  0.00000000000E+00 0.  1.
         22    1    3    3    0    0 -0.12136632817E+02 -0.43529876038E+02  0.63011555703E+03  0.63173393385E+03  0.00000000000E+00 0.  1.
</event>
<event>
 7    1  0.7961130E-006  0.1364540E+03  0.7818608E-02  0.1396928E+00
          2   -1    0    0  502    0  0.00000000000E+00  0.00000000000E+00  0.24016829120E+04  0.24016829120E+04  0.00000000000E+00 0. -1.
          1   -1    0    0  501    0 -0.00000000000E+00 -0.00000000000E+00 -0.20768979628E+03  0.20768979628E+03  0.00000000000E+00 0. -1.
         25    2    1    2    0    0 -0.59244235165E+02  0.10879911876E+03  0.63588588051E+03  0.65978903473E+03  0.12499435859E+03 0.  0.
          2    1    1    2  501    0  0.43216395811E+02 -0.12999382878E+03 -0.17165536657E+03  0.21961697853E+03  0.00000000000E+00 0. -1.
          1    1    1    2  502    0  0.16027839354E+02  0.21194710017E+02  0.17297626018E+04  0.17299666950E+04  0.00000000000E+00 0. -1.
         22    1    3    3    0    0 -0.27505894230E+02 -0.23257064302E+02  0.83248232922E+02  0.90706854989E+02  0.00000000000E+00 0.  1.
         22    1    3    3    0    0 -0.31738340935E+02  0.13205618306E+03  0.55263764759E+03  0.56908217974E+03  0.00000000000E+00 0.  1.
</event>
<event>
 7    1  0.7961130E-006  0.5890898E+02  0.7818608E-02  0.1543441E+00
          2   -1    0    0  502    0  0.00000000000E+00  0.00000000000E+00  0.90406153049E+02  0.90406153049E+02  0.00000000000E+00 0. -1.
          1   -1    0    0  501    0 -0.00000000000E+00 -0.00000000000E+00 -0.17589213413E+04  0.17589213413E+04  0.00000000000E+00 0. -1.
         25    2    1    2    0    0  0.49291713241E+02  0.45899029911E+02 -0.50298053938E+03  0.52263417860E+03  0.12498266961E+03 0.  0.
          2    1    1    2  501    0 -0.53049505772E+02 -0.24730785677E+02 -0.12439794843E+04  0.12453556998E+04  0.00000000000E+00 0. -1.
          1    1    1    2  502    0  0.37577925307E+01 -0.21168244234E+02  0.78444835379E+02  0.81337615937E+02  0.00000000000E+00 0. -1.
         22    1    3    3    0    0 -0.34292384657E+02  0.26071157171E+02 -0.28670032013E+03  0.28991851690E+03  0.00000000000E+00 0. -1.
         22    1    3    3    0    0  0.83584097898E+02  0.19827872740E+02 -0.21628021926E+03  0.23271566170E+03  0.00000000000E+00 0. -1.
</event>
<event>
 7    1  0.7961130E-006  0.1142896E+03  0.7818608E-02  0.1260623E+00
          2   -1    0    0  502    0  0.00000000000E+00  0.00000000000E+00  0.24511853061E+03  0.24511853061E+03  0.00000000000E+00 0. -1.
          1   -1    0    0  501    0 -0.00000000000E+00 -0.00000000000E+00 -0.18611995818E+04  0.18611995818E+04  0.00000000000E+00 0. -1.
         25    2    1    2    0    0  0.19827722554E+03  0.50876742762E+02 -0.52487283523E+03  0.57707983419E+03  0.12500936266E+03 0.  0.
          2    1    1    2  501    0 -0.10516400191E+03  0.11730840198E+02 -0.12935487507E+04  0.12978695814E+04  0.00000000000E+00 0. -1.
          1    1    1    2  502    0 -0.93113223635E+02 -0.62607582959E+02  0.20234053474E+03  0.23136869680E+03  0.00000000000E+00 0. -1.
         22    1    3    3    0    0  0.17194361851E+03  0.78335059835E+02 -0.34623720681E+03  0.39443781883E+03  0.00000000000E+00 0. -1.
         22    1    3    3    0    0  0.26333607033E+02 -0.27458317073E+02 -0.17863562842E+03  0.18264201537E+03  0.00000000000E+00 0. -1.
</event>
<event>
 7    1  0.7961130E-006  0.8930283E+02  0.7818608E-02  0.1458605E+00
          2   -1    0    0  502    0  0.00000000000E+00  0.00000000000E+00  0.40720326525E+03  0.40720326525E+03  0.00000000000E+00 0. -1.
          1   -1    0    0  501    0 -0.00000000000E+00 -0.00000000000E+00 -0.14534871050E+04  0.14534871050E+04  0.00000000000E+00 0. -1.
         25    2    1    2    0    0  0.98357916422E+02 -0.48031305969E+02 -0.10290234462E+03  0.19543359633E+03  0.12499644783E+03 0.  0.
          2    1    1    2  501    0 -0.25306885397E+02 -0.21197081001E+01 -0.12987548113E+04  0.12990030760E+04  0.00000000000E+00 0. -1.
          1    1    1    2  502    0 -0.73051031025E+02  0.50151014069E+02  0.35537331619E+03  0.36625369788E+03  0.00000000000E+00 0. -1.
         22    1    3    3    0    0  0.75190443483E+02  0.20001988155E+02 -0.10712363170E+02  0.78539398050E+02  0.00000000000E+00 0. -1.
         22    1    3    3    0    0  0.23167472939E+02 -0.68033294123E+02 -0.92189981450E+02  0.11689419828E+03  0.00000000000E+00 0. -1.
</event>
<event>
 7    1  0.7961130E-006  0.8457659E+02  0.7818608E-02  0.1420739E+00
          2   -1    0    0  502    0  0.00000000000E+00  0.00000000000E+00  0.83688823102E+03  0.83688823102E+03  0.00000000000E+00 0. -1.
          1   -1    0    0  501    0 -0.00000000000E+00 -0.00000000000E+00 -0.15610547051E+03  0.15610547051E+03  0.00000000000E+00 0. -1.
         25    2    1    2    0    0  0.11389796743E+03  0.67146104770E+01  0.12861831423E+03  0.21256802458E+03  0.12499864536E+03 0.  0.
          2    1    1    2  501    0 -0.80134299718E+02 -0.17971867162E+02 -0.98807686042E+02  0.12848133258E+03  0.00000000000E+00 0. -1.
          1    1    1    2  502    0 -0.33763667711E+02  0.11257256685E+02  0.65097213233E+03  0.65194434437E+03  0.00000000000E+00 0. -1.
         22    1    3    3    0    0  0.83579067260E+02  0.31495471640E+02  0.14485496322E+03  0.17017751199E+03  0.00000000000E+00 0.  1.
         22    1    3    3    0    0  0.30318900169E+02 -0.24780861163E+02 -0.16236648988E+02  0.42390512592E+02  0.00000000000E+00 0.  1.
</event>
<event>
 7    1  0.7961130E-006  0.1196174E+03  0.7818608E-02  0.1260424E+00
          2   -1    0    0  502    0  0.00000000000E+00  0.00000000000E+00  0.80826233080E+03  0.80826233080E+03  0.00000000000E+00 0. -1.
          1   -1    0    0  501    0 -0.00000000000E+00 -0.00000000000E+00 -0.77102076822E+03  0.77102076822E+03  0.00000000000E+00 0. -1.
         25    2    1    2    0    0  0.13614416903E+02  0.21599387684E+03  0.38249443974E+03  0.45690784471E+03  0.12499629972E+03 0.  0.
          2    1    1    2  501    0 -0.26553774614E+02 -0.11552293322E+03 -0.72229761730E+03  0.73195935612E+03  0.00000000000E+00 0. -1.
          1    1    1    2  502    0  0.12939357711E+02 -0.10047094361E+03  0.37704474015E+03  0.39041589819E+03  0.00000000000E+00 0. -1.
         22    1    3    3    0    0  0.45363573194E+02  0.14168145887E+03  0.32590460589E+03  0.35825312518E+03  0.00000000000E+00 0. -1.
         22    1    3    3    0    0 -0.31749156291E+02  0.74312417972E+02  0.56589833850E+02  0.98654719528E+02  0.00000000000E+00 0. -1.
</event>
<event>
 7    1  0.7961130E-006  0.2410767E+03  0.7818608E-02  0.1183327E+00
          2   -1    0    0  502    0  0.00000000000E+00  0.00000000000E+00  0.98824122941E+03  0.98824122941E+03  0.00000000000E+00 0. -1.
          1   -1    0    0  501    0 -0.00000000000E+00 -0.00000000000E+00 -0.29990014429E+03  0.29990014429E+03  0.00000000000E+00 0. -1.
         25    2    1    2    0    0  0.15847189604E+03  0.13582041893E+02  0.39163993721E+03  0.44079952409E+03  0.12499826528E+03 0.  0.
          2    1    1    2  501    0 -0.24776173661E+03  0.55225131670E+02 -0.20925940290E+03  0.32897597328E+03  0.00000000000E+00 0. -1.
          1    1    1    2  502    0  0.89289840566E+02 -0.68807173562E+02  0.50596055081E+03  0.51836587633E+03  0.00000000000E+00 0. -1.
         22    1    3    3    0    0  0.11960182252E+03  0.33228513298E+02  0.37355753128E+03  0.39364191751E+03  0.00000000000E+00 0.  1.
         22    1    3    3    0    0  0.38870073520E+02 -0.19646471406E+02  0.18082405933E+02  0.47157606581E+02  0.00000000000E+00 0.  1.
</event>
<event>
 7    1  0.7961130E-006  0.1239870E+03  0.7818608E-02  0.1417925E+00
          2   -1    0    0  502    0  0.00000000000E+00  0.00000000000E+00  0.18448688558E+04  0.18448688558E+04  0.00000000000E+00 0. -1.
          1   -1    0    0  501    0 -0.00000000000E+00 -0.00000000000E+00 -0.13798643951E+04  0.13798643951E+04  0.00000000000E+00 0. -1.
         25    2    1    2    0    0  0.39109125951E+02 -0.14345532205E+03  0.85912410052E+03  0.88081111933E+03  0.12500021872E+03 0.  0.
          2    1    1    2  501    0 -0.33593952898E+02  0.11926643562E+03 -0.13660586120E+04  0.13716665659E+04  0.00000000000E+00 0. -1.
          1    1    1    2  502    0 -0.55151730527E+01  0.24188886436E+02  0.97193897219E+03  0.97225556569E+03  0.00000000000E+00 0. -1.
         22    1    3    3    0    0  0.24007201910E+02  0.16091926414E+02  0.22048119661E+03  0.22236738497E+03  0.00000000000E+00 0.  1.
         22    1    3    3    0    0  0.15101924041E+02 -0.15954724846E+03  0.63864290392E+03  0.65844373437E+03  0.00000000000E+00 0.  1.
</event>
<event>
 7    1  0.7961130E-006  0.1174941E+03  0.7818608E-02  0.1268779E+00
          2   -1    0    0  502    0  0.00000000000E+00  0.00000000000E+00  0.51128541651E+03  0.51128541651E+03  0.00000000000E+00 0. -1.
          1   -1    0    0  501    0 -0.00000000000E+00 -0.00000000000E+00 -0.28245439281E+03  0.28245439281E+03  0.00000000000E+00 0. -1.
         25    2    1    2    0    0  0.57838294755E+02  0.40420993031E+02 -0.14780101166E+02  0.14430278895E+03  0.12500287393E+03 0.  0.
          2    1    1    2  501    0 -0.41677368390E+02 -0.13409712863E+03 -0.17260020586E+03  0.22250814368E+03  0.00000000000E+00 0. -1.
          1    1    1    2  502    0 -0.16160926365E+02  0.93676135599E+02  0.41621133073E+03  0.42692887669E+03  0.00000000000E+00 0. -1.
         22    1    3    3    0    0  0.94677761385E+02  0.39391262672E+02  0.46302482169E+01  0.10264983816E+03  0.00000000000E+00 0. -1.
         22    1    3    3    0    0 -0.36839466630E+02  0.10297303591E+01 -0.19410349383E+02  0.41652950788E+02  0.00000000000E+00 0. -1.
</event>
<event>
 7    1  0.7961130E-006  0.1544531E+03  0.7818608E-02  0.1290596E+00
          2   -1    0    0  502    0  0.00000000000E+00  0.00000000000E+00  0.26469482200E+03  0.26469482200E+03  0.00000000000E+00 0. -1.
          1   -1    0    0  501    0 -0.00000000000E+00 -0.00000000000E+00 -0.26128623163E+04  0.26128623163E+04  0.00000000000E+00 0. -1.
         25    2    1    2    0    0 -0.30815350858E+02 -0.13659933438E+03 -0.32162746579E+03  0.37239516329E+03  0.12499986755E+03 0.  0.
          2    1    1    2  501    0  0.56061651268E+02 -0.17567723867E+02 -0.22399298198E+04  0.22407001431E+04  0.00000000000E+00 0. -1.
          1    1    1    2  502    0 -0.25246300410E+02  0.15416705824E+03  0.21338979127E+03  0.26446183194E+03  0.00000000000E+00 0. -1.
         22    1    3    3    0    0 -0.68454433406E+02 -0.12711884004E+03 -0.21551831953E+03  0.25940962781E+03  0.00000000000E+00 0. -1.
         22    1    3    3    0    0  0.37639082549E+02 -0.94804943422E+01 -0.10610914626E+03  0.11298553548E+03  0.00000000000E+00 0. -1.
</event>
<event>
 7    1  0.7961130E-006  0.5589887E+02  0.7818608E-02  0.1532230E+00
          2   -1    0    0  502    0  0.00000000000E+00  0.00000000000E+00  0.17579159069E+04  0.17579159069E+04  0.00000000000E+00 0. -1.
          1   -1    0    0  501    0 -0.00000000000E+00 -0.00000000000E+00 -0.29027667875E+03  0.29027667875E+03  0.00000000000E+00 0. -1.
         25    2    1    2    0    0  0.40010457209E+02  0.68524782706E+02 -0.37091959987E+02  0.15263496766E+03  0.12500054931E+03 0.  0.
          2    1    1    2  501    0 -0.16524360316E+02 -0.17922089195E+02 -0.19419332701E+03  0.19571740858E+03  0.00000000000E+00 0. -1.
          1    1    1    2  502    0 -0.23486096892E+02 -0.50602693511E+02  0.16989245151E+04  0.16998402094E+04  0.00000000000E+00 0. -1.
         22    1    3    3    0    0  0.51153972824E+02  0.95422203900E+02 -0.36986932514E+01  0.10833192634E+03  0.00000000000E+00 0.  1.
         22    1    3    3    0    0 -0.11143515615E+02 -0.26897421194E+02 -0.33393266735E+02  0.44303041322E+02  0.00000000000E+00 0.  1.
</event>
<event>
 7    1  0.7961130E-006  0.1551200E+03  0.7818608E-02  0.1314310E+00
          2   -1    0    0  502    0  0.00000000000E+00  0.00000000000E+00  0.53021625916E+03  0.53021625916E+03  0.00000000000E+00 0. -1.
          1   -1    0    0  501    0 -0.00000000000E+00 -0.00000000000E+00 -0.75582567537E+03  0.75582567537E+03  0.00000000000E+00 0. -1.
         25    2    1    2    0    0  0.88582953635E+02 -0.17218303673E+03 -0.13930271253E+03  0.26930170114E+03  0.12499689079E+03 0.  0.
          2    1    1    2  501    0 -0.37800577823E+02  0.28014620040E+02 -0.53791371191E+03  0.53996746576E+03  0.00000000000E+00 0. -1.
          1    1    1    2  502    0 -0.50782375811E+02  0.14416841669E+03  0.45160700823E+03  0.47677276763E+03  0.00000000000E+00 0. -1.
         22    1    3    3    0    0 -0.47607281725E+01  0.48825497236E+00 -0.55778401231E+02  0.55983327603E+02  0.00000000000E+00 0.  1.
         22    1    3    3    0    0  0.93343681807E+02 -0.17267129170E+03 -0.83524311303E+02  0.21331837354E+03  0.00000000000E+00 0.  1.
</event>
<event>
 7    1  0.7961130E-006  0.2325638E+03  0.7818608E-02  0.1199727E+00
          2   -1    0    0  502    0  0.00000000000E+00  0.00000000000E+00  0.26280933113E+04  0.26280933113E+04  0.00000000000E+00 0. -1.
          1   -1    0    0  501    0 -0.00000000000E+00 -0.00000000000E+00 -0.10173578832E+04  0.10173578832E+04  0.00000000000E+00 0. -1.
         25    2    1    2    0    0  0.23900882213E+03  0.18826825597E+03 -0.76762601146E+02  0.33776981604E+03  0.12500319368E+03 0.  0.
          2    1    1    2  501    0 -0.14256735071E+03 -0.17370995592E+03 -0.79353018382E+03  0.82473677674E+03  0.00000000000E+00 0. -1.
          1    1    1    2  502    0 -0.96441471414E+02 -0.14558300049E+02  0.24810282130E+04  0.24829446017E+04  0.00000000000E+00 0. -1.
         22    1    3    3    0    0  0.76342831039E+02  0.10163741100E+03  0.21489231158E+02  0.12891927017E+03  0.00000000000E+00 0.  1.
         22    1    3    3    0    0  0.16266599109E+03  0.86630844975E+02 -0.98251832304E+02  0.20885054587E+03  0.00000000000E+00 0.  1.
</event>
<event>
 7    1  0.7961130E-006  0.1705634E+03  0.7818608E-02  0.1313987E+00
          2   -1    0    0  502    0  0.00000000000E+00  0.00000000000E+00  0.17002004055E+04  0.17002004055E+04  0.00000000000E+00 0. -1.
          1   -1    0    0  501    0 -0.00000000000E+00 -0.00000000000E+00 -0.17215341791E+04  0.17215341791E+04  0.00000000000E+00 0. -1.
         25    2    1    2    0    0 -0.16944042061E+02 -0.15684200140E+03 -0.42736207034E+01  0.20132055949E+03  0.12500075951E+03 0.  0.
          2    1    1    2  501    0  0.59690706578E+02  0.16063491143E+03 -0.16139125945E+04  0.16229850332E+04  0.00000000000E+00 0. -1.
          1    1    1    2  502    0 -0.42746664517E+02 -0.37929100354E+01  0.15968524417E+04  0.15974289918E+04  0.00000000000E+00 0. -1.
         22    1    3    3    0    0 -0.17255397253E+02 -0.17746040229E+03  0.57555941356E+01  0.17839021829E+03  0.00000000000E+00 0.  1.
         22    1    3    3    0    0  0.31135519186E+00  0.20618400897E+02 -0.10029214839E+02  0.22930341208E+02  0.00000000000E+00 0.  1.
</event>
<event>
 7    1  0.7961130E-006  0.4473869E+02  0.7818608E-02  0.1585708E+00
          2   -1    0    0  502    0  0.00000000000E+00  0.00000000000E+00  0.13454684730E+03  0.13454684730E+03  0.00000000000E+00 0. -1.
          1   -1    0    0  501    0 -0.00000000000E+00 -0.00000000000E+00 -0.94226955539E+02  0.94226955539E+02  0.00000000000E+00 0. -1.
         25    2    1    2    0    0 -0.22380499232E+01  0.39632421988E+02 -0.12466375856E+02  0.13174264370E+03  0.12499990361E+03 0.  0.
          2    1    1    2  501    0  0.21612469949E+02  0.18255198783E+01 -0.60275598920E+01  0.22511393968E+02  0.00000000000E+00 0. -1.
          1    1    1    2  502    0 -0.19374420026E+02 -0.41457941866E+02  0.58813827509E+02  0.74519765172E+02  0.00000000000E+00 0. -1.
         22    1    3    3    0    0  0.60594712587E+02  0.26436901761E+02  0.11075799268E+01  0.66120009842E+02  0.00000000000E+00 0.  1.
         22    1    3    3    0    0 -0.62832762510E+02  0.13195520227E+02 -0.13573955783E+02  0.65622633857E+02  0.00000000000E+00 0.  1.
</event>
<event>
 7    1  0.7961130E-006  0.1273568E+03  0.7818608E-02  0.1394119E+00
          2   -1    0    0  502    0  0.00000000000E+00  0.00000000000E+00  0.10333701860E+04  0.10333701860E+04  0.00000000000E+00 0. -1.
          1   -1    0    0  501    0 -0.00000000000E+00 -0.00000000000E+00 -0.41153589695E+03  0.41153589695E+03  0.00000000000E+00 0. -1.
         25    2    1    2    0    0 -0.79759599232E+02 -0.69449994888E+02  0.16623043600E+03  0.23332863323E+03  0.12499919108E+03 0.  0.
          2    1    1    2  501    0  0.10885892900E+03  0.68479297491E+02 -0.36678239471E+03  0.38867596488E+03  0.00000000000E+00 0. -1.
          1    1    1    2  502    0 -0.29099329772E+02  0.97069739726E+00  0.82238624772E+03  0.82290148480E+03  0.00000000000E+00 0. -1.
         22    1    3    3    0    0 -0.23267105187E+02  0.34693972469E+02  0.66154856191E+02  0.78239982791E+02  0.00000000000E+00 0.  1.
         22    1    3    3    0    0 -0.56492494044E+02 -0.10414396736E+03  0.10007557981E+03  0.15508865044E+03  0.00000000000E+00 0.  1.
</event>
<event>
 7    1  0.7961130E-006  0.7974777E+02  0.7818608E-02  0.1357841E+00
          2   -1    0    0  502    0  0.00000000000E+00  0.00000000000E+00  0.16931166771E+04  0.16931166771E+04  0.00000000000E+00 0. -1.
          1   -1    0    0  501    0 -0.00000000000E+00 -0.00000000000E+00 -0.12506997552E+03  0.12506997552E+03  0.00000000000E+00 0. -1.
         25    2    1    2    0    0  0.66716428024E+02  0.59614119210E+02  0.10747259454E+03  0.18756448235E+03  0.12500060594E+03 0.  0.
          2    1    1    2  501    0 -0.78141239200E+01 -0.80867273337E+02 -0.64825933506E+02  0.10393737578E+03  0.00000000000E+00 0. -1.
          1    1    1    2  502    0 -0.58902304104E+02  0.21253154127E+02  0.15254000405E+04  0.15266847945E+04  0.00000000000E+00 0. -1.
         22    1    3    3    0    0  0.72330814788E+02 -0.18900265166E+02  0.57663112700E+02  0.94413989204E+02  0.00000000000E+00 0. -1.
         22    1    3    3    0    0 -0.56143867641E+01  0.78514384376E+02  0.49809481841E+02  0.93150493149E+02  0.00000000000E+00 0. -1.
</event>
<event>
 7    1  0.7961130E-006  0.7488372E+02  0.7818608E-02  0.1365177E+00
          2   -1    0    0  502    0  0.00000000000E+00  0.00000000000E+00  0.97015306239E+03  0.97015306239E+03  0.00000000000E+00 0. -1.
          1   -1    0    0  501    0 -0.00000000000E+00 -0.00000000000E+00 -0.63252264733E+02  0.63252264733E+02  0.00000000000E+00 0. -1.
         25    2    1    2    0    0 -0.59750287295E+02 -0.50407934907E+02  0.22226813614E+03  0.26672203278E+03  0.12500584664E+03 0.  0.
          2    1    1    2  501    0 -0.16392978692E+02  0.60527967075E+02 -0.13659560113E+02  0.64179031865E+02  0.00000000000E+00 0. -1.
          1    1    1    2  502    0  0.76143265987E+02 -0.10120032168E+02  0.69829222163E+03  0.70250426248E+03  0.00000000000E+00 0. -1.
         22    1    3    3    0    0 -0.56937318582E+02 -0.63764511373E+02  0.23374635411E+03  0.24888778439E+03  0.00000000000E+00 0. -1.
         22    1    3    3    0    0 -0.28129687124E+01  0.13356576466E+02 -0.11478217972E+02  0.17834248392E+02  0.00000000000E+00 0. -1.
</event>
<event>
 7    1  0.7961130E-006  0.5682262E+02  0.7818608E-02  0.1453128E+00
          2   -1    0    0  502    0  0.00000000000E+00  0.00000000000E+00  0.45325856519E+03  0.45325856519E+03  0.00000000000E+00 0. -1.
          1   -1    0    0  501    0 -0.00000000000E+00 -0.00000000000E+00 -0.84759089398E+03  0.84759089398E+03  0.00000000000E+00 0. -1.
         25    2    1    2    0    0  0.69366021146E+02  0.33307682347E+02 -0.21174993401E+03  0.25763486094E+03  0.12496655722E+03 0.  0.
          2    1    1    2  501    0 -0.55972117383E+02  0.60151006573E+01 -0.61059812971E+03  0.61318768364E+03  0.00000000000E+00 0. -1.
          1    1    1    2  502    0 -0.13393903764E+02 -0.39322783005E+02  0.42801573493E+03  0.43002691459E+03  0.00000000000E+00 0. -1.
         22    1    3    3    0    0  0.14746380593E+02 -0.46107999519E+02 -0.91571429009E+02  0.10357958279E+03  0.00000000000E+00 0. -1.
         22    1    3    3    0    0  0.54619640553E+02  0.79415681866E+02 -0.12017850500E+03  0.15405527815E+03  0.00000000000E+00 0. -1.
</event>
<event>
 7    1  0.7961130E-006  0.1700540E+03  0.7818608E-02  0.1216326E+00
          2   -1    0    0  502    0  0.00000000000E+00  0.00000000000E+00  0.21081074524E+04  0.21081074524E+04  0.00000000000E+00 0. -1.
          1   -1    0    0  501    0 -0.00000000000E+00 -0.00000000000E+00 -0.93063571253E+02  0.93063571253E+02  0.00000000000E+00 0. -1.
         25    2    1    2    0    0  0.14569304046E+02 -0.24476761551E+03  0.47529935896E+03  0.54923562570E+03  0.12500736651E+03 0.  0.
          2    1    1    2  501    0 -0.65981224147E+02  0.90075637301E+02  0.84357488603E+01  0.11197456959E+03  0.00000000000E+00 0. -1.
          1    1    1    2  502    0  0.51411920101E+02  0.15469197821E+03  0.15313087733E+04  0.15399608283E+04  0.00000000000E+00 0. -1.
         22    1    3    3    0    0 -0.51724249174E+02 -0.64013678204E+02  0.15619028228E+03  0.17654617875E+03  0.00000000000E+00 0.  1.
         22    1    3    3    0    0  0.66293553220E+02 -0.18075393731E+03  0.31910907668E+03  0.37268944695E+03  0.00000000000E+00 0.  1.
</event>
<event>
 7    1  0.7961130E-006  0.4615523E+02  0.7818608E-02  0.1511270E+00
          2   -1    0    0  502    0  0.00000000000E+00  0.00000000000E+00  0.42608316063E+03  0.42608316063E+03  0.00000000000E+00 0. -1.
          1   -1    0    0  501    0 -0.00000000000E+00 -0.00000000000E+00 -0.35395623917E+03  0.35395623917E+03  0.00000000000E+00 0. -1.
         25    2    1    2    0    0  0.43702534828E+02 -0.58148471014E+02 -0.71431279705E+02  0.16130151681E+03  0.12499838148E+03 0.  0.
          2    1    1    2  501    0 -0.37686951345E+02  0.24731410551E+02 -0.23468441707E+03  0.23897431783E+03  0.00000000000E+00 0. -1.
          1    1    1    2  502    0 -0.60155834824E+01  0.33417060463E+02  0.37824261823E+03  0.37976356516E+03  0.00000000000E+00 0. -1.
         22    1    3    3    0    0  0.28291487803E+02 -0.86611747433E+02 -0.86466517370E+02  0.12561234693E+03  0.00000000000E+00 0.  1.
         22    1    3    3    0    0  0.15411047025E+02  0.28463276419E+02  0.15035237665E+02  0.35689169878E+02  0.00000000000E+00 0.  1.
</event>
<event>
 7    1  0.7961130E-006  0.1066260E+03  0.7818608E-02  0.1415450E+00
          2   -1    0    0  502    0  0.00000000000E+00  0.00000000000E+00  0.27166246258E+03  0.27166246258E+03  0.00000000000E+00 0. -1.
          1   -1    0    0  501    0 -0.00000000000E+00 -0.00000000000E+00 -0.10083066191E+04  0.10083066191E+04  0.00000000000E+00 0. -1.
         25    2    1    2    0    0 -0.10707855396E+03  0.13325209774E+02 -0.21369001905E+02  0.16650448176E+03  0.12499492098E+03 0.  0.
          2    1    1    2  501    0  0.98375895929E+02 -0.41414140400E+02 -0.91014804257E+03  0.91638551239E+03  0.00000000000E+00 0. -1.
          1    1    1    2  502    0  0.87026580313E+01  0.28088930626E+02  0.19487288796E+03  0.19707908753E+03  0.00000000000E+00 0. -1.
         22    1    3    3    0    0 -0.70818351265E+02 -0.80852828959E+00  0.48978815196E+02  0.86109331271E+02  0.00000000000E+00 0. -1.
         22    1    3    3    0    0 -0.36260202695E+02  0.14133738063E+02 -0.70347817101E+02  0.80395150488E+02  0.00000000000E+00 0. -1.
</event>
<event>
 7    1  0.7961130E-006  0.1779520E+03  0.7818608E-02  0.1180492E+00
          2   -1    0    0  502    0  0.00000000000E+00  0.00000000000E+00  0.10895945829E+03  0.10895945829E+03  0.00000000000E+00 0. -1.
          1   -1    0    0  501    0 -0.00000000000E+00 -0.00000000000E+00 -0.14309363512E+04  0.14309363512E+04  0.00000000000E+00 0. -1.
         25    2    1    2    0    0 -0.14041248749E+03  0.40222087309E+02 -0.10650315578E+03  0.21977493367E+03  0.12499846530E+03 0.  0.
          2    1    1    2  501    0  0.65231700301E+02 -0.17878189047E+03 -0.11195028149E+04  0.11355636009E+04  0.00000000000E+00 0. -1.
          1    1    1    2  502    0  0.75180787187E+02  0.13855980316E+03 -0.95970922224E+02  0.18455727492E+03  0.00000000000E+00 0. -1.
         22    1    3    3    0    0  0.28914191941E+01 -0.16253449619E+02 -0.54902386140E+02  0.57330680558E+02  0.00000000000E+00 0. -1.
         22    1    3    3    0    0 -0.14330390668E+03  0.56475536927E+02 -0.51600769642E+02  0.16244425311E+03  0.00000000000E+00 0. -1.
</event>
<event>
 7    1  0.7961130E-006  0.1575612E+03  0.7818608E-02  0.1386276E+00
          2   -1    0    0  502    0  0.00000000000E+00  0.00000000000E+00  0.18843757667E+04  0.18843757667E+04  0.00000000000E+00 0. -1.
          1   -1    0    0  501    0 -0.00000000000E+00 -0.00000000000E+00 -0.21447441396E+03  0.21447441396E+03  0.00000000000E+00 0. -1.
         25    2    1    2    0    0  0.13357737776E+03  0.55224492281E+02  0.13731339831E+03  0.23531401410E+03  0.12500022193E+03 0.  0.
          2    1    1    2  501    0 -0.13934584389E+03 -0.79616167653E+02 -0.12644474004E+03  0.20431414695E+03  0.00000000000E+00 0. -1.
          1    1    1    2  502    0  0.57684661348E+01  0.24391675372E+02  0.16590326944E+04  0.16592220196E+04  0.00000000000E+00 0. -1.
         22    1    3    3    0    0 -0.21935118256E+02  0.23855467001E+02  0.25209467110E+02  0.41057885366E+02  0.00000000000E+00 0.  1.
         22    1    3    3    0    0  0.15551249601E+03  0.31369025279E+02  0.11210393120E+03  0.19425612874E+03  0.00000000000E+00 0.  1.
</event>
<event>
 7    1  0.7961130E-006  0.5665766E+02  0.7818608E-02  0.1493742E+00
          2   -1    0    0  502    0  0.00000000000E+00  0.00000000000E+00  0.73666455717E+03  0.73666455717E+03  0.00000000000E+00 0. -1.
          1   -1    0    0  501    0 -0.00000000000E+00 -0.00000000000E+00 -0.12645667315E+03  0.12645667315E+03  0.00000000000E+00 0. -1.
         25    2    1    2    0    0  0.65575448001E+02  0.61377194817E+01 -0.57720734354E+02  0.15262492015E+03  0.12499948838E+03 0.  0.
          2    1    1    2  501    0 -0.18387154293E+02  0.25190966452E+02 -0.80010064129E+01  0.32197644904E+02  0.00000000000E+00 0. -1.
          1    1    1    2  502    0 -0.47188293707E+02 -0.31328685933E+02  0.67592962479E+03  0.67829866526E+03  0.00000000000E+00 0. -1.
         22    1    3    3    0    0  0.93809028266E+02  0.35368826528E+02 -0.35837363090E+02  0.10646785556E+03  0.00000000000E+00 0. -1.
         22    1    3    3    0    0 -0.28233580265E+02 -0.29231107046E+02 -0.21883371264E+02  0.46157064590E+02  0.00000000000E+00 0. -1.
</event>
<event>
 7    1  0.7961130E-006  0.1726791E+03  0.7818608E-02  0.1270565E+00
          2   -1    0    0  502    0  0.00000000000E+00  0.00000000000E+00  0.19040877961E+03  0.19040877961E+03  0.00000000000E+00 0. -1.
          1   -1    0    0  501    0 -0.00000000000E+00 -0.00000000000E+00 -0.15694014158E+04  0.15694014158E+04  0.00000000000E+00 0. -1.
         25    2    1    2    0    0  0.19637256121E+03 -0.71118631126E+02 -0.17435861794E+03  0.29940310573E+03  0.12498499743E+03 0.  0.
          2    1    1    2  501    0 -0.16957423083E+03  0.13470687850E+02 -0.13188047789E+04  0.13297303953E+04  0.00000000000E+00 0. -1.
          1    1    1    2  502    0 -0.26798330377E+02  0.57647943276E+02  0.11417076067E+03  0.13067669443E+03  0.00000000000E+00 0. -1.
         22    1    3    3    0    0  0.13143302182E+03  0.14439907414E+01 -0.48123504479E+02  0.13997355471E+03  0.00000000000E+00 0. -1.
         22    1    3    3    0    0  0.64939539381E+02 -0.72562621868E+02 -0.12623511346E+03  0.15942955102E+03  0.00000000000E+00 0. -1.
</event>
<event>
 7    1  0.7961130E-006  0.1163678E+03  0.7818608E-02  0.1398772E+00
          2   -1    0    0  502    0  0.00000000000E+00  0.00000000000E+00  0.20260063581E+04  0.20260063581E+04  0.00000000000E+00 0. -1.
          1   -1    0    0  501    0 -0.00000000000E+00 -0.00000000000E+00 -0.82572691320E+02  0.82572691320E+02  0.00000000000E+00 0. -1.
         25    2    1    2    0    0 -0.13954649345E+03  0.10986610794E+02  0.44133703469E+03  0.47958036524E+03  0.12500007633E+03 0.  0.
          2    1    1    2  501    0  0.11143585046E+03 -0.23342831553E+02 -0.12095583688E+02  0.11449515141E+03  0.00000000000E+00 0. -1.
          1    1    1    2  502    0  0.28110642985E+02  0.12356220759E+02  0.15141922158E+04  0.15145035328E+04  0.00000000000E+00 0. -1.
         22    1    3    3    0    0 -0.66514982142E+02  0.29997636115E+02  0.36506027170E+03  0.37228094633E+03  0.00000000000E+00 0. -1.
         22    1    3    3    0    0 -0.73031511303E+02 -0.19011025321E+02  0.76276762988E+02  0.10729941891E+03  0.00000000000E+00 0. -1.
</event>
<event>
 7    1  0.7961130E-006  0.1237092E+03  0.7818608E-02  0.1387437E+00
          2   -1    0    0  502    0  0.00000000000E+00  0.00000000000E+00  0.37376299535E+04  0.37376299535E+04  0.00000000000E+00 0. -1.
          1   -1    0    0  501    0 -0.00000000000E+00 -0.00000000000E+00 -0.50111453536E+03  0.50111453536E+03  0.00000000000E+00 0. -1.
         25    2    1    2    0    0 -0.84666240863E+02  0.86976069926E+02  0.85970075062E+02  0.19429228263E+03  0.12500171280E+03 0.  0.
          2    1    1    2  501    0  0.23776715798E+02  0.20852384236E+02 -0.44532686273E+03  0.44644839435E+03  0.00000000000E+00 0. -1.
          1    1    1    2  502    0  0.60889525064E+02 -0.10782845416E+03  0.35958722058E+04  0.35980038118E+04  0.00000000000E+00 0. -1.
         22    1    3    3    0    0 -0.42915546821E+02  0.11545074660E+03  0.53955026404E+02  0.13446844955E+03  0.00000000000E+00 0. -1.
         22    1    3    3    0    0 -0.41750694041E+02 -0.28474676672E+02  0.32015048658E+02  0.59823833086E+02  0.00000000000E+00 0. -1.
</event>
<event>
 7    1  0.7961130E-006  0.1801844E+03  0.7818608E-02  0.1299052E+00
          2   -1    0    0  502    0  0.00000000000E+00  0.00000000000E+00  0.41629513271E+03  0.41629513271E+03  0.00000000000E+00 0. -1.
          1   -1    0    0  501    0 -0.00000000000E+00 -0.00000000000E+00 -0.23855115820E+04  0.23855115820E+04  0.00000000000E+00 0. -1.
         25    2    1    2    0    0  0.78529970741E+02  0.19622226793E+03 -0.11512358040E+04  0.11771315616E+04  0.12499880860E+03 0.  0.
          2    1    1    2  501    0 -0.72413601315E+02 -0.15007189402E+03 -0.12142756052E+04  0.12256551507E+04  0.00000000000E+00 0. -1.
          1    1    1    2  502    0 -0.61163694261E+01 -0.46150373915E+02  0.39629495997E+03  0.39902000237E+03  0.00000000000E+00 0. -1.
         22    1    3    3    0    0  0.54438235794E+02  0.20282197958E+03 -0.11029837679E+04  0.11227971630E+04  0.00000000000E+00 0.  1.
         22    1    3    3    0    0  0.24091734947E+02 -0.65997116433E+01 -0.48252036124E+02  0.54334398650E+02  0.00000000000E+00 0.  1.
</event>
<event>
 7    1  0.7961130E-006  0.3961070E+02  0.7818608E-02  0.1516559E+00
          2   -1    0    0  502    0  0.00000000000E+00  0.00000000000E+00  0.28256436022E+02  0.28256436022E+02  0.00000000000E+00 0. -1.
          1   -1    0    0  501    0 -0.00000000000E+00 -0.00000000000E+00 -0.56530000223E+03  0.56530000223E+03  0.00000000000E+00 0. -1.
         25    2    1    2    0    0 -0.17317900379E+02  0.49802243509E+01 -0.15285336415E+03  0.19827755870E+03  0.12500050817E+03 0.  0.
          2    1    1    2  501    0  0.20608213237E+02  0.34493586531E+02 -0.29453652591E+03  0.29726464819E+03  0.00000000000E+00 0. -1.
          1    1    1    2  502    0 -0.32903128574E+01 -0.39473810882E+02 -0.89653676140E+02  0.98014231363E+02  0.00000000000E+00 0. -1.
         22    1    3    3    0    0 -0.22945025492E+02 -0.54249903026E+02 -0.41591426742E+02  0.72106677580E+02  0.00000000000E+00 0. -1.
         22    1    3    3    0    0  0.56271251124E+01  0.59230127377E+02 -0.11126193741E+03  0.12617088112E+03  0.00000000000E+00 0. -1.
</event>
<event>
 7    1  0.7961130E-006  0.4431615E+02  0.7818608E-02  0.1588206E+00
          2   -1    0    0  502    0  0.00000000000E+00  0.00000000000E+00  0.22337632972E+03  0.22337632972E+03  0.00000000000E+00 0. -1.
          1   -1    0    0  501    0 -0.00000000000E+00 -0.00000000000E+00 -0.45937923594E+03  0.45937923594E+03  0.00000000000E+00 0. -1.
         25    2    1    2    0    0  0.45119395266E+02 -0.18247613920E+02 -0.20912317364E+03  0.24844669477E+03  0.12499809256E+03 0.  0.
          2    1    1    2  501    0 -0.15637827042E+02 -0.14848344587E+02 -0.22766791344E+03  0.22868689027E+03  0.00000000000E+00 0. -1.
          1    1    1    2  502    0 -0.29481568223E+02  0.33095958507E+02  0.20078818087E+03  0.20562198061E+03  0.00000000000E+00 0. -1.
         22    1    3    3    0    0  0.77737814785E+02  0.36037286678E+01 -0.18885926215E+03  0.20426447466E+03  0.00000000000E+00 0. -1.
         22    1    3    3    0    0 -0.32618419519E+02 -0.21851342588E+02 -0.20263911496E+02  0.44182220111E+02  0.00000000000E+00 0. -1.
</event>
<event>
 7    1  0.7961130E-006  0.1832724E+03  0.7818608E-02  0.1275984E+00
          2   -1    0    0  502    0  0.00000000000E+00  0.00000000000E+00  0.29886430751E+04  0.29886430751E+04  0.00000000000E+00 0. -1.
          1   -1    0    0  501    0 -0.00000000000E+00 -0.00000000000E+00 -0.61237115878E+02  0.61237115878E+02  0.00000000000E+00 0. -1.
         25    2    1    2    0    0 -0.11730765044E+03  0.55684246167E+02  0.24202345046E+04  0.24269364931E+04  0.12499545562E+03 0.  0.
          2    1    1    2  501    0  0.16849906681E+03 -0.80423577164E+02  0.99960828639E+02  0.21178303648E+03  0.00000000000E+00 0. -1.
          1    1    1    2  502    0 -0.51191416366E+02  0.24739330996E+02  0.40721062592E+03  0.41116066139E+03  0.00000000000E+00 0. -1.
         22    1    3    3    0    0 -0.90127527052E+01 -0.30528043294E+02  0.85531473110E+03  0.85590681758E+03  0.00000000000E+00 0.  1.
         22    1    3    3    0    0 -0.10829489774E+03  0.86212289462E+02  0.15649197735E+04  0.15710296755E+04  0.00000000000E+00 0.  1.
</event>
<event>
 7    1  0.7961130E-006  0.8772666E+02  0.7818608E-02  0.1457041E+00
          2   -1    0    0  502    0  0.00000000000E+00  0.00000000000E+00  0.30856837199E+02  0.30856837199E+02  0.00000000000E+00 0. -1.
          1   -1    0    0  501    0 -0.00000000000E+00 -0.00000000000E+00 -0.15907405912E+04  0.15907405912E+04  0.00000000000E+00 0. -1.
         25    2    1    2    0    0 -0.94935814571E+02 -0.20638474987E+02 -0.51250185845E+03  0.53639626334E+03  0.12499616345E+03 0.  0.
          2    1    1    2  501    0  0.86646189835E+02 -0.41607072417E+01 -0.10545314845E+04  0.10580933444E+04  0.00000000000E+00 0. -1.
          1    1    1    2  502    0  0.82896247353E+01  0.24799182228E+02  0.71495889503E+01  0.27107820635E+02  0.00000000000E+00 0. -1.
         22    1    3    3    0    0 -0.94959850370E+02 -0.62417359105E+02 -0.41594153676E+03  0.43118518284E+03  0.00000000000E+00 0. -1.
         22    1    3    3    0    0  0.24035799461E-01  0.41778884118E+02 -0.96560321686E+02  0.10521108050E+03  0.00000000000E+00 0. -1.
</event>
<event>
 7    1  0.7961130E-006  0.2431232E+02  0.7818608E-02  0.1704479E+00
          2   -1    0    0  502    0  0.00000000000E+00  0.00000000000E+00  0.48028858677E+03  0.48028858677E+03  0.00000000000E+00 0. -1.
          1   -1    0    0  501    0 -0.00000000000E+00 -0.00000000000E+00 -0.20218385799E+03  0.20218385799E+03  0.00000000000E+00 0. -1.
         25    2    1    2    0    0 -0.66793586386E+01  0.75931041737E+01  0.21153797076E+01  0.12542501523E+03  0.12499876220E+03 0.  0.
          2    1    1    2  501    0 -0.51935046512E+01 -0.24068000770E+02 -0.13920047026E+03  0.14136128209E+03  0.00000000000E+00 0. -1.
          1    1    1    2  502    0  0.11872863290E+02  0.16474896596E+02  0.41518981933E+03  0.41568614744E+03  0.00000000000E+00 0. -1.
         22    1    3    3    0    0 -0.14251445380E+02 -0.51319148260E+02 -0.26505632649E+02  0.59492077083E+02  0.00000000000E+00 0.  1.
         22    1    3    3    0    0  0.75720867418E+01  0.58912252434E+02  0.28621012356E+02  0.65932938147E+02  0.00000000000E+00 0.  1.
</event>
<event>
 7    1  0.7961130E-006  0.1273644E+03  0.7818608E-02  0.1289318E+00
          2   -1    0    0  502    0  0.00000000000E+00  0.00000000000E+00  0.34795872546E+03  0.34795872546E+03  0.00000000000E+00 0. -1.
          1   -1    0    0  501    0 -0.00000000000E+00 -0.00000000000E+00 -0.12940742486E+04  0.12940742486E+04  0.00000000000E+00 0. -1.
         25    2    1    2    0    0 -0.42092228623E+02  0.17320869750E+03 -0.38659280150E+02  0.22111764481E+03  0.12500185720E+03 0.  0.
          2    1    1    2  501    0 -0.11753530730E+02 -0.12525630804E+03 -0.11556412024E+04  0.11624688714E+04  0.00000000000E+00 0. -1.
          1    1    1    2  502    0  0.53845759354E+02 -0.47952389460E+02  0.24818495947E+03  0.25844645782E+03  0.00000000000E+00 0. -1.
         22    1    3    3    0    0 -0.55416397557E+02  0.84296190490E+02  0.33007928740E+02  0.10614305540E+03  0.00000000000E+00 0. -1.
         22    1    3    3    0    0  0.13324168934E+02  0.88912507010E+02 -0.71667208890E+02  0.11497458941E+03  0.00000000000E+00 0. -1.
</event>
<event>
 7    1  0.7961130E-006  0.8931502E+02  0.7818608E-02  0.1367480E+00
          2   -1    0    0  502    0  0.00000000000E+00  0.00000000000E+00  0.16972238789E+04  0.16972238789E+04  0.00000000000E+00 0. -1.
          1   -1    0    0  501    0 -0.00000000000E+00 -0.00000000000E+00 -0.39792424037E+03  0.39792424037E+03  0.00000000000E+00 0. -1.
         25    2    1    2    0    0  0.99458253950E+02 -0.68278028689E+02  0.13701283594E+03  0.22125111778E+03  0.12500282568E+03 0.  0.
          2    1    1    2  501    0 -0.51219898295E+02 -0.60683016759E+01 -0.35263400556E+03  0.35638608859E+03  0.00000000000E+00 0. -1.
          1    1    1    2  502    0 -0.48238355655E+02  0.74346330365E+02  0.15149208081E+04  0.15175109129E+04  0.00000000000E+00 0. -1.
         22    1    3    3    0    0  0.19920116510E+02 -0.88724125223E+02  0.62303837036E+02  0.11022953120E+03  0.00000000000E+00 0.  1.
         22    1    3    3    0    0  0.79538137440E+02  0.20446096533E+02  0.74708998908E+02  0.11102158659E+03  0.00000000000E+00 0.  1.
</event>
<event>
 7    1  0.7961130E-006  0.1331858E+03  0.7818608E-02  0.1325495E+00
          2   -1    0    0  502    0  0.00000000000E+00  0.00000000000E+00  0.37197982880E+03  0.37197982880E+03  0.00000000000E+00 0. -1.
          1   -1    0    0  501    0 -0.00000000000E+00 -0.00000000000E+00 -0.97718258423E+03  0.97718258423E+03  0.00000000000E+00 0. -1.
         25    2    1    2    0    0 -0.79212877154E+01 -0.15242088017E+03 -0.25665899079E+03  0.32371818707E+03  0.12499902230E+03 0.  0.
          2    1    1    2  501    0 -0.40322658347E+02  0.28860679016E+02 -0.67305034051E+03  0.67487451902E+03  0.00000000000E+00 0. -1.
          1    1    1    2  502    0  0.48243946062E+02  0.12356020116E+03  0.32450657587E+03  0.35056970694E+03  0.00000000000E+00 0. -1.
         22    1    3    3    0    0  0.32556369195E+02 -0.10093744827E+03 -0.73055497260E+02  0.12878428211E+03  0.00000000000E+00 0. -1.
         22    1    3    3    0    0 -0.40477656911E+02 -0.51483431909E+02 -0.18360349353E+03  0.19493390497E+03  0.00000000000E+00 0. -1.
</event>
<event>
 7    1  0.7961130E-006  0.1236175E+03  0.7818608E-02  0.1345918E+00
          2   -1    0    0  502    0  0.00000000000E+00  0.00000000000E+00  0.85734325229E+03  0.85734325229E+03  0.00000000000E+00 0. -1.
          1   -1    0    0  501    0 -0.00000000000E+00 -0.00000000000E+00 -0.81280267408E+03  0.81280267408E+03  0.00000000000E+00 0. -1.
         25    2    1    2    0    0  0.44290162639E+02  0.16013352025E+03  0.13065268870E+03  0.24555934572E+03  0.12499961757E+03 0.  0.
          2    1    1    2  501    0 -0.40611760021E+02 -0.11557560749E+03 -0.74962516305E+03  0.75956890482E+03  0.00000000000E+00 0. -1.
          1    1    1    2  502    0 -0.36784026176E+01 -0.44557912759E+02  0.66351305256E+03  0.66501767582E+03  0.00000000000E+00 0. -1.
         22    1    3    3    0    0  0.41044062153E+02  0.86089242825E+02  0.27643973704E-01  0.95372813382E+02  0.00000000000E+00 0.  1.
         22    1    3    3    0    0  0.32461004857E+01  0.74044277428E+02  0.13062504472E+03  0.15018653234E+03  0.00000000000E+00 0.  1.
</event>
<event>
 7    1  0.7961130E-006  0.1273335E+03  0.7818608E-02  0.1300461E+00
          2   -1    0    0  502    0  0.00000000000E+00  0.00000000000E+00  0.26455887892E+04  0.26455887892E+04  0.00000000000E+00 0. -1.
          1   -1    0    0  501    0 -0.00000000000E+00 -0.00000000000E+00 -0.49126463529E+03  0.49126463529E+03  0.00000000000E+00 0. -1.
         25    2    1    2    0    0 -0.66749254142E+02 -0.39578280517E+01  0.18811136573E+03  0.23556763848E+03  0.12504038968E+03 0.  0.
          2    1    1    2  501    0  0.12916723348E+03 -0.14273048975E+02 -0.45806184979E+03  0.47613921531E+03  0.00000000000E+00 0. -1.
          1    1    1    2  502    0 -0.62417979337E+02  0.18230877027E+02  0.24242746380E+04  0.24251465707E+04  0.00000000000E+00 0. -1.
         22    1    3    3    0    0  0.11459115512E+02  0.20391837569E+02  0.13707777970E+03  0.13905918184E+03  0.00000000000E+00 0.  1.
         22    1    3    3    0    0 -0.78208369655E+02 -0.24349665620E+02  0.51033586030E+02  0.96508456639E+02  0.00000000000E+00 0.  1.
</event>
<event>
 7    1  0.7961130E-006  0.6268467E+02  0.7818608E-02  0.1423522E+00
          2   -1    0    0  502    0  0.00000000000E+00  0.00000000000E+00  0.18239248049E+03  0.18239248049E+03  0.00000000000E+00 0. -1.
          1   -1    0    0  501    0 -0.00000000000E+00 -0.00000000000E+00 -0.77738847180E+03  0.77738847180E+03  0.00000000000E+00 0. -1.
         25    2    1    2    0    0 -0.26174709291E+02 -0.22092542564E+02  0.79459235603E+01  0.12985243369E+03  0.12500128396E+03 0.  0.
          2    1    1    2  501    0  0.63099665911E+02 -0.69968619170E+01 -0.71009017091E+03  0.71292255872E+03  0.00000000000E+00 0. -1.
          1    1    1    2  502    0 -0.36924956621E+02  0.29089404481E+02  0.10714825604E+03  0.11700595988E+03  0.00000000000E+00 0. -1.
         22    1    3    3    0    0 -0.24066382984E+02  0.50952355680E+02  0.34547959349E-01  0.56350106769E+02  0.00000000000E+00 0.  1.
         22    1    3    3    0    0 -0.21083263068E+01 -0.73044898244E+02  0.79113756009E+01  0.73502326923E+02  0.00000000000E+00 0.  1.
</event>
<event>
 7    1  0.7961130E-006  0.7035912E+02  0.7818608E-02  0.1486437E+00
          2   -1    0    0  502    0  0.00000000000E+00  0.00000000000E+00  0.11033320502E+04  0.11033320502E+04  0.00000000000E+00 0. -1.
          1   -1    0    0  501    0 -0.00000000000E+00 -0.00000000000E+00 -0.13270338347E+04  0.13270338347E+04  0.00000000000E+00 0. -1.
         25    2    1    2    0    0 -0.86500558076E+02 -0.17561068925E+02 -0.17524380792E+03  0.23265019281E+03  0.12499992924E+03 0.  0.
          2    1    1    2  501    0  0.16301981237E+02  0.20797747600E+02 -0.11217822242E+04  0.11220934272E+04  0.00000000000E+00 0. -1.
          1    1    1    2  502    0  0.70198576839E+02 -0.32366786742E+01  0.10733242476E+04  0.10756222649E+04  0.00000000000E+00 0. -1.
         22    1    3    3    0    0 -0.97761246216E+02  0.30979654420E+02 -0.12766059167E+03  0.16375050203E+03  0.00000000000E+00 0. -1.
         22    1    3    3    0    0  0.11260688139E+02 -0.48540723346E+02 -0.47583216252E+02  0.68899690777E+02  0.00000000000E+00 0. -1.
</event>
<event>
 7    1  0.7961130E-006  0.5743063E+02  0.7818608E-02  0.1498436E+00
          2   -1    0    0  502    0  0.00000000000E+00  0.00000000000E+00  0.70350649433E+03  0.70350649433E+03  0.00000000000E+00 0. -1.
          1   -1    0    0  501    0 -0.00000000000E+00 -0.00000000000E+00 -0.51393829737E+03  0.51393829737E+03  0.00000000000E+00 0. -1.
         25    2    1    2    0    0  0.16586708656E+02 -0.70035928761E+02  0.29423598386E+03  0.32768742756E+03  0.12499634301E+03 0.  0.
          2    1    1    2  501    0  0.99536412331E+01  0.56514378809E+02 -0.49498753697E+03  0.49830273102E+03  0.00000000000E+00 0. -1.
          1    1    1    2  502    0 -0.26540349889E+02  0.13521549953E+02  0.39031975008E+03  0.39145463311E+03  0.00000000000E+00 0. -1.
         22    1    3    3    0    0  0.68394209875E+02 -0.53576013501E+02  0.14722727656E+03  0.17095036745E+03  0.00000000000E+00 0.  1.
         22    1    3    3    0    0 -0.51807501219E+02 -0.16459915260E+02  0.14700870730E+03  0.15673706012E+03  0.00000000000E+00 0.  1.
</event>
<event>
 7    1  0.7961130E-006  0.9911915E+02  0.7818608E-02  0.1338367E+00
          2   -1    0    0  502    0  0.00000000000E+00  0.00000000000E+00  0.17558236591E+04  0.17558236591E+04  0.00000000000E+00 0. -1.
          1   -1    0    0  501    0 -0.00000000000E+00 -0.00000000000E+00 -0.10429911328E+04  0.10429911328E+04  0.00000000000E+00 0. -1.
         25    2    1    2    0    0 -0.41668346612E+02  0.20548634465E+01  0.11386154820E+02  0.13227079042E+03  0.12500177560E+03 0.  0.
          2    1    1    2  501    0  0.10088592234E+03 -0.80108465059E+01 -0.97941472630E+03  0.98462954916E+03  0.00000000000E+00 0. -1.
          1    1    1    2  502    0 -0.59217575728E+02  0.59559830594E+01  0.16808610977E+04  0.16819144523E+04  0.00000000000E+00 0. -1.
         22    1    3    3    0    0 -0.54097231760E+02 -0.51836344523E+02 -0.34720719314E+01  0.75003815777E+02  0.00000000000E+00 0. -1.
         22    1    3    3    0    0  0.12428885148E+02  0.53891207970E+02  0.14858226751E+02  0.57266974642E+02  0.00000000000E+00 0. -1.
</event>
<event>
 7    1  0.7961130E-006  0.1287185E+03  0.7818608E-02  0.1251568E+00
          2   -1    0    0  502    0  0.00000000000E+00  0.00000000000E+00  0.50546657297E+03  0.50546657297E+03  0.00000000000E+00 0. -1.
          1   -1    0    0  501    0 -0.00000000000E+00 -0.00000000000E+00 -0.29463880781E+04  0.29463880781E+04  0.00000000000E+00 0. -1.
         25    2    1    2    0    0 -0.38001955183E+02 -0.40097295141E+00 -0.19987699134E+03  0.23878772914E+03  0.12499783416E+03 0.  0.
          2    1    1    2  501    0  0.12754120612E+03 -0.50013857655E+02 -0.27198809621E+04  0.27233289543E+04  0.00000000000E+00 0. -1.
          1    1    1    2  502    0 -0.89539250935E+02  0.50414830606E+02  0.47883644838E+03  0.48973796759E+03  0.00000000000E+00 0. -1.
         22    1    3    3    0    0 -0.49891991668E+02  0.47897133676E+02 -0.16238593859E+03  0.17650081954E+03  0.00000000000E+00 0.  1.
         22    1    3    3    0    0  0.11890036485E+02 -0.48298106627E+02 -0.37491052753E+02  0.62286909603E+02  0.00000000000E+00 0.  1.
</event>
<event>
 7    1  0.7961130E-006  0.1711388E+03  0.7818608E-02  0.1277000E+00
          2   -1    0    0  502    0  0.00000000000E+00  0.00000000000E+00  0.97444303025E+03  0.97444303025E+03  0.00000000000E+00 0. -1.
          1   -1    0    0  501    0 -0.00000000000E+00 -0.00000000000E+00 -0.18291610155E+04  0.18291610155E+04  0.00000000000E+00 0. -1.
         25    2    1    2    0    0 -0.14798653979E+02  0.17706641255E+03 -0.41256426383E+02  0.22113060531E+03  0.12500054909E+03 0.  0.
          2    1    1    2  501    0 -0.56437651746E+02 -0.21227400490E+02 -0.16891259670E+04  0.16902018647E+04  0.00000000000E+00 0. -1.
          1    1    1    2  502    0  0.71236305725E+02 -0.15583901206E+03  0.87566440820E+03  0.89227157566E+03  0.00000000000E+00 0. -1.
         22    1    3    3    0    0 -0.23953241028E+02  0.15733637965E+02 -0.51795214266E+02  0.59195011109E+02  0.00000000000E+00 0. -1.
         22    1    3    3    0    0  0.91545870487E+01  0.16133277458E+03  0.10538787883E+02  0.16193559420E+03  0.00000000000E+00 0. -1.
</event>
<event>
 7    1  0.7961130E-006  0.2262848E+03  0.7818608E-02  0.1287119E+00
          2   -1    0    0  502    0  0.00000000000E+00  0.00000000000E+00  0.95354596235E+03  0.95354596235E+03  0.00000000000E+00 0. -1.
          1   -1    0    0  501    0 -0.00000000000E+00 -0.00000000000E+00 -0.10946164003E+04  0.10946164003E+04  0.00000000000E+00 0. -1.
         25    2    1    2    0    0  0.16922882415E+02 -0.20579512568E+03 -0.43466852083E+03  0.49719201888E+03  0.12500065173E+03 0.  0.
          2    1    1    2  501    0 -0.36083898626E+02 -0.20356482098E+02 -0.61401441532E+03  0.61541054291E+03  0.00000000000E+00 0. -1.
          1    1    1    2  502    0  0.19161016211E+02  0.22615160778E+03  0.90761249816E+03  0.93555980090E+03  0.00000000000E+00 0. -1.
         22    1    3    3    0    0  0.51997620560E+02 -0.49630165055E+02 -0.76959521177E+02  0.10530751980E+03  0.00000000000E+00 0. -1.
         22    1    3    3    0    0 -0.35074738145E+02 -0.15616496063E+03 -0.35770899965E+03  0.39188449907E+03  0.00000000000E+00 0. -1.
</event>
<event>
 7    1  0.7961130E-006  0.1046826E+03  0.7818608E-02  0.1340953E+00
          2   -1    0    0  502    0  0.00000000000E+00  0.00000000000E+00  0.54815147494E+02  0.54815147494E+02  0.00000000000E+00 0. -1.
          1   -1    0    0  501    0 -0.00000000000E+00 -0.00000000000E+00 -0.13918623658E+04  0.13918623658E+04  0.00000000000E+00 0. -1.
         25    2    1    2    0    0  0.71019619994E+01  0.62251877540E+02 -0.28951676775E+03  0.32150708234E+03  0.12498444330E+03 0.  0.
          2    1    1    2  501    0  0.17145439072E+02  0.52369117113E+02 -0.99542390692E+03  0.99694796503E+03  0.00000000000E+00 0. -1.
          1    1    1    2  502    0 -0.24247401071E+02 -0.11462099465E+03 -0.52106543611E+02  0.12822246590E+03  0.00000000000E+00 0. -1.
         22    1    3    3    0    0 -0.26031581073E+02  0.88808617901E+02 -0.15583498551E+03  0.18124336273E+03  0.00000000000E+00 0.  1.
         22    1    3    3    0    0  0.33133543072E+02 -0.26556740361E+02 -0.13368178224E+03  0.14026371960E+03  0.00000000000E+00 0.  1.
</event>
<event>
 7    1  0.7961130E-006  0.1305808E+03  0.7818608E-02  0.1340563E+00
          2   -1    0    0  502    0  0.00000000000E+00  0.00000000000E+00  0.51751993926E+03  0.51751993926E+03  0.00000000000E+00 0. -1.
          1   -1    0    0  501    0 -0.00000000000E+00 -0.00000000000E+00 -0.49184224434E+03  0.49184224434E+03  0.00000000000E+00 0. -1.
         25    2    1    2    0    0  0.11667520095E+03 -0.11646618491E+02 -0.89092805534E+02  0.19316042672E+03  0.12499870485E+03 0.  0.
          2    1    1    2  501    0  0.11471231533E+02  0.42814699858E+02 -0.33990644639E+03  0.34278430532E+03  0.00000000000E+00 0. -1.
          1    1    1    2  502    0 -0.12814643248E+03 -0.31168081368E+02  0.45467694684E+03  0.47341745156E+03  0.00000000000E+00 0. -1.
         22    1    3    3    0    0  0.11318884710E+03  0.27655751223E+02 -0.98527191117E+02  0.15259149082E+03  0.00000000000E+00 0. -1.
         22    1    3    3    0    0  0.34863538546E+01 -0.39302369713E+02  0.94343855830E+01  0.40568935895E+02  0.00000000000E+00 0. -1.
</event>
<event>
 7    1  0.7961130E-006  0.8339572E+02  0.7818608E-02  0.1469222E+00
          2   -1    0    0  502    0  0.00000000000E+00  0.00000000000E+00  0.10655308442E+04  0.10655308442E+04  0.00000000000E+00 0. -1.
          1   -1    0    0  501    0 -0.00000000000E+00 -0.00000000000E+00 -0.19549629907E+03  0.19549629907E+03  0.00000000000E+00 0. -1.
         25    2    1    2    0    0  0.17891592525E+02 -0.79046632426E+02  0.24012220250E+03  0.28258803460E+03  0.12501538299E+03 0.  0.
          2    1    1    2  501    0 -0.24751271275E+02 -0.46623261508E+01 -0.17114618671E+03  0.17298953709E+03  0.00000000000E+00 0. -1.
          1    1    1    2  502    0  0.68596787503E+01  0.83708958577E+02  0.80105852929E+03  0.80544957154E+03  0.00000000000E+00 0. -1.
         22    1    3    3    0    0 -0.23662634220E+02 -0.34309438811E+02  0.21075049382E+03  0.21483209372E+03  0.00000000000E+00 0.  1.
         22    1    3    3    0    0  0.41554226745E+02 -0.44737193615E+02  0.29371708681E+02  0.67755940874E+02  0.00000000000E+00 0.  1.
</event>
<event>
 7    1  0.7961130E-006  0.5876622E+02  0.7818608E-02  0.1448110E+00
          2   -1    0    0  502    0  0.00000000000E+00  0.00000000000E+00  0.31676808814E+03  0.31676808814E+03  0.00000000000E+00 0. -1.
          1   -1    0    0  501    0 -0.00000000000E+00 -0.00000000000E+00 -0.82408203277E+02  0.82408203277E+02  0.00000000000E+00 0. -1.
         25    2    1    2    0    0 -0.15490430700E+02  0.58163758547E+02  0.15799039651E+03  0.21024732177E+03  0.12497997709E+03 0.  0.
          2    1    1    2  501    0 -0.25974323976E+02 -0.53948441025E+02 -0.35457974560E+02  0.69587123485E+02  0.00000000000E+00 0. -1.
          1    1    1    2  502    0  0.41464754676E+02 -0.42153175220E+01  0.11182746291E+03  0.11934184616E+03  0.00000000000E+00 0. -1.
         22    1    3    3    0    0  0.11701066618E+02 -0.30419671052E+01  0.14051067007E+03  0.14102984410E+03  0.00000000000E+00 0.  1.
         22    1    3    3    0    0 -0.27191497318E+02  0.61205725652E+02  0.17479726435E+02  0.69217477672E+02  0.00000000000E+00 0.  1.
</event>
<event>
 7    1  0.7961130E-006  0.8346026E+02  0.7818608E-02  0.1348235E+00
          2   -1    0    0  502    0  0.00000000000E+00  0.00000000000E+00  0.21279213979E+03  0.21279213979E+03  0.00000000000E+00 0. -1.
          1   -1    0    0  501    0 -0.00000000000E+00 -0.00000000000E+00 -0.80956319267E+03  0.80956319267E+03  0.00000000000E+00 0. -1.
         25    2    1    2    0    0  0.11640941275E+03  0.66088455663E+02 -0.55965073954E+02  0.19150944112E+03  0.12499976475E+03 0.  0.
          2    1    1    2  501    0 -0.37965634362E+02 -0.52660858909E+02 -0.67322694153E+03  0.67634981353E+03  0.00000000000E+00 0. -1.
          1    1    1    2  502    0 -0.78443778384E+02 -0.13427596755E+02  0.13242096261E+03  0.15449607781E+03  0.00000000000E+00 0. -1.
         22    1    3    3    0    0  0.70136404938E+02 -0.27815145049E+02 -0.40665874578E+02  0.85711790011E+02  0.00000000000E+00 0.  1.
         22    1    3    3    0    0  0.46273007809E+02  0.93903600712E+02 -0.15299199375E+02  0.10579765111E+03  0.00000000000E+00 0.  1.
</event>
<event>
 7    1  0.7961130E-006  0.1057120E+03  0.7818608E-02  0.1325029E+00
          2   -1    0    0  502    0  0.00000000000E+00  0.00000000000E+00  0.51732431874E+03  0.51732431874E+03  0.00000000000E+00 0. -1.
          1   -1    0    0  501    0 -0.00000000000E+00 -0.00000000000E+00 -0.19344836723E+03  0.19344836723E+03  0.00000000000E+00 0. -1.
         25    2    1    2    0    0  0.15704878090E+03  0.43341417120E+02  0.68833586037E+02  0.21657013656E+03  0.12498705318E+03 0.  0.
          2    1    1    2  501    0 -0.61402887912E+02 -0.12847297284E+02 -0.10396397205E+03  0.12142435990E+03  0.00000000000E+00 0. -1.
          1    1    1    2  502    0 -0.95645892984E+02 -0.30494119836E+02  0.35900633753E+03  0.37277818951E+03  0.00000000000E+00 0. -1.
         22    1    3    3    0    0  0.78710733721E+02 -0.11639818753E+02 -0.24130771848E+02  0.83145409576E+02  0.00000000000E+00 0.  1.
         22    1    3    3    0    0  0.78338047176E+02  0.54981235872E+02  0.92964357885E+02  0.13342472698E+03  0.00000000000E+00 0.  1.
</event>
<event>
 7    1  0.7961130E-006  0.7442961E+02  0.7818608E-02  0.1389000E+00
          2   -1    0    0  502    0  0.00000000000E+00  0.00000000000E+00  0.23908482924E+04  0.23908482924E+04  0.00000000000E+00 0. -1.
          1   -1    0    0  501    0 -0.00000000000E+00 -0.00000000000E+00 -0.16786918295E+03  0.16786918295E+03  0.00000000000E+00 0. -1.
         25    2    1    2    0    0 -0.26718504280E+02 -0.11905041893E+02 -0.52172997596E+02  0.13857592204E+03  0.12500262396E+03 0.  0.
          2    1    1    2  501    0 -0.47463125810E+02  0.21012745511E+02 -0.62529014647E+02  0.81265992016E+02  0.00000000000E+00 0. -1.
          1    1    1    2  502    0  0.74181630090E+02 -0.91077036176E+01  0.23376811216E+04  0.23388755612E+04  0.00000000000E+00 0. -1.
         22    1    3    3    0    0 -0.56297976447E+02 -0.27494680558E+02  0.14212957297E+02  0.64245060247E+02  0.00000000000E+00 0. -1.
         22    1    3    3    0    0  0.29579472167E+02  0.15589638665E+02 -0.66385954893E+02  0.74330861790E+02  0.00000000000E+00 0. -1.
</event>
<event>
 7    1  0.7961130E-006  0.8960637E+02  0.7818608E-02  0.1352010E+00
          2   -1    0    0  502    0  0.00000000000E+00  0.00000000000E+00  0.40900604834E+03  0.40900604834E+03  0.00000000000E+00 0. -1.
          1   -1    0    0  501    0 -0.00000000000E+00 -0.00000000000E+00 -0.75733538351E+03  0.75733538351E+03  0.00000000000E+00 0. -1.
         25    2    1    2    0    0  0.15583691725E+02 -0.92980042859E+02 -0.68415280821E+01  0.15671559684E+03  0.12499932787E+03 0.  0.
          2    1    1    2  501    0  0.49986894818E+02  0.30487313666E+02 -0.66811279157E+03  0.67067344379E+03  0.00000000000E+00 0. -1.
          1    1    1    2  502    0 -0.65570586543E+02  0.62492729192E+02  0.32662498448E+03  0.33895239122E+03  0.00000000000E+00 0. -1.
         22    1    3    3    0    0  0.20748483450E+02 -0.43301481326E+02  0.57725599055E+02  0.75085036038E+02  0.00000000000E+00 0.  1.
         22    1    3    3    0    0 -0.51647917250E+01 -0.49678561533E+02 -0.64567127137E+02  0.81630560799E+02  0.00000000000E+00 0.  1.
</event>
<event>
 7    1  0.7961130E-006  0.1321921E+03  0.7818608E-02  0.1296739E+00
          2   -1    0    0  502    0  0.00000000000E+00  0.00000000000E+00  0.28317267663E+03  0.28317267663E+03  0.00000000000E+00 0. -1.
          1   -1    0    0  501    0 -0.00000000000E+00 -0.00000000000E+00 -0.13303649142E+04  0.13303649142E+04  0.00000000000E+00 0. -1.
         25    2    1    2    0    0 -0.12737720071E+03  0.42324031466E+02 -0.24751924203E+03  0.30806984389E+03  0.12499991457E+03 0.  0.
          2    1    1    2  501    0 -0.37287385585E+01 -0.64719968564E+02 -0.10339971193E+04  0.10360273262E+04  0.00000000000E+00 0. -1.
          1    1    1    2  502    0  0.13110593927E+03  0.22395937098E+02  0.23432412382E+03  0.26944042071E+03  0.00000000000E+00 0. -1.
         22    1    3    3    0    0 -0.55437403018E+02  0.62003150893E+02 -0.50253625765E+02  0.97175733990E+02  0.00000000000E+00 0.  1.
         22    1    3    3    0    0 -0.71939797693E+02 -0.19679119427E+02 -0.19726561626E+03  0.21089410990E+03  0.00000000000E+00 0.  1.
</event>
<event>
 7    1  0.7961130E-006  0.1406512E+03  0.7818608E-02  0.1326081E+00
          2   -1    0    0  502    0  0.00000000000E+00  0.00000000000E+00  0.30673489521E+04  0.30673489521E+04  0.00000000000E+00 0. -1.
          1   -1    0    0  501    0 -0.00000000000E+00 -0.00000000000E+00 -0.66785884842E+03  0.66785884842E+03  0.00000000000E+00 0. -1.
         25    2    1    2    0    0 -0.11445911458E+03  0.76519992749E+02  0.40803253719E+03  0.44840775003E+03  0.12499104239E+03 0.  0.
          2    1    1    2  501    0  0.84699615405E+02 -0.11252496936E+03 -0.63980487205E+03  0.65512301737E+03  0.00000000000E+00 0. -1.
          1    1    1    2  502    0  0.29759499171E+02  0.36004976615E+02  0.26312624385E+04  0.26316770331E+04  0.00000000000E+00 0. -1.
         22    1    3    3    0    0 -0.80582314609E+02  0.10218370370E+03  0.36676834052E+03  0.38917095772E+03  0.00000000000E+00 0. -1.
         22    1    3    3    0    0 -0.33876799968E+02 -0.25663710946E+02  0.41264196674E+02  0.59236792306E+02  0.00000000000E+00 0. -1.
</event>
<event>
 7    1  0.9161223E-006  0.1957900E+03  0.7818608E-02  0.1285649E+00
          2   -1    0    0  502    0  0.00000000000E+00  0.00000000000E+00  0.11097392994E+04  0.11097392994E+04  0.00000000000E+00 0. -1.
          1   -1    0    0  501    0 -0.00000000000E+00 -0.00000000000E+00 -0.21985917463E+04  0.21985917463E+04  0.00000000000E+00 0. -1.
         25    2    1    2    0    0 -0.30871668322E+02  0.16765977453E+03 -0.23940810759E+03  0.31939680711E+03  0.12504086737E+03 0.  0.
          2    1    1    2  501    0  0.39000417754E+02  0.28915536484E+02 -0.19098321109E+04  0.19104491180E+04  0.00000000000E+00 0. -1.
          1    1    1    2  502    0 -0.81287494316E+01 -0.19657531102E+03  0.10603877715E+04  0.10784851206E+04  0.00000000000E+00 0. -1.
         22    1    3    3    0    0 -0.20578806503E+02  0.98205787367E+02 -0.40050983582E+02  0.10803677723E+03  0.00000000000E+00 0. -1.
         22    1    3    3    0    0 -0.10292861819E+02  0.69453987165E+02 -0.19935712400E+03  0.21136002987E+03  0.00000000000E+00 0. -1.
</event>
<event>
 7    1  0.7961130E-006  0.1118063E+03  0.7818608E-02  0.1375164E+00
          2   -1    0    0  502    0  0.00000000000E+00  0.00000000000E+00  0.35584741634E+03  0.35584741634E+03  0.00000000000E+00 0. -1.
          1   -1    0    0  501    0 -0.00000000000E+00 -0.00000000000E+00 -0.76726705813E+03  0.76726705813E+03  0.00000000000E+00 0. -1.
         25    2    1    2    0    0  0.96724917397E+02 -0.80054839259E+01 -0.48882045693E+02  0.16563157674E+03  0.12499826961E+03 0.  0.
          2    1    1    2  501    0 -0.10370351261E+03  0.46038887599E+02 -0.65384674607E+03  0.66361853881E+03  0.00000000000E+00 0. -1.
          1    1    1    2  502    0  0.69785952102E+01 -0.38033403673E+02  0.29130914998E+03  0.29386435893E+03  0.00000000000E+00 0. -1.
         22    1    3    3    0    0  0.95841902819E+02 -0.19207578491E+02 -0.83923655901E+02  0.12883237725E+03  0.00000000000E+00 0. -1.
         22    1    3    3    0    0  0.88301457820E+00  0.11202094565E+02  0.35041610208E+02  0.36799199494E+02  0.00000000000E+00 0. -1.
</event>
<event>
 7    1  0.7961130E-006  0.6542568E+02  0.7818608E-02  0.1474650E+00
          2   -1    0    0  502    0  0.00000000000E+00  0.00000000000E+00  0.15553220619E+04  0.15553220619E+04  0.00000000000E+00 0. -1.
          1   -1    0    0  501    0 -0.00000000000E+00 -0.00000000000E+00 -0.19879419216E+03  0.19879419216E+03  0.00000000000E+00 0. -1.
         25    2    1    2    0    0  0.35875142517E+02  0.21296448196E+02  0.47399564124E+01  0.13189065241E+03  0.12502844657E+03 0.  0.
          2    1    1    2  501    0 -0.66476980765E+02 -0.17137238078E+02 -0.12633372145E+03  0.14378137249E+03  0.00000000000E+00 0. -1.
          1    1    1    2  502    0  0.30601838248E+02 -0.41592101174E+01  0.14781216348E+04  0.14784442292E+04  0.00000000000E+00 0. -1.
         22    1    3    3    0    0 -0.23216720735E+02 -0.39189652827E+02 -0.83915383529E+01  0.46316983131E+02  0.00000000000E+00 0.  1.
         22    1    3    3    0    0  0.59091863252E+02  0.60486101023E+02  0.13131494765E+02  0.85573669281E+02  0.00000000000E+00 0.  1.
</event>
<event>
 7    1  0.7961130E-006  0.1234533E+03  0.7818608E-02  0.1317180E+00
          2   -1    0    0  502    0  0.00000000000E+00  0.00000000000E+00  0.27322474836E+03  0.27322474836E+03  0.00000000000E+00 0. -1.
          1   -1    0    0  501    0 -0.00000000000E+00 -0.00000000000E+00 -0.58094520951E+03  0.58094520951E+03  0.00000000000E+00 0. -1.
         25    2    1    2    0    0 -0.82938092190E+02  0.49677855628E+02  0.10482502823E+03  0.18962979372E+03  0.12499822258E+03 0.  0.
          2    1    1    2  501    0 -0.42626330021E+02  0.38757905261E+02 -0.48941583352E+03  0.49279512714E+03  0.00000000000E+00 0. -1.
          1    1    1    2  502    0  0.12556442221E+03 -0.88435760889E+02  0.76870344145E+02  0.17174503701E+03  0.00000000000E+00 0. -1.
         22    1    3    3    0    0 -0.42303648258E+02  0.30317155376E+02  0.12859504667E+03  0.13872784362E+03  0.00000000000E+00 0. -1.
         22    1    3    3    0    0 -0.40634443932E+02  0.19360700252E+02 -0.23770018440E+02  0.50901950105E+02  0.00000000000E+00 0. -1.
</event>
<event>
 7    1  0.7961130E-006  0.1264749E+03  0.7818608E-02  0.1370417E+00
          2   -1    0    0  502    0  0.00000000000E+00  0.00000000000E+00  0.27445923553E+03  0.27445923553E+03  0.00000000000E+00 0. -1.
          1   -1    0    0  501    0 -0.00000000000E+00 -0.00000000000E+00 -0.56011275629E+03  0.56011275629E+03  0.00000000000E+00 0. -1.
         25    2    1    2    0    0 -0.12190651502E+03  0.78920112496E+02 -0.36564114801E+03  0.41280502057E+03  0.12499981333E+03 0.  0.
          2    1    1    2  501    0  0.87503140913E+02 -0.69973597546E+02 -0.15101853148E+03  0.18804175300E+03  0.00000000000E+00 0. -1.
          1    1    1    2  502    0  0.34403374111E+02 -0.89465149507E+01  0.23100615871E+03  0.23372521824E+03  0.00000000000E+00 0. -1.
         22    1    3    3    0    0 -0.10798945696E+03  0.30329297753E+02 -0.12953924365E+03  0.17135344981E+03  0.00000000000E+00 0.  1.
         22    1    3    3    0    0 -0.13917058063E+02  0.48590814743E+02 -0.23610190435E+03  0.24145157076E+03  0.00000000000E+00 0.  1.
</event>
<event>
 7    1  0.7961130E-006  0.2130965E+03  0.7818608E-02  0.1254742E+00
          2   -1    0    0  502    0  0.00000000000E+00  0.00000000000E+00  0.47830275928E+03  0.47830275928E+03  0.00000000000E+00 0. -1.
          1   -1    0    0  501    0 -0.00000000000E+00 -0.00000000000E+00 -0.69923569018E+03  0.69923569018E+03  0.00000000000E+00 0. -1.
         25    2    1    2    0    0  0.10240569418E+02  0.16002537869E+03 -0.36113150436E+03  0.41443229207E+03  0.12500068071E+03 0.  0.
          2    1    1    2  501    0  0.27795733613E+02  0.53333507491E+02 -0.28210189548E+03  0.28844158033E+03  0.00000000000E+00 0. -1.
          1    1    1    2  502    0 -0.38036303031E+02 -0.21335888618E+03  0.42230046894E+03  0.47466457707E+03  0.00000000000E+00 0. -1.
         22    1    3    3    0    0  0.23624338997E+02  0.17801264529E+03 -0.30424287663E+03  0.35328506798E+03  0.00000000000E+00 0.  1.
         22    1    3    3    0    0 -0.13383769579E+02 -0.17987266606E+02 -0.56888627729E+02  0.61147224083E+02  0.00000000000E+00 0.  1.
</event>
<event>
 7    1  0.7961130E-006  0.1279998E+03  0.7818608E-02  0.1345087E+00
          2   -1    0    0  502    0  0.00000000000E+00  0.00000000000E+00  0.14143746684E+04  0.14143746684E+04  0.00000000000E+00 0. -1.
          1   -1    0    0  501    0 -0.00000000000E+00 -0.00000000000E+00 -0.39727665626E+03  0.39727665626E+03  0.00000000000E+00 0. -1.
         25    2    1    2    0    0  0.10958441420E+03 -0.11180495487E+03  0.27231296979E+02  0.20217737996E+03  0.12500023065E+03 0.  0.
          2    1    1    2  501    0 -0.10474108115E+03  0.68587327826E+02 -0.29677215508E+03  0.32210033786E+03  0.00000000000E+00 0. -1.
          1    1    1    2  502    0 -0.48433330547E+01  0.43217627047E+02  0.12866388703E+04  0.12873736069E+04  0.00000000000E+00 0. -1.
         22    1    3    3    0    0 -0.36734205475E+00 -0.65322789216E+02 -0.27473850545E+02  0.70866171019E+02  0.00000000000E+00 0. -1.
         22    1    3    3    0    0  0.10995175626E+03 -0.46482165656E+02  0.54705147524E+02  0.13131120894E+03  0.00000000000E+00 0. -1.
</event>
<event>
 7    1  0.7961130E-006  0.6665168E+02  0.7818608E-02  0.1430464E+00
          2   -1    0    0  502    0  0.00000000000E+00  0.00000000000E+00  0.17265644719E+04  0.17265644719E+04  0.00000000000E+00 0. -1.
          1   -1    0    0  501    0 -0.00000000000E+00 -0.00000000000E+00 -0.27236947217E+03  0.27236947217E+03  0.00000000000E+00 0. -1.
         25    2    1    2    0    0  0.56192814034E+02  0.20288825322E+02 -0.34297042697E+02  0.14272613572E+03  0.12500077559E+03 0.  0.
          2    1    1    2  501    0  0.72138665738E+01 -0.41307878382E+02 -0.18079019821E+03  0.18558953758E+03  0.00000000000E+00 0. -1.
          1    1    1    2  502    0 -0.63406680608E+02  0.21019053060E+02  0.16692822406E+04  0.16706182708E+04  0.00000000000E+00 0. -1.
         22    1    3    3    0    0 -0.32226671401E+02 -0.21789452194E+02  0.21117986086E+00  0.38902225816E+02  0.00000000000E+00 0.  1.
         22    1    3    3    0    0  0.88419485435E+02  0.42078277516E+02 -0.34508222558E+02  0.10382390990E+03  0.00000000000E+00 0.  1.
</event>
<event>
 7    1  0.7961130E-006  0.5976986E+02  0.7818608E-02  0.1460444E+00
          2   -1    0    0  502    0  0.00000000000E+00  0.00000000000E+00  0.20693313115E+04  0.20693313115E+04  0.00000000000E+00 0. -1.
          1   -1    0    0  501    0 -0.00000000000E+00 -0.00000000000E+00 -0.16173791666E+03  0.16173791666E+03  0.00000000000E+00 0. -1.
         25    2    1    2    0    0 -0.61164386620E+02 -0.74040195959E+02  0.10150051685E+04  0.10271722587E+04  0.12499729655E+03 0.  0.
          2    1    1    2  501    0  0.42842832638E+02  0.41389817760E+02 -0.14960637402E+03  0.16103009802E+03  0.00000000000E+00 0. -1.
          1    1    1    2  502    0  0.18321553982E+02  0.32650378199E+02  0.10421946004E+04  0.10428668715E+04  0.00000000000E+00 0. -1.
         22    1    3    3    0    0 -0.68405485614E+02 -0.32132300372E+02  0.25464265467E+03  0.26562130330E+03  0.00000000000E+00 0. -1.
         22    1    3    3    0    0  0.72410989940E+01 -0.41907895586E+02  0.76036251387E+03  0.76155095543E+03  0.00000000000E+00 0. -1.
</event>
<event>
 7    1  0.7961130E-006  0.8238032E+02  0.7818608E-02  0.1365044E+00
          2   -1    0    0  502    0  0.00000000000E+00  0.00000000000E+00  0.10934873520E+04  0.10934873520E+04  0.00000000000E+00 0. -1.
          1   -1    0    0  501    0 -0.00000000000E+00 -0.00000000000E+00 -0.37422109615E+02  0.37422109615E+02  0.00000000000E+00 0. -1.
         25    2    1    2    0    0 -0.43884862885E+02  0.23101730769E+02  0.76575890977E+03  0.77747751235E+03  0.12500001268E+03 0.  0.
          2    1    1    2  501    0  0.45526645591E+02  0.68657420048E+02  0.50408739303E+02  0.96579282377E+02  0.00000000000E+00 0. -1.
          1    1    1    2  502    0 -0.16417827062E+01 -0.91759150817E+02  0.23989759334E+03  0.25685266691E+03  0.00000000000E+00 0. -1.
         22    1    3    3    0    0 -0.35727988289E+02  0.72486915165E+02  0.38099639114E+03  0.38947283870E+03  0.00000000000E+00 0. -1.
         22    1    3    3    0    0 -0.81568745960E+01 -0.49385184396E+02  0.38476251863E+03  0.38800467366E+03  0.00000000000E+00 0. -1.
</event>
<event>
 7    1  0.7961130E-006  0.2731350E+03  0.7818608E-02  0.1252851E+00
          2   -1    0    0  502    0  0.00000000000E+00  0.00000000000E+00  0.18691967820E+03  0.18691967820E+03  0.00000000000E+00 0. -1.
          1   -1    0    0  501    0 -0.00000000000E+00 -0.00000000000E+00 -0.12679453203E+04  0.12679453203E+04  0.00000000000E+00 0. -1.
         25    2    1    2    0    0 -0.36942442094E+02 -0.26059978525E+03 -0.12974018476E+03  0.31895817293E+03  0.12499923373E+03 0.  0.
          2    1    1    2  501    0  0.84721616188E+02  0.26235244615E+03 -0.10175263393E+04  0.10542136451E+04  0.00000000000E+00 0. -1.
          1    1    1    2  502    0 -0.47779174094E+02 -0.17526608942E+01  0.66240881972E+02  0.81693180510E+02  0.00000000000E+00 0. -1.
         22    1    3    3    0    0 -0.79675993064E+02 -0.18225396119E+03 -0.11094588615E+03  0.22775811708E+03  0.00000000000E+00 0. -1.
         22    1    3    3    0    0  0.42733550970E+02 -0.78345824063E+02 -0.18794298604E+02  0.91200055848E+02  0.00000000000E+00 0. -1.
</event>
<event>
 7    1  0.7961130E-006  0.5936135E+02  0.7818608E-02  0.1508406E+00
          2   -1    0    0  502    0  0.00000000000E+00  0.00000000000E+00  0.86948704358E+03  0.86948704358E+03  0.00000000000E+00 0. -1.
          1   -1    0    0  501    0 -0.00000000000E+00 -0.00000000000E+00 -0.20605425575E+03  0.20605425575E+03  0.00000000000E+00 0. -1.
         25    2    1    2    0    0  0.37860454828E+02 -0.32116179284E+02 -0.16381614893E+02  0.13552007227E+03  0.12502987510E+03 0.  0.
          2    1    1    2  501    0 -0.24952625335E+02  0.55737490106E+02 -0.12269927051E+03  0.13705623772E+03  0.00000000000E+00 0. -1.
          1    1    1    2  502    0 -0.12907829492E+02 -0.23621310822E+02  0.80251367324E+03  0.80296498935E+03  0.00000000000E+00 0. -1.
         22    1    3    3    0    0  0.38141805209E+02 -0.70213239420E+02 -0.41349621467E+02  0.89969369732E+02  0.00000000000E+00 0.  1.
         22    1    3    3    0    0 -0.28135038176E+00  0.38097060135E+02  0.24968006574E+02  0.45550702533E+02  0.00000000000E+00 0.  1.
</event>
<event>
 7    1  0.7961130E-006  0.1045621E+03  0.7818608E-02  0.1355194E+00
          2   -1    0    0  502    0  0.00000000000E+00  0.00000000000E+00  0.10010223735E+04  0.10010223735E+04  0.00000000000E+00 0. -1.
          1   -1    0    0  501    0 -0.00000000000E+00 -0.00000000000E+00 -0.53130738966E+02  0.53130738966E+02  0.00000000000E+00 0. -1.
         25    2    1    2    0    0 -0.47038741139E+02 -0.44314777888E+02  0.63602650780E+03  0.65140668772E+03  0.12499804589E+03 0.  0.
          2    1    1    2  501    0  0.95024866683E+02  0.53400803871E+02  0.25102765968E+02  0.11185490602E+03  0.00000000000E+00 0. -1.
          1    1    1    2  502    0 -0.47986125544E+02 -0.90860259825E+01  0.28676236081E+03  0.29089151877E+03  0.00000000000E+00 0. -1.
         22    1    3    3    0    0 -0.83931759250E+01 -0.68570169307E+02  0.54723503832E+03  0.55157819090E+03  0.00000000000E+00 0.  1.
         22    1    3    3    0    0 -0.38645565214E+02  0.24255391419E+02  0.88791469488E+02  0.99828496820E+02  0.00000000000E+00 0.  1.
</event>
<event>
 7    1  0.9243626E-006  0.8256040E+02  0.7818608E-02  0.1371191E+00
          2   -1    0    0  502    0  0.00000000000E+00  0.00000000000E+00  0.56642786913E+03  0.56642786913E+03  0.00000000000E+00 0. -1.
          1   -1    0    0  501    0 -0.00000000000E+00 -0.00000000000E+00 -0.10981245510E+04  0.10981245510E+04  0.00000000000E+00 0. -1.
         25    2    1    2    0    0  0.39138421419E+02  0.11254944251E+01 -0.28138988653E+03  0.31038398352E+03  0.12499946486E+03 0.  0.
          2    1    1    2  501    0 -0.87432147603E+02  0.23276010423E+02 -0.79835004148E+03  0.80346060378E+03  0.00000000000E+00 0. -1.
          1    1    1    2  502    0  0.48293726184E+02 -0.24401504848E+02  0.54804324617E+03  0.55070783279E+03  0.00000000000E+00 0. -1.
         22    1    3    3    0    0  0.25076630602E+02  0.26531790877E+02 -0.27885592339E+03  0.28123548734E+03  0.00000000000E+00 0.  1.
         22    1    3    3    0    0  0.14061790817E+02 -0.25406296452E+02 -0.25339631391E+01  0.29148496180E+02  0.00000000000E+00 0.  1.
</event>
<event>
 7    1  0.8082963E-006  0.6997665E+02  0.7818608E-02  0.1411478E+00
          2   -1    0    0  502    0  0.00000000000E+00  0.00000000000E+00  0.27543490684E+04  0.27543490684E+04  0.00000000000E+00 0. -1.
          1   -1    0    0  501    0 -0.00000000000E+00 -0.00000000000E+00 -0.68237337844E+03  0.68237337844E+03  0.00000000000E+00 0. -1.
         25    2    1    2    0    0 -0.81606524617E+02  0.53560783583E+02  0.16062593450E+02  0.15940905906E+03  0.12499943521E+03 0.  0.
          2    1    1    2  501    0  0.35798468101E+02 -0.59646906503E+02 -0.60851810787E+03  0.61248148656E+03  0.00000000000E+00 0. -1.
          1    1    1    2  502    0  0.45808056516E+02  0.60861229199E+01  0.26644312044E+04  0.26648319012E+04  0.00000000000E+00 0. -1.
         22    1    3    3    0    0  0.37468060315E+01  0.50744971987E+02  0.46318903552E+02  0.68807932418E+02  0.00000000000E+00 0. -1.
         22    1    3    3    0    0 -0.85353330649E+02  0.28158115967E+01 -0.30256310102E+02  0.90601126642E+02  0.00000000000E+00 0. -1.
</event>
<event>
 7    1  0.2263827E-005  0.4872027E+02  0.7818608E-02  0.1477033E+00
          2   -1    0    0  502    0  0.00000000000E+00  0.00000000000E+00  0.11146060095E+04  0.11146060095E+04  0.00000000000E+00 0. -1.
          1   -1    0    0  501    0 -0.00000000000E+00 -0.00000000000E+00 -0.92192852163E+03  0.92192852163E+03  0.00000000000E+00 0. -1.
         25    2    1    2    0    0  0.40747360378E+02  0.37815619684E+02 -0.32209700913E+03  0.34994502404E+03  0.12499867237E+03 0.  0.
          2    1    1    2  501    0 -0.39293171372E+02  0.10898505929E+02 -0.58465755507E+03  0.58607779982E+03  0.00000000000E+00 0. -1.
          1    1    1    2  502    0 -0.14541890063E+01 -0.48714125613E+02  0.10994320520E+04  0.11005117072E+04  0.00000000000E+00 0. -1.
         22    1    3    3    0    0  0.18731670587E+02 -0.11869948130E+01 -0.29893392239E+03  0.29952257743E+03  0.00000000000E+00 0. -1.
         22    1    3    3    0    0  0.22015689791E+02  0.39002614497E+02 -0.23163086740E+02  0.50422446608E+02  0.00000000000E+00 0. -1.
</event>
<event>
 7    1  0.7961130E-006  0.4637876E+02  0.7818608E-02  0.1571937E+00
          2   -1    0    0  502    0  0.00000000000E+00  0.00000000000E+00  0.17543592071E+04  0.17543592071E+04  0.00000000000E+00 0. -1.
          1   -1    0    0  501    0 -0.00000000000E+00 -0.00000000000E+00 -0.17894305027E+03  0.17894305027E+03  0.00000000000E+00 0. -1.
         25    2    1    2    0    0  0.32760201361E+02 -0.56917254409E+02  0.41401786645E+02  0.14714204173E+03  0.12499547138E+03 0.  0.
          2    1    1    2  501    0 -0.15836270178E+01  0.22727093438E+02 -0.12471844396E+03  0.12678217113E+03  0.00000000000E+00 0. -1.
          1    1    1    2  502    0 -0.31176574343E+02  0.34190160971E+02  0.16587328141E+04  0.16593780445E+04  0.00000000000E+00 0. -1.
         22    1    3    3    0    0  0.26492561222E+02 -0.25740064976E+02  0.85289109262E+02  0.92944278488E+02  0.00000000000E+00 0. -1.
         22    1    3    3    0    0  0.62676401387E+01 -0.31177189434E+02 -0.43887322617E+02  0.54197763242E+02  0.00000000000E+00 0. -1.
</event>
<event>
 7    1  0.7961130E-006  0.2117971E+03  0.7818608E-02  0.1296554E+00
          2   -1    0    0  502    0  0.00000000000E+00  0.00000000000E+00  0.28183853112E+03  0.28183853112E+03  0.00000000000E+00 0. -1.
          1   -1    0    0  501    0 -0.00000000000E+00 -0.00000000000E+00 -0.91018435533E+03  0.91018435533E+03  0.00000000000E+00 0. -1.
         25    2    1    2    0    0 -0.20554896459E+03  0.11025594305E+03 -0.35665746218E+03  0.44411007095E+03  0.12498983947E+03 0.  0.
          2    1    1    2  501    0  0.16550696091E+03 -0.11653331274E+03 -0.48774921642E+03  0.52808319913E+03  0.00000000000E+00 0. -1.
          1    1    1    2  502    0  0.40042003683E+02  0.62773696970E+01  0.21606085439E+03  0.21982961636E+03  0.00000000000E+00 0. -1.
         22    1    3    3    0    0 -0.37468366562E+01  0.14292118418E+02 -0.11118117849E+03  0.11215862822E+03  0.00000000000E+00 0. -1.
         22    1    3    3    0    0 -0.20180212794E+03  0.95963824627E+02 -0.24547628369E+03  0.33195144273E+03  0.00000000000E+00 0. -1.
</event>
<event>
 7    1  0.7961130E-006  0.2359341E+03  0.7818608E-02  0.1231007E+00
          2   -1    0    0  502    0  0.00000000000E+00  0.00000000000E+00  0.21282737251E+04  0.21282737251E+04  0.00000000000E+00 0. -1.
          1   -1    0    0  501    0 -0.00000000000E+00 -0.00000000000E+00 -0.18329373467E+04  0.18329373467E+04  0.00000000000E+00 0. -1.
         25    2    1    2    0    0 -0.14737655382E+03  0.13856290538E+03 -0.30220254569E+03  0.38454111969E+03  0.12500386695E+03 0.  0.
          2    1    1    2  501    0 -0.62578006830E+02 -0.29183542722E+02 -0.14820459031E+04  0.14836535125E+04  0.00000000000E+00 0. -1.
          1    1    1    2  502    0  0.20995456065E+03 -0.10937936265E+03  0.20795848273E+04  0.20930164396E+04  0.00000000000E+00 0. -1.
         22    1    3    3    0    0 -0.86837715350E+02  0.65788775263E+02 -0.25801592194E+03  0.28007350416E+03  0.00000000000E+00 0. -1.
         22    1    3    3    0    0 -0.60538838466E+02  0.72774130112E+02 -0.44186623747E+02  0.10446761553E+03  0.00000000000E+00 0. -1.
</event>
<event>
 7    1  0.7961130E-006  0.6141065E+02  0.7818608E-02  0.1395979E+00
          2   -1    0    0  502    0  0.00000000000E+00  0.00000000000E+00  0.27668200438E+03  0.27668200438E+03  0.00000000000E+00 0. -1.
          1   -1    0    0  501    0 -0.00000000000E+00 -0.00000000000E+00 -0.20465285135E+03  0.20465285135E+03  0.00000000000E+00 0. -1.
         25    2    1    2    0    0 -0.48694261007E+02  0.53222507347E+02  0.12598651917E+03  0.19157496055E+03  0.12499838460E+03 0.  0.
          2    1    1    2  501    0  0.61816756402E+02  0.48044580357E+01 -0.15809938389E+03  0.16982287648E+03  0.00000000000E+00 0. -1.
          1    1    1    2  502    0 -0.13122495395E+02 -0.58026965382E+02  0.10414201775E+03  0.11993701871E+03  0.00000000000E+00 0. -1.
         22    1    3    3    0    0 -0.98890778257E+01  0.29097265658E+01  0.12759967423E+03  0.12801537889E+03  0.00000000000E+00 0.  1.
         22    1    3    3    0    0 -0.38805183181E+02  0.50312780781E+02 -0.16131550593E+01  0.63559581660E+02  0.00000000000E+00 0.  1.
</event>
<event>
 7    1  0.7961130E-006  0.3047712E+02  0.7818608E-02  0.1610245E+00
          2   -1    0    0  502    0  0.00000000000E+00  0.00000000000E+00  0.21816300442E+04  0.21816300442E+04  0.00000000000E+00 0. -1.
          1   -1    0    0  501    0 -0.00000000000E+00 -0.00000000000E+00 -0.22071637454E+04  0.22071637454E+04  0.00000000000E+00 0. -1.
         25    2    1    2    0    0  0.42403967771E+02  0.16719661474E+01  0.12409666111E+04  0.12479675779E+04  0.12499621467E+03 0.  0.
          2    1    1    2  501    0 -0.22485874582E+02 -0.20572561399E+02 -0.22033567255E+04  0.22035674949E+04  0.00000000000E+00 0. -1.
          1    1    1    2  502    0 -0.19918093189E+02  0.18900595252E+02  0.93685641326E+03  0.93725871669E+03  0.00000000000E+00 0. -1.
         22    1    3    3    0    0 -0.36745315936E+02  0.29073506021E+02  0.53553983995E+03  0.53758572077E+03  0.00000000000E+00 0.  1.
         22    1    3    3    0    0  0.79149283707E+02 -0.27401539873E+02  0.70542677114E+03  0.71038185713E+03  0.00000000000E+00 0.  1.
</event>
<event>
 7    1  0.7961130E-006  0.1426546E+03  0.7818608E-02  0.1314862E+00
          2   -1    0    0  502    0  0.00000000000E+00  0.00000000000E+00  0.22818142020E+03  0.22818142020E+03  0.00000000000E+00 0. -1.
          1   -1    0    0  501    0 -0.00000000000E+00 -0.00000000000E+00 -0.10526669785E+04  0.10526669785E+04  0.00000000000E+00 0. -1.
         25    2    1    2    0    0 -0.10336319053E+03  0.53914373787E+02 -0.67631897420E+02  0.18381974853E+03  0.12499967018E+03 0.  0.
          2    1    1    2  501    0 -0.50931288748E+01  0.50652251930E+02 -0.89271243680E+03  0.89416278462E+03  0.00000000000E+00 0. -1.
          1    1    1    2  502    0  0.10845631940E+03 -0.10456662572E+03  0.13585877589E+03  0.20286586558E+03  0.00000000000E+00 0. -1.
         22    1    3    3    0    0 -0.57773219012E+02  0.62493056322E+02  0.17483033423E+02  0.86883734848E+02  0.00000000000E+00 0. -1.
         22    1    3    3    0    0 -0.45589971514E+02 -0.85786825344E+01 -0.85114930844E+02  0.96936013685E+02  0.00000000000E+00 0. -1.
</event>
<event>
 7    1  0.7961130E-006  0.4813655E+02  0.7818608E-02  0.1466014E+00
          2   -1    0    0  502    0  0.00000000000E+00  0.00000000000E+00  0.40652629630E+03  0.40652629630E+03  0.00000000000E+00 0. -1.
          1   -1    0    0  501    0 -0.00000000000E+00 -0.00000000000E+00 -0.92483037255E+02  0.92483037255E+02  0.00000000000E+00 0. -1.
         25    2    1    2    0    0 -0.16176058777E+02  0.57435956396E+02  0.41904715299E+02  0.14471133309E+03  0.12499924318E+03 0.  0.
          2    1    1    2  501    0  0.41593228486E+02 -0.16243855703E+02 -0.26391966550E+02  0.51869021606E+02  0.00000000000E+00 0. -1.
          1    1    1    2  502    0 -0.25417169708E+02 -0.41192100693E+02  0.29853051029E+03  0.30242897886E+03  0.00000000000E+00 0. -1.
         22    1    3    3    0    0  0.18744210443E+02  0.77610681353E+02 -0.83476354973E+01  0.80277308772E+02  0.00000000000E+00 0.  1.
         22    1    3    3    0    0 -0.34920269221E+02 -0.20174724956E+02  0.50252350797E+02  0.64434024320E+02  0.00000000000E+00 0.  1.
</event>
<event>
 7    1  0.7961130E-006  0.1014317E+03  0.7818608E-02  0.1296906E+00
          2   -1    0    0  502    0  0.00000000000E+00  0.00000000000E+00  0.80556960220E+02  0.80556960220E+02  0.00000000000E+00 0. -1.
          1   -1    0    0  501    0 -0.00000000000E+00 -0.00000000000E+00 -0.14097980627E+04  0.14097980627E+04  0.00000000000E+00 0. -1.
         25    2    1    2    0    0 -0.13541303438E+03 -0.92309490477E+02 -0.43269057887E+03  0.47927414758E+03  0.12499935835E+03 0.  0.
          2    1    1    2  501    0  0.40429602262E+02  0.74036683419E+02 -0.90957895402E+03  0.91348226958E+03  0.00000000000E+00 0. -1.
          1    1    1    2  502    0  0.94983432118E+02  0.18272807058E+02  0.13028430377E+02  0.97598605793E+02  0.00000000000E+00 0. -1.
         22    1    3    3    0    0 -0.12585261788E+03 -0.14984346380E+02 -0.29487327628E+03  0.32095741326E+03  0.00000000000E+00 0.  1.
         22    1    3    3    0    0 -0.95604164984E+01 -0.77325144098E+02 -0.13781730259E+03  0.15831673432E+03  0.00000000000E+00 0.  1.
</event>
<event>
 7    1  0.7961130E-006  0.5728395E+02  0.7818608E-02  0.1466741E+00
          2   -1    0    0  502    0  0.00000000000E+00  0.00000000000E+00  0.54495489462E+03  0.54495489462E+03  0.00000000000E+00 0. -1.
          1   -1    0    0  501    0 -0.00000000000E+00 -0.00000000000E+00 -0.24095627816E+03  0.24095627816E+03  0.00000000000E+00 0. -1.
         25    2    1    2    0    0  0.77209421374E+02 -0.53922780720E+02 -0.98034190466E+02  0.18467295680E+03  0.12499774976E+03 0.  0.
          2    1    1    2  501    0 -0.30177311427E+02  0.21968153289E+02 -0.94424927460E+02  0.10153490439E+03  0.00000000000E+00 0. -1.
          1    1    1    2  502    0 -0.47032109947E+02  0.31954627432E+02  0.49645773438E+03  0.49970331159E+03  0.00000000000E+00 0. -1.
         22    1    3    3    0    0  0.51970682761E+01 -0.64721593237E+02 -0.30675459168E+01  0.65002338325E+02  0.00000000000E+00 0. -1.
         22    1    3    3    0    0  0.72012353098E+02  0.10798812516E+02 -0.94966644549E+02  0.11967061848E+03  0.00000000000E+00 0. -1.
</event>
<event>
 7    1  0.7961130E-006  0.7421275E+02  0.7818608E-02  0.1374943E+00
          2   -1    0    0  502    0  0.00000000000E+00  0.00000000000E+00  0.19743752202E+04  0.19743752202E+04  0.00000000000E+00 0. -1.
          1   -1    0    0  501    0 -0.00000000000E+00 -0.00000000000E+00 -0.17243121952E+03  0.17243121952E+03  0.00000000000E+00 0. -1.
         25    2    1    2    0    0 -0.18068223768E+02 -0.45440883272E+02  0.42903773524E+03  0.44954406513E+03  0.12500061459E+03 0.  0.
          2    1    1    2  501    0  0.71667254542E+02  0.22348432012E+02 -0.15290274850E+03  0.17033760092E+03  0.00000000000E+00 0. -1.
          1    1    1    2  502    0 -0.53599030773E+02  0.23092451260E+02  0.15258090139E+04  0.15269247737E+04  0.00000000000E+00 0. -1.
         22    1    3    3    0    0 -0.37978854057E+02 -0.99641675351E+01  0.32626068069E+02  0.51050350712E+02  0.00000000000E+00 0. -1.
         22    1    3    3    0    0  0.19910630289E+02 -0.35476715737E+02  0.39641166717E+03  0.39849371442E+03  0.00000000000E+00 0. -1.
</event>
<event>
 7    1  0.7961130E-006  0.1669639E+03  0.7818608E-02  0.1392290E+00
          2   -1    0    0  502    0  0.00000000000E+00  0.00000000000E+00  0.16747437297E+04  0.16747437297E+04  0.00000000000E+00 0. -1.
          1   -1    0    0  501    0 -0.00000000000E+00 -0.00000000000E+00 -0.47459148076E+04  0.47459148076E+04  0.00000000000E+00 0. -1.
         25    2    1    2    0    0  0.14788394151E+03 -0.11159036265E+03 -0.59756832500E+02  0.23133669096E+03  0.12499486533E+03 0.  0.
          2    1    1    2  501    0 -0.12542479100E+03  0.10973123198E+03 -0.45987787928E+04  0.46017973343E+04  0.00000000000E+00 0. -1.
          1    1    1    2  502    0 -0.22459150518E+02  0.18591306722E+01  0.15873645474E+04  0.15875245119E+04  0.00000000000E+00 0. -1.
         22    1    3    3    0    0 -0.58395412384E+01  0.16091738491E+02  0.98218372518E+01  0.19736078044E+02  0.00000000000E+00 0. -1.
         22    1    3    3    0    0  0.15372348275E+03 -0.12768210114E+03 -0.69578669751E+02  0.21160061291E+03  0.00000000000E+00 0. -1.
</event>
<event>
 7    1  0.7961130E-006  0.8377443E+02  0.7818608E-02  0.1390690E+00
          2   -1    0    0  502    0  0.00000000000E+00  0.00000000000E+00  0.86541368736E+03  0.86541368736E+03  0.00000000000E+00 0. -1.
          1   -1    0    0  501    0 -0.00000000000E+00 -0.00000000000E+00 -0.11966976053E+04  0.11966976053E+04  0.00000000000E+00 0. -1.
         25    2    1    2    0    0 -0.37970641976E+02  0.19901841227E+02  0.36384032360E+02  0.13706608572E+03  0.12500184442E+03 0.  0.
          2    1    1    2  501    0  0.83201629345E+02 -0.15012578272E+02 -0.11441310138E+04  0.11472504807E+04  0.00000000000E+00 0. -1.
          1    1    1    2  502    0 -0.45230987370E+02 -0.48892629546E+01  0.77646306354E+03  0.77779472623E+03  0.00000000000E+00 0. -1.
         22    1    3    3    0    0  0.34216056339E+02  0.19151144667E+02  0.50062990001E+02  0.63590941346E+02  0.00000000000E+00 0. -1.
         22    1    3    3    0    0 -0.72186698315E+02  0.75069655981E+00 -0.13678957641E+02  0.73475144376E+02  0.00000000000E+00 0. -1.
</event>
<event>
 7    1  0.7961130E-006  0.4236539E+02  0.7818608E-02  0.1580107E+00
          2   -1    0    0  502    0  0.00000000000E+00  0.00000000000E+00  0.92998531397E+03  0.92998531397E+03  0.00000000000E+00 0. -1.
          1   -1    0    0  501    0 -0.00000000000E+00 -0.00000000000E+00 -0.26980189727E+03  0.26980189727E+03  0.00000000000E+00 0. -1.
         25    2    1    2    0    0 -0.24983221066E+02 -0.81534775435E+01 -0.17844575276E+03  0.21944987888E+03  0.12499888852E+03 0.  0.
          2    1    1    2  501    0 -0.16491567770E+02  0.17031281661E+02 -0.68361443611E+02  0.72355534240E+02  0.00000000000E+00 0. -1.
          1    1    1    2  502    0  0.41474788836E+02 -0.88778041174E+01  0.90699061307E+03  0.90798179812E+03  0.00000000000E+00 0. -1.
         22    1    3    3    0    0 -0.58234465898E+02 -0.34173920449E+02 -0.49373344630E+02  0.83647098081E+02  0.00000000000E+00 0.  1.
         22    1    3    3    0    0  0.33251244832E+02  0.26020442905E+02 -0.12907240813E+03  0.13580278080E+03  0.00000000000E+00 0.  1.
</event>
<event>
 7    1  0.7961130E-006  0.3565989E+02  0.7818608E-02  0.1561086E+00
          2   -1    0    0  502    0  0.00000000000E+00  0.00000000000E+00  0.51950921166E+02  0.51950921166E+02  0.00000000000E+00 0. -1.
          1   -1    0    0  501    0 -0.00000000000E+00 -0.00000000000E+00 -0.61537293419E+03  0.61537293419E+03  0.00000000000E+00 0. -1.
         25    2    1    2    0    0 -0.17950059863E+02 -0.26959947121E+02 -0.11002306661E+03  0.16964841351E+03  0.12500586235E+03 0.  0.
          2    1    1    2  501    0 -0.19447032237E+02  0.25061161477E+02 -0.45875381524E+03  0.45984922733E+03  0.00000000000E+00 0. -1.
          1    1    1    2  502    0  0.37397092100E+02  0.18987856437E+01  0.53548688294E+01  0.37826214517E+02  0.00000000000E+00 0. -1.
         22    1    3    3    0    0  0.35229013923E+02 -0.11078395252E+02  0.92711441393E+01  0.38075824049E+02  0.00000000000E+00 0. -1.
         22    1    3    3    0    0 -0.53179073787E+02 -0.15881551869E+02 -0.11929421075E+03  0.13157258946E+03  0.00000000000E+00 0. -1.
</event>
<event>
 7    1  0.7961130E-006  0.5361774E+02  0.7818608E-02  0.1503973E+00
          2   -1    0    0  502    0  0.00000000000E+00  0.00000000000E+00  0.13455492869E+04  0.13455492869E+04  0.00000000000E+00 0. -1.
          1   -1    0    0  501    0 -0.00000000000E+00 -0.00000000000E+00 -0.30338610684E+03  0.30338610684E+03  0.00000000000E+00 0. -1.
         25    2    1    2    0    0 -0.68242078897E+02 -0.46672163502E+02  0.68314047935E+03  0.69938507969E+03  0.12499321180E+03 0.  0.
          2    1    1    2  501    0  0.39334198071E+02  0.36291509239E+02 -0.29247384630E+03  0.29733012553E+03  0.00000000000E+00 0. -1.
          1    1    1    2  502    0  0.28907880826E+02  0.10380654263E+02  0.65149654697E+03  0.65222018849E+03  0.00000000000E+00 0. -1.
         22    1    3    3    0    0 -0.54285034339E+02  0.36349337109E+02  0.27518906922E+03  0.28283769742E+03  0.00000000000E+00 0.  1.
         22    1    3    3    0    0 -0.13957044558E+02 -0.83021500611E+02  0.40795141013E+03  0.41654738228E+03  0.00000000000E+00 0.  1.
</event>
<event>
 7    1  0.7961130E-006  0.1509631E+03  0.7818608E-02  0.1321395E+00
          2   -1    0    0  502    0  0.00000000000E+00  0.00000000000E+00  0.74667153566E+03  0.74667153566E+03  0.00000000000E+00 0. -1.
          1   -1    0    0  501    0 -0.00000000000E+00 -0.00000000000E+00 -0.17462710862E+04  0.17462710862E+04  0.00000000000E+00 0. -1.
         25    2    1    2    0    0 -0.16874957531E+03 -0.76474136108E+02 -0.36544510817E+03  0.42837764730E+03  0.12503027216E+03 0.  0.
          2    1    1    2  501    0  0.44603593683E+02 -0.83085664016E+01 -0.13410718887E+04  0.13418391571E+04  0.00000000000E+00 0. -1.
          1    1    1    2  502    0  0.12414598163E+03  0.84782702510E+02  0.70691744630E+03  0.72272581750E+03  0.00000000000E+00 0. -1.
         22    1    3    3    0    0 -0.17353321829E+03 -0.96095762293E+02 -0.29807900925E+03  0.35804925518E+03  0.00000000000E+00 0.  1.
         22    1    3    3    0    0  0.47836429737E+01  0.19621626184E+02 -0.67366098920E+02  0.70328392118E+02  0.00000000000E+00 0.  1.
</event>
<event>
 7    1  0.7961130E-006  0.2756531E+03  0.7818608E-02  0.1114230E+00
          2   -1    0    0  502    0  0.00000000000E+00  0.00000000000E+00  0.40741106031E+03  0.40741106031E+03  0.00000000000E+00 0. -1.
          1   -1    0    0  501    0 -0.00000000000E+00 -0.00000000000E+00 -0.12118108441E+04  0.12118108441E+04  0.00000000000E+00 0. -1.
         25    2    1    2    0    0  0.32645999791E+03  0.99413765488E+02 -0.33890267922E+03  0.49694018996E+03  0.12504119089E+03 0.  0.
          2    1    1    2  501    0 -0.25064626994E+03  0.11147040235E+03 -0.72750805073E+03  0.77750702062E+03  0.00000000000E+00 0. -1.
          1    1    1    2  502    0 -0.75813727971E+02 -0.21088416784E+03  0.26201094616E+03  0.34477469382E+03  0.00000000000E+00 0. -1.
         22    1    3    3    0    0  0.24144125373E+03  0.18686082580E+02 -0.26176196189E+03  0.35659833620E+03  0.00000000000E+00 0.  1.
         22    1    3    3    0    0  0.85018744175E+02  0.80727682908E+02 -0.77140717326E+02  0.14034185377E+03  0.00000000000E+00 0.  1.
</event>
<event>
 7    1  0.7961130E-006  0.1188472E+03  0.7818608E-02  0.1346335E+00
          2   -1    0    0  502    0  0.00000000000E+00  0.00000000000E+00  0.48057548405E+03  0.48057548405E+03  0.00000000000E+00 0. -1.
          1   -1    0    0  501    0 -0.00000000000E+00 -0.00000000000E+00 -0.11724099806E+04  0.11724099806E+04  0.00000000000E+00 0. -1.
         25    2    1    2    0    0  0.10435816786E+03 -0.10704605321E+03  0.13593951116E+03  0.23760440740E+03  0.12500727584E+03 0.  0.
          2    1    1    2  501    0 -0.98616233909E+01  0.45276431047E+02 -0.11102314665E+04  0.11111980544E+04  0.00000000000E+00 0. -1.
          1    1    1    2  502    0 -0.94496544471E+02  0.61769622164E+02  0.28245745885E+03  0.30418300281E+03  0.00000000000E+00 0. -1.
         22    1    3    3    0    0  0.31801478640E+02 -0.31887774812E+02 -0.20507861176E+02  0.49484710731E+02  0.00000000000E+00 0. -1.
         22    1    3    3    0    0  0.72556689222E+02 -0.75158278399E+02  0.15644737234E+03  0.18811969667E+03  0.00000000000E+00 0. -1.
</event>
<event>
 7    1  0.7961130E-006  0.8926658E+02  0.7818608E-02  0.1338284E+00
          2   -1    0    0  502    0  0.00000000000E+00  0.00000000000E+00  0.47221588972E+03  0.47221588972E+03  0.00000000000E+00 0. -1.
          1   -1    0    0  501    0 -0.00000000000E+00 -0.00000000000E+00 -0.16891009430E+03  0.16891009430E+03  0.00000000000E+00 0. -1.
         25    2    1    2    0    0  0.76381945672E+01  0.12524345058E+03  0.14651881396E+03  0.22986310626E+03  0.12500008337E+03 0.  0.
          2    1    1    2  501    0  0.38996845432E+02 -0.78352508363E+02 -0.10761741932E+03  0.13871329591E+03  0.00000000000E+00 0. -1.
          1    1    1    2  502    0 -0.46635040000E+02 -0.46890942222E+02  0.26440440078E+03  0.27254958186E+03  0.00000000000E+00 0. -1.
         22    1    3    3    0    0 -0.15150775952E+02  0.10922272630E+03  0.36165047145E+02  0.11604766515E+03  0.00000000000E+00 0.  1.
         22    1    3    3    0    0  0.22788970519E+02  0.16020724286E+02  0.11035376682E+03  0.11381544111E+03  0.00000000000E+00 0.  1.
</event>
<event>
 7    1  0.7961130E-006  0.1285616E+03  0.7818608E-02  0.1278776E+00
          2   -1    0    0  502    0  0.00000000000E+00  0.00000000000E+00  0.90543766975E+03  0.90543766975E+03  0.00000000000E+00 0. -1.
          1   -1    0    0  501    0 -0.00000000000E+00 -0.00000000000E+00 -0.19416022040E+03  0.19416022040E+03  0.00000000000E+00 0. -1.
         25    2    1    2    0    0 -0.51109586475E+02  0.32556168013E+02  0.35845872410E+03  0.38443266400E+03  0.12499488936E+03 0.  0.
          2    1    1    2  501    0  0.12998018502E+03 -0.29822011350E+02 -0.15315271234E+03  0.20307622745E+03  0.00000000000E+00 0. -1.
          1    1    1    2  502    0 -0.78870598549E+02 -0.27341566633E+01  0.50597143759E+03  0.51208899870E+03  0.00000000000E+00 0. -1.
         22    1    3    3    0    0 -0.50352003793E+02  0.77953178028E+02  0.22189299828E+03  0.24051720299E+03  0.00000000000E+00 0.  1.
         22    1    3    3    0    0 -0.75758268171E+00 -0.45397010014E+02  0.13656572582E+03  0.14391546101E+03  0.00000000000E+00 0.  1.
</event>
<event>
 7    1  0.7961130E-006  0.5049974E+02  0.7818608E-02  0.1541474E+00
          2   -1    0    0  502    0  0.00000000000E+00  0.00000000000E+00  0.27797649333E+03  0.27797649333E+03  0.00000000000E+00 0. -1.
          1   -1    0    0  501    0 -0.00000000000E+00 -0.00000000000E+00 -0.56853934028E+03  0.56853934028E+03  0.00000000000E+00 0. -1.
         25    2    1    2    0    0 -0.53005368644E+02 -0.25162756424E+02  0.31064829446E+01  0.13811918240E+03  0.12499809956E+03 0.  0.
          2    1    1    2  501    0  0.26296133751E+01  0.25264930353E+02 -0.49764475901E+03  0.49829262260E+03  0.00000000000E+00 0. -1.
          1    1    1    2  502    0  0.50375755268E+02 -0.10217392951E+00  0.20397542911E+03  0.21010402861E+03  0.00000000000E+00 0. -1.
         22    1    3    3    0    0 -0.86951730148E+02 -0.12899448226E+02  0.30245149241E+02  0.92961111186E+02  0.00000000000E+00 0.  1.
         22    1    3    3    0    0  0.33946361504E+02 -0.12263308198E+02 -0.27138666297E+02  0.45158071213E+02  0.00000000000E+00 0.  1.
</event>
<event>
 7    1  0.7961130E-006  0.6082725E+02  0.7818608E-02  0.1425946E+00
          2   -1    0    0  502    0  0.00000000000E+00  0.00000000000E+00  0.10742191101E+04  0.10742191101E+04  0.00000000000E+00 0. -1.
          1   -1    0    0  501    0 -0.00000000000E+00 -0.00000000000E+00 -0.51006247265E+02  0.51006247265E+02  0.00000000000E+00 0. -1.
         25    2    1    2    0    0 -0.37886881785E+02 -0.27953647294E+02  0.15186799614E+03  0.20225163063E+03  0.12500004653E+03 0.  0.
          2    1    1    2  501    0  0.66617761042E+02 -0.99393572444E+01  0.19943962726E+02  0.70245843706E+02  0.00000000000E+00 0. -1.
          1    1    1    2  502    0 -0.28730879257E+02  0.37893004539E+02  0.85140090398E+03  0.85272788304E+03  0.00000000000E+00 0. -1.
         22    1    3    3    0    0  0.11915252253E+02 -0.62874642008E+02  0.41619855061E+02  0.76337449389E+02  0.00000000000E+00 0.  1.
         22    1    3    3    0    0 -0.49802134038E+02  0.34920994714E+02  0.11024814108E+03  0.12591418124E+03  0.00000000000E+00 0.  1.
</event>
<event>
 7    1  0.7961130E-006  0.1042323E+03  0.7818608E-02  0.1359581E+00
          2   -1    0    0  502    0  0.00000000000E+00  0.00000000000E+00  0.34064982265E+03  0.34064982265E+03  0.00000000000E+00 0. -1.
          1   -1    0    0  501    0 -0.00000000000E+00 -0.00000000000E+00 -0.38518914379E+03  0.38518914379E+03  0.00000000000E+00 0. -1.
         25    2    1    2    0    0  0.13968400619E+03 -0.29743402738E+02  0.78156425437E+01  0.18995281967E+03  0.12499879136E+03 0.  0.
          2    1    1    2  501    0 -0.46685062539E+02 -0.70419674845E+01 -0.28172886018E+03  0.28565754852E+03  0.00000000000E+00 0. -1.
          1    1    1    2  502    0 -0.92998943646E+02  0.36785370222E+02  0.22937389650E+03  0.25022859824E+03  0.00000000000E+00 0. -1.
         22    1    3    3    0    0  0.19741204839E+02 -0.54187692060E+02  0.30837237630E+02  0.65398443131E+02  0.00000000000E+00 0.  1.
         22    1    3    3    0    0  0.11994280135E+03  0.24444289322E+02 -0.23021595087E+02  0.12455437654E+03  0.00000000000E+00 0.  1.
</event>
<event>
 7    1  0.7961130E-006  0.4304678E+02  0.7818608E-02  0.1554182E+00
          2   -1    0    0  502    0  0.00000000000E+00  0.00000000000E+00  0.12926066136E+03  0.12926066136E+03  0.00000000000E+00 0. -1.
          1   -1    0    0  501    0 -0.00000000000E+00 -0.00000000000E+00 -0.21987100510E+04  0.21987100510E+04  0.00000000000E+00 0. -1.
         25    2    1    2    0    0 -0.56339574264E+02 -0.19219187219E+02 -0.85108288606E+03  0.86227159491E+03  0.12500679846E+03 0.  0.
          2    1    1    2  501    0  0.25337993484E+02 -0.10577147202E+02 -0.13381499995E+04  0.13384316610E+04  0.00000000000E+00 0. -1.
          1    1    1    2  502    0  0.31001580780E+02  0.29796334421E+02  0.11978349597E+03  0.12726745642E+03  0.00000000000E+00 0. -1.
         22    1    3    3    0    0  0.10646906752E+02 -0.34381318049E+02 -0.75356109350E+02  0.83510327927E+02  0.00000000000E+00 0.  1.
         22    1    3    3    0    0 -0.66986481016E+02  0.15162130830E+02 -0.77572677671E+03  0.77876126698E+03  0.00000000000E+00 0.  1.
</event>
<event>
 7    1  0.7961130E-006  0.1111421E+03  0.7818608E-02  0.1308345E+00
          2   -1    0    0  502    0  0.00000000000E+00  0.00000000000E+00  0.18008952130E+04  0.18008952130E+04  0.00000000000E+00 0. -1.
          1   -1    0    0  501    0 -0.00000000000E+00 -0.00000000000E+00 -0.86983680232E+03  0.86983680232E+03  0.00000000000E+00 0. -1.
         25    2    1    2    0    0  0.59882149003E+02 -0.15552449052E+03  0.14555690779E+03  0.25413618267E+03  0.12499858807E+03 0.  0.
          2    1    1    2  501    0 -0.68087748095E+02  0.86700038188E+02 -0.81106645778E+03  0.81852406012E+03  0.00000000000E+00 0. -1.
          1    1    1    2  502    0  0.82055990921E+01  0.68824452327E+02  0.15965679607E+04  0.15980717725E+04  0.00000000000E+00 0. -1.
         22    1    3    3    0    0 -0.19656203434E+02 -0.85979319684E+02  0.11347177872E+03  0.14371727215E+03  0.00000000000E+00 0.  1.
         22    1    3    3    0    0  0.79538352437E+02 -0.69545170831E+02  0.32085129066E+02  0.11041891052E+03  0.00000000000E+00 0.  1.
</event>
<event>
 7    1  0.7961130E-006  0.5333293E+02  0.7818608E-02  0.1499551E+00
          2   -1    0    0  502    0  0.00000000000E+00  0.00000000000E+00  0.19664465569E+03  0.19664465569E+03  0.00000000000E+00 0. -1.
          1   -1    0    0  501    0 -0.00000000000E+00 -0.00000000000E+00 -0.23663703349E+03  0.23663703349E+03  0.00000000000E+00 0. -1.
         25    2    1    2    0    0  0.25337179906E+02  0.40508833989E+02 -0.61830949643E+02  0.14741402831E+03  0.12499956437E+03 0.  0.
          2    1    1    2  501    0  0.29612614649E+01 -0.55080346103E+02 -0.12446579683E+03  0.13614091295E+03  0.00000000000E+00 0. -1.
          1    1    1    2  502    0 -0.28298441371E+02  0.14571512114E+02  0.14630436867E+03  0.14972674792E+03  0.00000000000E+00 0. -1.
         22    1    3    3    0    0 -0.39217034287E+02 -0.18924835231E+02 -0.74372783213E+01  0.44175086594E+02  0.00000000000E+00 0. -1.
         22    1    3    3    0    0  0.64554214193E+02  0.59433669220E+02 -0.54393671322E+02  0.10323894172E+03  0.00000000000E+00 0. -1.
</event>
<event>
 7    1  0.7961130E-006  0.1385616E+03  0.7818608E-02  0.1311866E+00
          2   -1    0    0  502    0  0.00000000000E+00  0.00000000000E+00  0.66423158478E+03  0.66423158478E+03  0.00000000000E+00 0. -1.
          1   -1    0    0  501    0 -0.00000000000E+00 -0.00000000000E+00 -0.70765574065E+03  0.70765574065E+03  0.00000000000E+00 0. -1.
         25    2    1    2    0    0 -0.17223663652E+02 -0.12266304836E+03 -0.12074723304E+03  0.21342194869E+03  0.12500462342E+03 0.  0.
          2    1    1    2  501    0 -0.34086791816E+02  0.13899842207E+03 -0.52988613105E+03  0.54887319355E+03  0.00000000000E+00 0. -1.
          1    1    1    2  502    0  0.51310455468E+02 -0.16335373710E+02  0.60720920822E+03  0.60959218320E+03  0.00000000000E+00 0. -1.
         22    1    3    3    0    0 -0.50016932316E+02 -0.11433387931E+03 -0.48950965421E+02  0.13405270043E+03  0.00000000000E+00 0.  1.
         22    1    3    3    0    0  0.32793268664E+02 -0.83291690478E+01 -0.71796267616E+02  0.79369248266E+02  0.00000000000E+00 0.  1.
</event>
<event>
 7    1  0.7961130E-006  0.6334380E+02  0.7818608E-02  0.1389029E+00
          2   -1    0    0  502    0  0.00000000000E+00  0.00000000000E+00  0.25408293670E+04  0.25408293670E+04  0.00000000000E+00 0. -1.
          1   -1    0    0  501    0 -0.00000000000E+00 -0.00000000000E+00 -0.18766497113E+04  0.18766497113E+04  0.00000000000E+00 0. -1.
         25    2    1    2    0    0  0.16884217961E+02 -0.60923542264E+02  0.98500524199E+02  0.17123993044E+03  0.12499602270E+03 0.  0.
          2    1    1    2  501    0 -0.59449630059E+02  0.13559026564E+02 -0.18393533319E+04  0.18403637643E+04  0.00000000000E+00 0. -1.
          1    1    1    2  502    0  0.42565412099E+02  0.47364515700E+02  0.24050324633E+04  0.24058753835E+04  0.00000000000E+00 0. -1.
         22    1    3    3    0    0  0.36976818456E+01  0.26158763895E+02 -0.12759375151E+02  0.29338633810E+02  0.00000000000E+00 0. -1.
         22    1    3    3    0    0  0.13186536115E+02 -0.87082306160E+02  0.11125989935E+03  0.14190129663E+03  0.00000000000E+00 0. -1.
</event>
<event>
 7    1  0.7961130E-006  0.7034172E+02  0.7818608E-02  0.1419585E+00
          2   -1    0    0  502    0  0.00000000000E+00  0.00000000000E+00  0.64296366723E+03  0.64296366723E+03  0.00000000000E+00 0. -1.
          1   -1    0    0  501    0 -0.00000000000E+00 -0.00000000000E+00 -0.80886814910E+02  0.80886814910E+02  0.00000000000E+00 0. -1.
         25    2    1    2    0    0 -0.11346576288E+01  0.51747959691E+02  0.20825966242E+02  0.13688638332E+03  0.12500008915E+03 0.  0.
          2    1    1    2  501    0  0.42691137105E+02  0.64432270456E+01  0.22420081010E+01  0.43232799613E+02  0.00000000000E+00 0. -1.
          1    1    1    2  502    0 -0.41556479476E+02 -0.58191186737E+02  0.53900887798E+03  0.54373129921E+03  0.00000000000E+00 0. -1.
         22    1    3    3    0    0 -0.16431486281E+02 -0.31146585089E+02 -0.22820338831E+02  0.41962737857E+02  0.00000000000E+00 0.  1.
         22    1    3    3    0    0  0.15296828652E+02  0.82894544780E+02  0.43646305073E+02  0.94923645461E+02  0.00000000000E+00 0.  1.
</event>
<event>
 7    1  0.7961130E-006  0.6419290E+02  0.7818608E-02  0.1436672E+00
          2   -1    0    0  502    0  0.00000000000E+00  0.00000000000E+00  0.68775297830E+03  0.68775297830E+03  0.00000000000E+00 0. -1.
          1   -1    0    0  501    0 -0.00000000000E+00 -0.00000000000E+00 -0.75552470180E+03  0.75552470180E+03  0.00000000000E+00 0. -1.
         25    2    1    2    0    0  0.16374124694E+02 -0.29862236691E+02 -0.23022417577E+03  0.26416999263E+03  0.12499099470E+03 0.  0.
          2    1    1    2  501    0 -0.57001145553E+02  0.38561507188E+02 -0.50534977764E+03  0.51001423332E+03  0.00000000000E+00 0. -1.
          1    1    1    2  502    0  0.40627020859E+02 -0.86992704966E+01  0.66780222990E+03  0.66909345415E+03  0.00000000000E+00 0. -1.
         22    1    3    3    0    0  0.14448681066E+02 -0.47753163395E+02 -0.23899855655E+03  0.24415044344E+03  0.00000000000E+00 0. -1.
         22    1    3    3    0    0  0.19254436280E+01  0.17890926703E+02  0.87743807827E+01  0.20019549186E+02  0.00000000000E+00 0. -1.
</event>
<event>
 7    1  0.7961130E-006  0.1324326E+03  0.7818608E-02  0.1296437E+00
          2   -1    0    0  502    0  0.00000000000E+00  0.00000000000E+00  0.25590565768E+03  0.25590565768E+03  0.00000000000E+00 0. -1.
          1   -1    0    0  501    0 -0.00000000000E+00 -0.00000000000E+00 -0.17413258454E+04  0.17413258454E+04  0.00000000000E+00 0. -1.
         25    2    1    2    0    0 -0.71660519098E+02 -0.28100858292E+02 -0.22475312011E+03  0.26844951593E+03  0.12500515737E+03 0.  0.
          2    1    1    2  501    0 -0.64198451715E+02  0.94564539179E+01 -0.14738629910E+04  0.14752908127E+04  0.00000000000E+00 0. -1.
          1    1    1    2  502    0  0.13585897081E+03  0.18644404374E+02  0.21319592342E+03  0.25349117446E+03  0.00000000000E+00 0. -1.
         22    1    3    3    0    0 -0.22978823625E+02  0.47517666342E+02 -0.11515797152E+03  0.12667799080E+03  0.00000000000E+00 0. -1.
         22    1    3    3    0    0 -0.48681695473E+02 -0.75618524634E+02 -0.10959514859E+03  0.14177152513E+03  0.00000000000E+00 0. -1.
</event>
<event>
 7    1  0.7961130E-006  0.1688190E+03  0.7818608E-02  0.1301825E+00
          2   -1    0    0  502    0  0.00000000000E+00  0.00000000000E+00  0.27093681765E+04  0.27093681765E+04  0.00000000000E+00 0. -1.
          1   -1    0    0  501    0 -0.00000000000E+00 -0.00000000000E+00 -0.19584219287E+04  0.19584219287E+04  0.00000000000E+00 0. -1.
         25    2    1    2    0    0  0.24467706940E+02 -0.20220547190E+03 -0.17312908615E+03  0.29510100718E+03  0.12500080968E+03 0.  0.
          2    1    1    2  501    0  0.25336969841E+02  0.41279187185E+02 -0.17212870972E+04  0.17219684098E+04  0.00000000000E+00 0. -1.
          1    1    1    2  502    0 -0.49804676781E+02  0.16092628471E+03  0.26453624312E+04  0.26507206883E+04  0.00000000000E+00 0. -1.
         22    1    3    3    0    0 -0.35308657503E+02 -0.16355498113E+03 -0.11282784413E+03  0.20180945359E+03  0.00000000000E+00 0. -1.
         22    1    3    3    0    0  0.59776364443E+02 -0.38650490768E+02 -0.60301242015E+02  0.93291553589E+02  0.00000000000E+00 0. -1.
</event>
<event>
 7    1  0.7961130E-006  0.7316705E+02  0.7818608E-02  0.1471143E+00
          2   -1    0    0  502    0  0.00000000000E+00  0.00000000000E+00  0.18654902677E+03  0.18654902677E+03  0.00000000000E+00 0. -1.
          1   -1    0    0  501    0 -0.00000000000E+00 -0.00000000000E+00 -0.25645479331E+03  0.25645479331E+03  0.00000000000E+00 0. -1.
         25    2    1    2    0    0  0.82251910421E+02 -0.15510411493E+02  0.86359862413E+01  0.15067968522E+03  0.12499535050E+03 0.  0.
          2    1    1    2  501    0 -0.62927128816E+02  0.36206180276E+02 -0.17623882263E+03  0.19060648896E+03  0.00000000000E+00 0. -1.
          1    1    1    2  502    0 -0.19324781605E+02 -0.20695768783E+02  0.97697069852E+02  0.10171764590E+03  0.00000000000E+00 0. -1.
         22    1    3    3    0    0  0.16297579707E+02  0.49564632937E+01 -0.54506917208E+02  0.57106756660E+02  0.00000000000E+00 0. -1.
         22    1    3    3    0    0  0.65954330715E+02 -0.20466874786E+02  0.63142903449E+02  0.93572928561E+02  0.00000000000E+00 0. -1.
</event>
<event>
 7    1  0.7961130E-006  0.8379638E+02  0.7818608E-02  0.1454765E+00
          2   -1    0    0  502    0  0.00000000000E+00  0.00000000000E+00  0.79290112725E+03  0.79290112725E+03  0.00000000000E+00 0. -1.
          1   -1    0    0  501    0 -0.00000000000E+00 -0.00000000000E+00 -0.32060203871E+04  0.32060203871E+04  0.00000000000E+00 0. -1.
         25    2    1    2    0    0 -0.47845221169E+02  0.86727196535E+02 -0.22323970754E+04  0.22380861528E+04  0.12498861252E+03 0.  0.
          2    1    1    2  501    0  0.48478212836E+02 -0.58900940691E+02 -0.96903412956E+03  0.97203220224E+03  0.00000000000E+00 0. -1.
          1    1    1    2  502    0 -0.63299166723E+00 -0.27826255844E+02  0.78831194516E+03  0.78880315927E+03  0.00000000000E+00 0. -1.
         22    1    3    3    0    0 -0.88944942257E+02  0.62201048900E+02 -0.17350486540E+04  0.17384401068E+04  0.00000000000E+00 0.  1.
         22    1    3    3    0    0  0.41099721088E+02  0.24526147635E+02 -0.49734842145E+03  0.49964604602E+03  0.00000000000E+00 0.  1.
</event>
<event>
 7    1  0.7961130E-006  0.1376551E+03  0.7818608E-02  0.1370452E+00
          2   -1    0    0  502    0  0.00000000000E+00  0.00000000000E+00  0.78016143526E+03  0.78016143526E+03  0.00000000000E+00 0. -1.
          1   -1    0    0  501    0 -0.00000000000E+00 -0.00000000000E+00 -0.79057506837E+03  0.79057506837E+03  0.00000000000E+00 0. -1.
         25    2    1    2    0    0  0.17717728844E+02 -0.13337958752E+03  0.16497227835E+03  0.24686925363E+03  0.12499817392E+03 0.  0.
          2    1    1    2  501    0  0.32428594494E+02  0.38056259483E+01 -0.74085756842E+03  0.74157672106E+03  0.00000000000E+00 0. -1.
          1    1    1    2  502    0 -0.50146323338E+02  0.12957396157E+03  0.56547165696E+03  0.58229052893E+03  0.00000000000E+00 0. -1.
         22    1    3    3    0    0  0.58344628641E+02 -0.22624889782E+02  0.36479586071E+02  0.72434394654E+02  0.00000000000E+00 0. -1.
         22    1    3    3    0    0 -0.40626899797E+02 -0.11075469774E+03  0.12849269228E+03  0.17443485898E+03  0.00000000000E+00 0. -1.
</event>
<event>
 7    1  0.7961130E-006  0.7066495E+02  0.7818608E-02  0.1375573E+00
          2   -1    0    0  502    0  0.00000000000E+00  0.00000000000E+00  0.42925452757E+03  0.42925452757E+03  0.00000000000E+00 0. -1.
          1   -1    0    0  501    0 -0.00000000000E+00 -0.00000000000E+00 -0.88045067558E+02  0.88045067558E+02  0.00000000000E+00 0. -1.
         25    2    1    2    0    0  0.69817694487E+02 -0.28292469016E+02  0.92011669991E+02  0.17253266261E+03  0.12500559182E+03 0.  0.
          2    1    1    2  501    0 -0.66932293561E+02 -0.32615037456E+02 -0.12991371032E+02  0.75580740343E+02  0.00000000000E+00 0. -1.
          1    1    1    2  502    0 -0.28854009268E+01  0.60907506472E+02  0.26218916105E+03  0.26918619217E+03  0.00000000000E+00 0. -1.
         22    1    3    3    0    0  0.77646801030E+02 -0.63972700043E+02  0.91512370113E+02  0.13600016891E+03  0.00000000000E+00 0.  1.
         22    1    3    3    0    0 -0.78291065425E+01  0.35680231027E+02  0.49929987858E+00  0.36532493698E+02  0.00000000000E+00 0.  1.
</event>
<event>
 7    1  0.9132052E-006  0.6143713E+02  0.7818608E-02  0.1428841E+00
          2   -1    0    0  502    0  0.00000000000E+00  0.00000000000E+00  0.79662780709E+03  0.79662780709E+03  0.00000000000E+00 0. -1.
          1   -1    0    0  501    0 -0.00000000000E+00 -0.00000000000E+00 -0.25693917803E+04  0.25693917803E+04  0.00000000000E+00 0. -1.
         25    2    1    2    0    0 -0.79399545671E+01 -0.18795803102E+02 -0.30024808533E+03  0.32586746037E+03  0.12499745553E+03 0.  0.
          2    1    1    2  501    0 -0.62274501922E+01  0.62618382637E+02 -0.22552182104E+04  0.22560959686E+04  0.00000000000E+00 0. -1.
          1    1    1    2  502    0  0.14167404759E+02 -0.43822579535E+02  0.78270232254E+03  0.78405615841E+03  0.00000000000E+00 0. -1.
         22    1    3    3    0    0 -0.63734643644E+02 -0.21518082679E+01 -0.20018976254E+03  0.21010158520E+03  0.00000000000E+00 0. -1.
         22    1    3    3    0    0  0.55794689077E+02 -0.16643994834E+02 -0.10005832279E+03  0.11576587517E+03  0.00000000000E+00 0. -1.
</event>
<event>
 7    1  0.7961130E-006  0.6091308E+02  0.7818608E-02  0.1443945E+00
          2   -1    0    0  502    0  0.00000000000E+00  0.00000000000E+00  0.24941400800E+04  0.24941400800E+04  0.00000000000E+00 0. -1.
          1   -1    0    0  501    0 -0.00000000000E+00 -0.00000000000E+00 -0.42700714338E+03  0.42700714338E+03  0.00000000000E+00 0. -1.
         25    2    1    2    0    0  0.65061317983E+02  0.18762954060E+02  0.12087328261E+04  0.12170641487E+04  0.12500029505E+03 0.  0.
          2    1    1    2  501    0 -0.27965613950E+02  0.30621157675E+02 -0.42107795282E+03  0.42311508271E+03  0.00000000000E+00 0. -1.
          1    1    1    2  502    0 -0.37095704033E+02 -0.49384111735E+02  0.12794780634E+04  0.12809679919E+04  0.00000000000E+00 0. -1.
         22    1    3    3    0    0  0.27018528182E+02 -0.51458553899E+02  0.65935699670E+03  0.66191361425E+03  0.00000000000E+00 0.  1.
         22    1    3    3    0    0  0.38042789801E+02  0.70221507959E+02  0.54937582938E+03  0.55515053449E+03  0.00000000000E+00 0.  1.
</event>
<event>
 7    1  0.7961130E-006  0.9237148E+02  0.7818608E-02  0.1338374E+00
          2   -1    0    0  502    0  0.00000000000E+00  0.00000000000E+00  0.13144511526E+04  0.13144511526E+04  0.00000000000E+00 0. -1.
          1   -1    0    0  501    0 -0.00000000000E+00 -0.00000000000E+00 -0.16289299826E+04  0.16289299826E+04  0.00000000000E+00 0. -1.
         25    2    1    2    0    0  0.10429780362E+03 -0.64792755648E+02 -0.48111158234E+02  0.18170419645E+03  0.12500239372E+03 0.  0.
          2    1    1    2  501    0 -0.12153047594E+02  0.62693067479E+02 -0.15116450287E+04  0.15129933278E+04  0.00000000000E+00 0. -1.
          1    1    1    2  502    0 -0.92144756028E+02  0.20996881688E+01  0.12452773569E+04  0.12486836110E+04  0.00000000000E+00 0. -1.
         22    1    3    3    0    0 -0.26969686214E+01  0.18109179867E+02  0.22525307046E+02  0.29027667710E+02  0.00000000000E+00 0. -1.
         22    1    3    3    0    0  0.10699477224E+03 -0.82901935514E+02 -0.70636465280E+02  0.15267652874E+03  0.00000000000E+00 0. -1.
</event>
<event>
 7    1  0.7961130E-006  0.6972372E+02  0.7818608E-02  0.1365155E+00
          2   -1    0    0  502    0  0.00000000000E+00  0.00000000000E+00  0.17801238817E+04  0.17801238817E+04  0.00000000000E+00 0. -1.
          1   -1    0    0  501    0 -0.00000000000E+00 -0.00000000000E+00 -0.38649167760E+03  0.38649167760E+03  0.00000000000E+00 0. -1.
         25    2    1    2    0    0 -0.41585763099E+02  0.38714471568E+01  0.25493887876E+03  0.28698839747E+03  0.12499657829E+03 0.  0.
          2    1    1    2  501    0  0.19704046041E+02 -0.67580490245E+02 -0.36636274222E+03  0.37306437913E+03  0.00000000000E+00 0. -1.
          1    1    1    2  502    0  0.21881717058E+02  0.63709043088E+02  0.15050560676E+04  0.15065627827E+04  0.00000000000E+00 0. -1.
         22    1    3    3    0    0 -0.33657594434E+02 -0.57357197498E+01  0.26728120538E+03  0.26945310333E+03  0.00000000000E+00 0.  1.
         22    1    3    3    0    0 -0.79281686652E+01  0.96071669067E+01 -0.12342326618E+02  0.17535294143E+02  0.00000000000E+00 0.  1.
</event>
<event>
 7    1  0.7961130E-006  0.7443681E+02  0.7818608E-02  0.1422853E+00
          2   -1    0    0  502    0  0.00000000000E+00  0.00000000000E+00  0.16146632164E+04  0.16146632164E+04  0.00000000000E+00 0. -1.
          1   -1    0    0  501    0 -0.00000000000E+00 -0.00000000000E+00 -0.39889240492E+03  0.39889240492E+03  0.00000000000E+00 0. -1.
         25    2    1    2    0    0 -0.39199442560E+02  0.53819263936E+02 -0.76440118515E+02  0.16093604076E+03  0.12499683207E+03 0.  0.
          2    1    1    2  501    0  0.70620400844E+02 -0.29409129528E+02 -0.27472575909E+03  0.28517780528E+03  0.00000000000E+00 0. -1.
          1    1    1    2  502    0 -0.31420958284E+02 -0.24410134408E+02  0.15669366891E+04  0.15674417753E+04  0.00000000000E+00 0. -1.
         22    1    3    3    0    0 -0.94678909420E+01 -0.38898139738E+02 -0.41041202913E+02  0.57333119316E+02  0.00000000000E+00 0.  1.
         22    1    3    3    0    0 -0.29731551618E+02  0.92717403674E+02 -0.35398915602E+02  0.10360292144E+03  0.00000000000E+00 0.  1.
</event>
<event>
 7    1  0.7961130E-006  0.1608328E+03  0.7818608E-02  0.1199692E+00
          2   -1    0    0  502    0  0.00000000000E+00  0.00000000000E+00  0.23758499941E+04  0.23758499941E+04  0.00000000000E+00 0. -1.
          1   -1    0    0  501    0 -0.00000000000E+00 -0.00000000000E+00 -0.70481357086E+03  0.70481357086E+03  0.00000000000E+00 0. -1.
         25    2    1    2    0    0  0.55286828905E+02  0.25262821882E+02  0.14343782911E+03  0.19973245752E+03  0.12499520051E+03 0.  0.
          2    1    1    2  501    0  0.98601153847E+00  0.14108524444E+03 -0.66576412809E+03  0.68054969890E+03  0.00000000000E+00 0. -1.
          1    1    1    2  502    0 -0.56272840443E+02 -0.16634806632E+03  0.21933627222E+04  0.22003814085E+04  0.00000000000E+00 0. -1.
         22    1    3    3    0    0  0.62931223281E+02 -0.32632155381E+02  0.11422902226E+03  0.13443759130E+03  0.00000000000E+00 0.  1.
         22    1    3    3    0    0 -0.76443943763E+01  0.57894977263E+02  0.29208806842E+02  0.65294866221E+02  0.00000000000E+00 0.  1.
</event>
<event>
 7    1  0.7961130E-006  0.6798662E+02  0.7818608E-02  0.1436077E+00
          2   -1    0    0  502    0  0.00000000000E+00  0.00000000000E+00  0.18854145989E+04  0.18854145989E+04  0.00000000000E+00 0. -1.
          1   -1    0    0  501    0 -0.00000000000E+00 -0.00000000000E+00 -0.12236332096E+03  0.12236332096E+03  0.00000000000E+00 0. -1.
         25    2    1    2    0    0  0.81709593905E+02 -0.25818016722E+02 -0.21778097319E+02  0.15310869225E+03  0.12499983358E+03 0.  0.
          2    1    1    2  501    0 -0.45995391185E+02  0.42469113976E+02 -0.64695589956E+01  0.62936927521E+02  0.00000000000E+00 0. -1.
          1    1    1    2  502    0 -0.35714202719E+02 -0.16651097254E+02  0.17912989343E+04  0.17917323001E+04  0.00000000000E+00 0. -1.
         22    1    3    3    0    0  0.14466503723E+02  0.46983568868E+02  0.75935867942E+01  0.49743321501E+02  0.00000000000E+00 0. -1.
         22    1    3    3    0    0  0.67243090182E+02 -0.72801585590E+02 -0.29371684113E+02  0.10336537075E+03  0.00000000000E+00 0. -1.
</event>
<event>
 7    1  0.7961130E-006  0.6863857E+02  0.7818608E-02  0.1382364E+00
          2   -1    0    0  502    0  0.00000000000E+00  0.00000000000E+00  0.35142552207E+04  0.35142552207E+04  0.00000000000E+00 0. -1.
          1   -1    0    0  501    0 -0.00000000000E+00 -0.00000000000E+00 -0.17529549757E+02  0.17529549757E+02  0.00000000000E+00 0. -1.
         25    2    1    2    0    0  0.23592677212E+02 -0.24179220588E+01  0.13608313363E+04  0.13667668816E+04  0.12500928767E+03 0.  0.
          2    1    1    2  501    0 -0.14684567286E+02 -0.67049360000E+02  0.70352352273E+02  0.98288893896E+02  0.00000000000E+00 0. -1.
          1    1    1    2  502    0 -0.89081099255E+01  0.69467282059E+02  0.20655419823E+04  0.20667289949E+04  0.00000000000E+00 0. -1.
         22    1    3    3    0    0 -0.44646055979E+02 -0.81745930000E+01  0.27002821634E+03  0.27381623748E+03  0.00000000000E+00 0. -1.
         22    1    3    3    0    0  0.68238733191E+02  0.57566709413E+01  0.10908031200E+04  0.10929506441E+04  0.00000000000E+00 0. -1.
</event>
<event>
 7    1  0.7961130E-006  0.2459005E+03  0.7818608E-02  0.1168554E+00
          2   -1    0    0  502    0  0.00000000000E+00  0.00000000000E+00  0.27488700754E+03  0.27488700754E+03  0.00000000000E+00 0. -1.
          1   -1    0    0  501    0 -0.00000000000E+00 -0.00000000000E+00 -0.84259466797E+03  0.84259466797E+03  0.00000000000E+00 0. -1.
         25    2    1    2    0    0 -0.61603122675E+02  0.23857798854E+03 -0.52453862793E+03  0.59285769310E+03  0.12500028296E+03 0.  0.
          2    1    1    2  501    0  0.13062207059E+03  0.13950856164E+01 -0.19327391352E+03  0.23327854002E+03  0.00000000000E+00 0. -1.
          1    1    1    2  502    0 -0.69018947917E+02 -0.23997307415E+03  0.15010488101E+03  0.29134544238E+03  0.00000000000E+00 0. -1.
         22    1    3    3    0    0 -0.16998595608E+02  0.14781643732E+03 -0.17869165942E+03  0.23252819301E+03  0.00000000000E+00 0. -1.
         22    1    3    3    0    0 -0.44604527067E+02  0.90761551217E+02 -0.34584696851E+03  0.36032950010E+03  0.00000000000E+00 0. -1.
</event>
<event>
 7    1  0.8344408E-006  0.5344725E+02  0.7818608E-02  0.1446011E+00
          2   -1    0    0  502    0  0.00000000000E+00  0.00000000000E+00  0.97971533247E+03  0.97971533247E+03  0.00000000000E+00 0. -1.
          1   -1    0    0  501    0 -0.00000000000E+00 -0.00000000000E+00 -0.11533176538E+04  0.11533176538E+04  0.00000000000E+00 0. -1.
         25    2    1    2    0    0  0.70513671442E+02 -0.62047512910E+02 -0.27094780236E+03  0.31282438220E+03  0.12499724308E+03 0.  0.
          2    1    1    2  501    0 -0.43747118554E+02  0.15890415095E+02 -0.86005950233E+03  0.86131798032E+03  0.00000000000E+00 0. -1.
          1    1    1    2  502    0 -0.26766552888E+02  0.46157097815E+02  0.95740498340E+03  0.95889062372E+03  0.00000000000E+00 0. -1.
         22    1    3    3    0    0  0.68799062260E+02  0.21106864497E+02 -0.14526846278E+03  0.16211643031E+03  0.00000000000E+00 0. -1.
         22    1    3    3    0    0  0.17146091813E+01 -0.83154377407E+02 -0.12567933958E+03  0.15070795189E+03  0.00000000000E+00 0. -1.
</event>
<event>
 7    1  0.7961130E-006  0.1436665E+03  0.7818608E-02  0.1322973E+00
          2   -1    0    0  502    0  0.00000000000E+00  0.00000000000E+00  0.18567647833E+04  0.18567647833E+04  0.00000000000E+00 0. -1.
          1   -1    0    0  501    0 -0.00000000000E+00 -0.00000000000E+00 -0.80713062208E+03  0.80713062208E+03  0.00000000000E+00 0. -1.
         25    2    1    2    0    0 -0.11082034084E+03  0.56840553657E+02  0.13189922822E+03  0.22030441071E+03  0.12499852195E+03 0.  0.
          2    1    1    2  501    0  0.82599943430E+01  0.46278412516E+02 -0.75905311254E+03  0.76050742707E+03  0.00000000000E+00 0. -1.
          1    1    1    2  502    0  0.10256034650E+03 -0.10311896617E+03  0.16767880456E+04  0.16830835676E+04  0.00000000000E+00 0. -1.
         22    1    3    3    0    0 -0.60283489821E+02  0.13000836168E+02 -0.10885846113E+02  0.62622859498E+02  0.00000000000E+00 0. -1.
         22    1    3    3    0    0 -0.50536851018E+02  0.43839717489E+02  0.14278507434E+03  0.15768155121E+03  0.00000000000E+00 0. -1.
</event>
<event>
 7    1  0.7961130E-006  0.2833672E+03  0.7818608E-02  0.1144199E+00
          2   -1    0    0  502    0  0.00000000000E+00  0.00000000000E+00  0.73145638773E+03  0.73145638773E+03  0.00000000000E+00 0. -1.
          1   -1    0    0  501    0 -0.00000000000E+00 -0.00000000000E+00 -0.25396042282E+04  0.25396042282E+04  0.00000000000E+00 0. -1.
         25    2    1    2    0    0  0.41530266460E+02 -0.14366865400E+03 -0.31463310812E+03  0.37011339220E+03  0.12499794072E+03 0.  0.
          2    1    1    2  501    0 -0.10302760870E+02 -0.15043710359E+03 -0.21634148366E+04  0.21686634650E+04  0.00000000000E+00 0. -1.
          1    1    1    2  502    0 -0.31227505590E+02  0.29410575759E+03  0.66990010423E+03  0.73228375879E+03  0.00000000000E+00 0. -1.
         22    1    3    3    0    0  0.16095315226E+02 -0.12731006944E+03 -0.12872231217E+03  0.18175903445E+03  0.00000000000E+00 0.  1.
         22    1    3    3    0    0  0.25434951234E+02 -0.16358584562E+02 -0.18591079595E+03  0.18835435775E+03  0.00000000000E+00 0.  1.
</event>
<event>
 7    1  0.7961130E-006  0.1048304E+03  0.7818608E-02  0.1318196E+00
          2   -1    0    0  502    0  0.00000000000E+00  0.00000000000E+00  0.84461636136E+02  0.84461636136E+02  0.00000000000E+00 0. -1.
          1   -1    0    0  501    0 -0.00000000000E+00 -0.00000000000E+00 -0.57450995104E+03  0.57450995104E+03  0.00000000000E+00 0. -1.
         25    2    1    2    0    0 -0.54488772037E+02  0.13975528932E+03 -0.10156484670E+03  0.22008590743E+03  0.12498728492E+03 0.  0.
          2    1    1    2  501    0  0.23335801848E+02 -0.63052366290E+02 -0.33182137109E+03  0.33856400112E+03  0.00000000000E+00 0. -1.
          1    1    1    2  502    0  0.31152970189E+02 -0.76702923035E+02 -0.56662097114E+02  0.10032167863E+03  0.00000000000E+00 0. -1.
         22    1    3    3    0    0 -0.51805091042E+02  0.70218042898E+02 -0.11974043734E+03  0.14816245591E+03  0.00000000000E+00 0.  1.
         22    1    3    3    0    0 -0.26836809952E+01  0.69537246427E+02  0.18175590634E+02  0.71923451525E+02  0.00000000000E+00 0.  1.
</event>
<event>
 7    1  0.7961130E-006  0.4201775E+02  0.7818608E-02  0.1494964E+00
          2   -1    0    0  502    0  0.00000000000E+00  0.00000000000E+00  0.17187425413E+03  0.17187425413E+03  0.00000000000E+00 0. -1.
          1   -1    0    0  501    0 -0.00000000000E+00 -0.00000000000E+00 -0.58220781482E+03  0.58220781482E+03  0.00000000000E+00 0. -1.
         25    2    1    2    0    0 -0.54569659715E+02 -0.12722379302E+00 -0.31985621578E+03  0.34772140077E+03  0.12499723929E+03 0.  0.
          2    1    1    2  501    0  0.27995051073E+02 -0.32008057904E+02 -0.24379376010E+03  0.24747451610E+03  0.00000000000E+00 0. -1.
          1    1    1    2  502    0  0.26574608642E+02  0.32135281697E+02  0.15331641519E+03  0.15888615208E+03  0.00000000000E+00 0. -1.
         22    1    3    3    0    0  0.16226835025E+02  0.39348992470E+02 -0.48554644783E+02  0.64569396105E+02  0.00000000000E+00 0.  1.
         22    1    3    3    0    0 -0.70796494740E+02 -0.39476216263E+02 -0.27130157100E+03  0.28315200466E+03  0.00000000000E+00 0.  1.
</event>
<event>
 7    1  0.7961130E-006  0.9514095E+02  0.7818608E-02  0.1348906E+00
          2   -1    0    0  502    0  0.00000000000E+00  0.00000000000E+00  0.59177176003E+03  0.59177176003E+03  0.00000000000E+00 0. -1.
          1   -1    0    0  501    0 -0.00000000000E+00 -0.00000000000E+00 -0.53895258376E+03  0.53895258376E+03  0.00000000000E+00 0. -1.
         25    2    1    2    0    0  0.59251242407E+02  0.53953959967E+02  0.21839830236E+03  0.26409298103E+03  0.12500217853E+03 0.  0.
          2    1    1    2  501    0 -0.19013162405E+02 -0.93792517039E+02 -0.50933271312E+03  0.51824545271E+03  0.00000000000E+00 0. -1.
          1    1    1    2  502    0 -0.40238080002E+02  0.39838557072E+02  0.34375358704E+03  0.34838591004E+03  0.00000000000E+00 0. -1.
         22    1    3    3    0    0  0.11965065750E+02 -0.37741678949E+02  0.97046492110E+02  0.10481230252E+03  0.00000000000E+00 0.  1.
         22    1    3    3    0    0  0.47286176657E+02  0.91695638915E+02  0.12135181025E+03  0.15928067852E+03  0.00000000000E+00 0.  1.
</event>
<event>
 7    1  0.7961130E-006  0.1203338E+03  0.7818608E-02  0.1243419E+00
          2   -1    0    0  502    0  0.00000000000E+00  0.00000000000E+00  0.38213763928E+03  0.38213763928E+03  0.00000000000E+00 0. -1.
          1   -1    0    0  501    0 -0.00000000000E+00 -0.00000000000E+00 -0.36457329818E+03  0.36457329818E+03  0.00000000000E+00 0. -1.
         25    2    1    2    0    0  0.97772942869E+02  0.10896183392E+03  0.56019583392E+02  0.20048638869E+03  0.12499747485E+03 0.  0.
          2    1    1    2  501    0  0.26607547755E+02 -0.11627300309E+03 -0.26336070980E+03  0.28911284355E+03  0.00000000000E+00 0. -1.
          1    1    1    2  502    0 -0.12438049062E+03  0.73111691679E+01  0.22490546750E+03  0.25711170521E+03  0.00000000000E+00 0. -1.
         22    1    3    3    0    0  0.97819646877E+01  0.80489675021E+02 -0.16765648660E+02  0.82797111019E+02  0.00000000000E+00 0.  1.
         22    1    3    3    0    0  0.87990978181E+02  0.28472158898E+02  0.72785232051E+02  0.11768927767E+03  0.00000000000E+00 0.  1.
</event>
<event>
 7    1  0.7961130E-006  0.9938959E+02  0.7818608E-02  0.1290250E+00
          2   -1    0    0  502    0  0.00000000000E+00  0.00000000000E+00  0.26442333196E+03  0.26442333196E+03  0.00000000000E+00 0. -1.
          1   -1    0    0  501    0 -0.00000000000E+00 -0.00000000000E+00 -0.13008210644E+04  0.13008210644E+04  0.00000000000E+00 0. -1.
         25    2    1    2    0    0  0.18774320378E+02 -0.45142046629E+01 -0.28205679074E+02  0.12958736180E+03  0.12499788341E+03 0.  0.
          2    1    1    2  501    0 -0.84149053525E+02 -0.59638710094E+02 -0.12098154701E+04  0.12142039823E+04  0.00000000000E+00 0. -1.
          1    1    1    2  502    0  0.65374733147E+02  0.64152914757E+02  0.20162341670E+03  0.22145305229E+03  0.00000000000E+00 0. -1.
         22    1    3    3    0    0 -0.42649460650E+02  0.33419674670E+02 -0.94983730966E+01  0.55009728597E+02  0.00000000000E+00 0.  1.
         22    1    3    3    0    0  0.61423781028E+02 -0.37933879333E+02 -0.18707305978E+02  0.74577633202E+02  0.00000000000E+00 0.  1.
</event>
<event>
 7    1  0.7961130E-006  0.5605158E+02  0.7818608E-02  0.1465672E+00
          2   -1    0    0  502    0  0.00000000000E+00  0.00000000000E+00  0.68211990972E+03  0.68211990972E+03  0.00000000000E+00 0. -1.
          1   -1    0    0  501    0 -0.00000000000E+00 -0.00000000000E+00 -0.65006489559E+03  0.65006489559E+03  0.00000000000E+00 0. -1.
         25    2    1    2    0    0  0.44784400090E+02 -0.34248953868E+02 -0.18759469242E+03  0.23237169505E+03  0.12500481072E+03 0.  0.
          2    1    1    2  501    0 -0.32509366771E+02 -0.20516520774E+02 -0.43804475277E+03  0.43972831610E+03  0.00000000000E+00 0. -1.
          1    1    1    2  502    0 -0.12275033319E+02  0.54765474642E+02  0.65769445932E+03  0.66008479415E+03  0.00000000000E+00 0. -1.
         22    1    3    3    0    0  0.22543148456E+02 -0.81307369151E+02 -0.10434769721E+03  0.13419211502E+03  0.00000000000E+00 0.  1.
         22    1    3    3    0    0  0.22241251635E+02  0.47058415283E+02 -0.83246995210E+02  0.98179580030E+02  0.00000000000E+00 0.  1.
</event>
<event>
 7    1  0.7961130E-006  0.1907091E+03  0.7818608E-02  0.1277619E+00
          2   -1    0    0  502    0  0.00000000000E+00  0.00000000000E+00  0.55151306190E+03  0.55151306190E+03  0.00000000000E+00 0. -1.
          1   -1    0    0  501    0 -0.00000000000E+00 -0.00000000000E+00 -0.10015218155E+04  0.10015218155E+04  0.00000000000E+00 0. -1.
         25    2    1    2    0    0  0.22737716067E+03  0.23906935436E+02 -0.76126273483E+02  0.27146363290E+03  0.12500151886E+03 0.  0.
          2    1    1    2  501    0 -0.18656730742E+03  0.11136500046E+02 -0.81552373886E+03  0.83666621211E+03  0.00000000000E+00 0. -1.
          1    1    1    2  502    0 -0.40809853248E+02 -0.35043435482E+02  0.44164125871E+03  0.44490503243E+03  0.00000000000E+00 0. -1.
         22    1    3    3    0    0  0.20997325202E+03  0.72884005797E+01 -0.20795295599E+02  0.21112634053E+03  0.00000000000E+00 0. -1.
         22    1    3    3    0    0  0.17403908648E+02  0.16618534856E+02 -0.55330977884E+02  0.60337292370E+02  0.00000000000E+00 0. -1.
</event>
<event>
 7    1  0.7961130E-006  0.7897242E+02  0.7818608E-02  0.1439035E+00
          2   -1    0    0  502    0  0.00000000000E+00  0.00000000000E+00  0.49650561581E+03  0.49650561581E+03  0.00000000000E+00 0. -1.
          1   -1    0    0  501    0 -0.00000000000E+00 -0.00000000000E+00 -0.17773590969E+03  0.17773590969E+03  0.00000000000E+00 0. -1.
         25    2    1    2    0    0 -0.94535137631E+02  0.55138570218E+02  0.82244242464E+02  0.18538070086E+03  0.12499893863E+03 0.  0.
          2    1    1    2  501    0  0.30400193633E+02 -0.13293052057E+02 -0.11984613994E+03  0.12435422898E+03  0.00000000000E+00 0. -1.
          1    1    1    2  502    0  0.64134943997E+02 -0.41845518161E+02  0.35637160360E+03  0.36450659566E+03  0.00000000000E+00 0. -1.
         22    1    3    3    0    0  0.16085864672E+02  0.51285057680E+02  0.14742727783E+02  0.55733833584E+02  0.00000000000E+00 0. -1.
         22    1    3    3    0    0 -0.11062100230E+03  0.38535125385E+01  0.67501514682E+02  0.12964686727E+03  0.00000000000E+00 0. -1.
</event>
<event>
 7    1  0.7961130E-006  0.1213247E+03  0.7818608E-02  0.1248563E+00
          2   -1    0    0  502    0  0.00000000000E+00  0.00000000000E+00  0.16695145635E+04  0.16695145635E+04  0.00000000000E+00 0. -1.
          1   -1    0    0  501    0 -0.00000000000E+00 -0.00000000000E+00 -0.77201267504E+02  0.77201267504E+02  0.00000000000E+00 0. -1.
         25    2    1    2    0    0  0.10471553848E+02 -0.19322868113E+02  0.17476866838E+02  0.12811517571E+03  0.12500012280E+03 0.  0.
          2    1    1    2  501    0 -0.47325316233E+02 -0.10188606183E+03  0.14629355180E+03  0.18445123597E+03  0.00000000000E+00 0. -1.
          1    1    1    2  502    0  0.36853762385E+02  0.12120892994E+03  0.14285428774E+04  0.14341494194E+04  0.00000000000E+00 0. -1.
         22    1    3    3    0    0  0.90228277571E+01  0.47085095827E+02 -0.19888027608E+02  0.51903288064E+02  0.00000000000E+00 0.  1.
         22    1    3    3    0    0  0.14487260914E+01 -0.66407963940E+02  0.37364894446E+02  0.76211887648E+02  0.00000000000E+00 0.  1.
</event>
<event>
 7    1  0.7961130E-006  0.5473277E+02  0.7818608E-02  0.1464085E+00
          2   -1    0    0  502    0  0.00000000000E+00  0.00000000000E+00  0.17592985643E+03  0.17592985643E+03  0.00000000000E+00 0. -1.
          1   -1    0    0  501    0 -0.00000000000E+00 -0.00000000000E+00 -0.17674927535E+03  0.17674927535E+03  0.00000000000E+00 0. -1.
         25    2    1    2    0    0  0.71884970519E+01  0.21578369921E+02  0.21553485299E+01  0.12707657813E+03  0.12500604243E+03 0.  0.
          2    1    1    2  501    0  0.81475643600E+01 -0.58328313272E+02 -0.10260647265E+03  0.11830749412E+03  0.00000000000E+00 0. -1.
          1    1    1    2  502    0 -0.15336061412E+02  0.36749943351E+02  0.99631705209E+02  0.10729505953E+03  0.00000000000E+00 0. -1.
         22    1    3    3    0    0 -0.33903575561E+02 -0.37937586507E+02  0.16211536792E+02  0.53399689427E+02  0.00000000000E+00 0. -1.
         22    1    3    3    0    0  0.41092072613E+02  0.59515956428E+02 -0.14056188262E+02  0.73676888707E+02  0.00000000000E+00 0. -1.
</event>
<event>
 7    1  0.7961130E-006  0.7263229E+02  0.7818608E-02  0.1376761E+00
          2   -1    0    0  502    0  0.00000000000E+00  0.00000000000E+00  0.11042390170E+04  0.11042390170E+04  0.00000000000E+00 0. -1.
          1   -1    0    0  501    0 -0.00000000000E+00 -0.00000000000E+00 -0.38078172883E+03  0.38078172883E+03  0.00000000000E+00 0. -1.
         25    2    1    2    0    0 -0.69856927419E+01 -0.40207865886E+02  0.17494034950E+03  0.21884785808E+03  0.12499914689E+03 0.  0.
          2    1    1    2  501    0  0.65373555713E+02  0.33705101931E+02 -0.35409393921E+03  0.36165211664E+03  0.00000000000E+00 0. -1.
          1    1    1    2  502    0 -0.58387862972E+02  0.65027639542E+01  0.90261087791E+03  0.90452077113E+03  0.00000000000E+00 0. -1.
         22    1    3    3    0    0 -0.17517502043E+02 -0.53908949651E+02  0.18852772980E+03  0.19686478261E+03  0.00000000000E+00 0. -1.
         22    1    3    3    0    0  0.10531809301E+02  0.13701083766E+02 -0.13587380303E+02  0.21983075468E+02  0.00000000000E+00 0. -1.
</event>
<event>
 7    1  0.7961130E-006  0.9103347E+02  0.7818608E-02  0.1334062E+00
          2   -1    0    0  502    0  0.00000000000E+00  0.00000000000E+00  0.12224607575E+04  0.12224607575E+04  0.00000000000E+00 0. -1.
          1   -1    0    0  501    0 -0.00000000000E+00 -0.00000000000E+00 -0.71694146341E+03  0.71694146341E+03  0.00000000000E+00 0. -1.
         25    2    1    2    0    0 -0.65396798132E+01  0.30091499238E+02  0.12743525286E+03  0.18113930795E+03  0.12499375775E+03 0.  0.
          2    1    1    2  501    0  0.15420557030E+02  0.65488484231E+02 -0.68628454528E+03  0.68957451536E+03  0.00000000000E+00 0. -1.
          1    1    1    2  502    0 -0.88808772172E+01 -0.95579983469E+02  0.10643685865E+04  0.10686883976E+04  0.00000000000E+00 0. -1.
         22    1    3    3    0    0 -0.37795493293E+02 -0.29658460553E+02  0.94683736558E+02  0.10617501384E+03  0.00000000000E+00 0.  1.
         22    1    3    3    0    0  0.31255813480E+02  0.59749959791E+02  0.32751516300E+02  0.74964294109E+02  0.00000000000E+00 0.  1.
</event>
<event>
 7    1  0.7961130E-006  0.1514133E+03  0.7818608E-02  0.1251304E+00
          2   -1    0    0  502    0  0.00000000000E+00  0.00000000000E+00  0.49146093878E+03  0.49146093878E+03  0.00000000000E+00 0. -1.
          1   -1    0    0  501    0 -0.00000000000E+00 -0.00000000000E+00 -0.30877775121E+03  0.30877775121E+03  0.00000000000E+00 0. -1.
         25    2    1    2    0    0  0.95868393204E+02 -0.85121817015E+02  0.27050627306E+03  0.32440664602E+03  0.12501822136E+03 0.  0.
          2    1    1    2  501    0 -0.15352774216E+03  0.19193102960E+02 -0.24855971375E+03  0.29278161506E+03  0.00000000000E+00 0. -1.
          1    1    1    2  502    0  0.57659348958E+02  0.65928714055E+02  0.16073662826E+03  0.18305042891E+03  0.00000000000E+00 0. -1.
         22    1    3    3    0    0  0.46890266286E+01 -0.76963218821E+02  0.17932982465E+03  0.19520376541E+03  0.00000000000E+00 0.  1.
         22    1    3    3    0    0  0.91179366575E+02 -0.81585981937E+01  0.91176448407E+02  0.12920288061E+03  0.00000000000E+00 0.  1.
</event>
<event>
 7    1  0.7961130E-006  0.2035757E+03  0.7818608E-02  0.1250049E+00
          2   -1    0    0  502    0  0.00000000000E+00  0.00000000000E+00  0.34005164673E+03  0.34005164673E+03  0.00000000000E+00 0. -1.
          1   -1    0    0  501    0 -0.00000000000E+00 -0.00000000000E+00 -0.41902913768E+03  0.41902913768E+03  0.00000000000E+00 0. -1.
         25    2    1    2    0    0  0.23848888858E+03  0.59168794898E+02  0.16394447016E+03  0.32075817305E+03  0.12502047839E+03 0.  0.
          2    1    1    2  501    0 -0.17875366048E+03 -0.87150987045E+02 -0.29396661824E+03  0.35491483249E+03  0.00000000000E+00 0. -1.
          1    1    1    2  502    0 -0.59735228101E+02  0.27982192147E+02  0.51044657138E+02  0.83407778869E+02  0.00000000000E+00 0. -1.
         22    1    3    3    0    0  0.14583036312E+03  0.92325843336E+02  0.75304326814E+02  0.18831170381E+03  0.00000000000E+00 0. -1.
         22    1    3    3    0    0  0.92658525454E+02 -0.33157048438E+02  0.88640143345E+02  0.13244646923E+03  0.00000000000E+00 0. -1.
</event>
<event>
 7    1  0.7961130E-006  0.1254378E+03  0.7818608E-02  0.1243392E+00
          2   -1    0    0  502    0  0.00000000000E+00  0.00000000000E+00  0.23654805618E+04  0.23654805618E+04  0.00000000000E+00 0. -1.
          1   -1    0    0  501    0 -0.00000000000E+00 -0.00000000000E+00 -0.67653894621E+03  0.67653894621E+03  0.00000000000E+00 0. -1.
         25    2    1    2    0    0 -0.17873555572E+03  0.87185141196E+02  0.15432294242E+03  0.28105418955E+03  0.12501295605E+03 0.  0.
          2    1    1    2  501    0  0.11300533221E+03  0.18169943127E+02 -0.60601701915E+03  0.61673088089E+03  0.00000000000E+00 0. -1.
          1    1    1    2  502    0  0.65730223514E+02 -0.10535508432E+03  0.21406356923E+04  0.21442344375E+04  0.00000000000E+00 0. -1.
         22    1    3    3    0    0 -0.19288846867E+03  0.56470363061E+02  0.12928885982E+03  0.23897797498E+03  0.00000000000E+00 0.  1.
         22    1    3    3    0    0  0.14152912950E+02  0.30714778135E+02  0.25034082600E+02  0.42076214570E+02  0.00000000000E+00 0.  1.
</event>
<event>
 7    1  0.7961130E-006  0.1770128E+03  0.7818608E-02  0.1302305E+00
          2   -1    0    0  502    0  0.00000000000E+00  0.00000000000E+00  0.78146872588E+03  0.78146872588E+03  0.00000000000E+00 0. -1.
          1   -1    0    0  501    0 -0.00000000000E+00 -0.00000000000E+00 -0.48012079576E+03  0.48012079576E+03  0.00000000000E+00 0. -1.
         25    2    1    2    0    0 -0.14072366531E+03  0.13514147049E+03  0.41273936610E+02  0.23536413551E+03  0.12500548554E+03 0.  0.
          2    1    1    2  501    0  0.15002547927E+03 -0.90102230873E+02 -0.36219579784E+03  0.40225843982E+03  0.00000000000E+00 0. -1.
          1    1    1    2  502    0 -0.93018139531E+01 -0.45039239620E+02  0.62226979135E+03  0.62396694630E+03  0.00000000000E+00 0. -1.
         22    1    3    3    0    0 -0.40809719445E+02 -0.83799908996E+01  0.43829666470E+02  0.60470630157E+02  0.00000000000E+00 0. -1.
         22    1    3    3    0    0 -0.99913945868E+02  0.14352146139E+03 -0.25557298603E+01  0.17489350535E+03  0.00000000000E+00 0. -1.
</event>
<event>
 7    1  0.7961130E-006  0.6581124E+02  0.7818608E-02  0.1384707E+00
          2   -1    0    0  502    0  0.00000000000E+00  0.00000000000E+00  0.23310013153E+03  0.23310013153E+03  0.00000000000E+00 0. -1.
          1   -1    0    0  501    0 -0.00000000000E+00 -0.00000000000E+00 -0.16311550759E+04  0.16311550759E+04  0.00000000000E+00 0. -1.
         25    2    1    2    0    0  0.80389565774E+01 -0.17093365092E+02 -0.32905520411E+03  0.35250527752E+03  0.12500334143E+03 0.  0.
          2    1    1    2  501    0 -0.68754762761E+02  0.14437180792E+02 -0.12852262748E+04  0.12871449907E+04  0.00000000000E+00 0. -1.
          1    1    1    2  502    0  0.60715806184E+02  0.26561842999E+01  0.21622653460E+03  0.22460493917E+03  0.00000000000E+00 0. -1.
         22    1    3    3    0    0 -0.34449435717E+02  0.71715067104E+01 -0.28342550204E+03  0.28560148693E+03  0.00000000000E+00 0. -1.
         22    1    3    3    0    0  0.42488392294E+02 -0.24264871803E+02 -0.45629702070E+02  0.66903790583E+02  0.00000000000E+00 0. -1.
</event>
<event>
 7    1  0.7961130E-006  0.1792705E+03  0.7818608E-02  0.1320784E+00
          2   -1    0    0  502    0  0.00000000000E+00  0.00000000000E+00  0.89820334454E+03  0.89820334454E+03  0.00000000000E+00 0. -1.
          1   -1    0    0  501    0 -0.00000000000E+00 -0.00000000000E+00 -0.24473057768E+03  0.24473057768E+03  0.00000000000E+00 0. -1.
         25    2    1    2    0    0 -0.22856389523E+02 -0.20687246615E+03  0.65397970611E+02  0.25143573018E+03  0.12499760020E+03 0.  0.
          2    1    1    2  501    0  0.25867416455E+02  0.16857543731E+03 -0.10307816324E+03  0.19927847108E+03  0.00000000000E+00 0. -1.
          1    1    1    2  502    0 -0.30110269311E+01  0.38297028842E+02  0.69115295948E+03  0.69221972097E+03  0.00000000000E+00 0. -1.
         22    1    3    3    0    0  0.42412965453E+01 -0.10138809817E+03  0.94543562926E+02  0.13869398090E+03  0.00000000000E+00 0.  1.
         22    1    3    3    0    0 -0.27097686069E+02 -0.10548436798E+03 -0.29145592314E+02  0.11274174928E+03  0.00000000000E+00 0.  1.
</event>
<event>
 7    1  0.7961130E-006  0.7890257E+02  0.7818608E-02  0.1423767E+00
          2   -1    0    0  502    0  0.00000000000E+00  0.00000000000E+00  0.24274745738E+03  0.24274745738E+03  0.00000000000E+00 0. -1.
          1   -1    0    0  501    0 -0.00000000000E+00 -0.00000000000E+00 -0.25337115900E+03  0.25337115900E+03  0.00000000000E+00 0. -1.
         25    2    1    2    0    0 -0.83179688246E+02  0.36086898354E+02  0.31280197411E+02  0.15755849492E+03  0.12500041521E+03 0.  0.
          2    1    1    2  501    0  0.30462068165E+02  0.21482061850E+02 -0.17789487329E+03  0.18175808791E+03  0.00000000000E+00 0. -1.
          1    1    1    2  502    0  0.52717620081E+02 -0.57568960204E+02  0.13599097426E+03  0.15680203355E+03  0.00000000000E+00 0. -1.
         22    1    3    3    0    0 -0.72287457611E+02 -0.35295193241E+02  0.28341139204E+02  0.85290370882E+02  0.00000000000E+00 0.  1.
         22    1    3    3    0    0 -0.10892230635E+02  0.71382091595E+02  0.29390582069E+01  0.72268124037E+02  0.00000000000E+00 0.  1.
</event>
<event>
 7    1  0.7961130E-006  0.1860527E+03  0.7818608E-02  0.1264105E+00
          2   -1    0    0  502    0  0.00000000000E+00  0.00000000000E+00  0.85045089137E+02  0.85045089137E+02  0.00000000000E+00 0. -1.
          1   -1    0    0  501    0 -0.00000000000E+00 -0.00000000000E+00 -0.13003752761E+04  0.13003752761E+04  0.00000000000E+00 0. -1.
         25    2    1    2    0    0 -0.10197191838E+03  0.14593012067E+03 -0.58744110573E+03  0.62642302770E+03  0.12499953870E+03 0.  0.
          2    1    1    2  501    0  0.15753694635E+03 -0.11661740364E+03 -0.65996772994E+03  0.68845835957E+03  0.00000000000E+00 0. -1.
          1    1    1    2  502    0 -0.55565027971E+02 -0.29312717024E+02  0.32078648694E+02  0.70538977982E+02  0.00000000000E+00 0. -1.
         22    1    3    3    0    0  0.22813867960E+02  0.64770021901E+02 -0.18449850518E+03  0.19686372628E+03  0.00000000000E+00 0. -1.
         22    1    3    3    0    0 -0.12478578634E+03  0.81160098766E+02 -0.40294260055E+03  0.42955930143E+03  0.00000000000E+00 0. -1.
</event>
<event>
 7    1  0.7961130E-006  0.7914707E+02  0.7818608E-02  0.1459702E+00
          2   -1    0    0  502    0  0.00000000000E+00  0.00000000000E+00  0.13859047674E+03  0.13859047674E+03  0.00000000000E+00 0. -1.
          1   -1    0    0  501    0 -0.00000000000E+00 -0.00000000000E+00 -0.24401711271E+04  0.24401711271E+04  0.00000000000E+00 0. -1.
         25    2    1    2    0    0  0.57383384350E+02  0.29760331051E+01 -0.35496621327E+03  0.38069757336E+03  0.12501168036E+03 0.  0.
          2    1    1    2  501    0  0.20900393899E+02 -0.19267260458E+02 -0.20595174357E+04  0.20597136018E+04  0.00000000000E+00 0. -1.
          1    1    1    2  502    0 -0.78283778249E+02  0.16291227353E+02  0.11290299856E+03  0.13835042866E+03  0.00000000000E+00 0. -1.
         22    1    3    3    0    0  0.56007447827E+02  0.35764409306E+02 -0.33658708441E+03  0.34308423539E+03  0.00000000000E+00 0.  1.
         22    1    3    3    0    0  0.13759365229E+01 -0.32788376201E+02 -0.18379128862E+02  0.37613337966E+02  0.00000000000E+00 0.  1.
</event>
<event>
 7    1  0.7961130E-006  0.8500771E+02  0.7818608E-02  0.1420285E+00
          2   -1    0    0  502    0  0.00000000000E+00  0.00000000000E+00  0.19264860055E+04  0.19264860055E+04  0.00000000000E+00 0. -1.
          1   -1    0    0  501    0 -0.00000000000E+00 -0.00000000000E+00 -0.11813744371E+03  0.11813744371E+03  0.00000000000E+00 0. -1.
         25    2    1    2    0    0 -0.75122428697E+02  0.84969606761E+02  0.36296374246E+03  0.40028983561E+03  0.12500424308E+03 0.  0.
          2    1    1    2  501    0  0.41803945826E+02 -0.72618709532E+02 -0.81585594214E+02  0.11694980138E+03  0.00000000000E+00 0. -1.
          1    1    1    2  502    0  0.33318482872E+02 -0.12350897230E+02  0.15269704135E+04  0.15273838122E+04  0.00000000000E+00 0. -1.
         22    1    3    3    0    0 -0.67425720974E+01  0.98141546462E+02  0.19332445141E+03  0.21691373616E+03  0.00000000000E+00 0.  1.
         22    1    3    3    0    0 -0.68379856600E+02 -0.13171939701E+02  0.16963929104E+03  0.18337609945E+03  0.00000000000E+00 0.  1.
</event>
<event>
 7    1  0.7961130E-006  0.5494476E+02  0.7818608E-02  0.1423429E+00
          2   -1    0    0  502    0  0.00000000000E+00  0.00000000000E+00  0.55946537881E+03  0.55946537881E+03  0.00000000000E+00 0. -1.
          1   -1    0    0  501    0 -0.00000000000E+00 -0.00000000000E+00 -0.78208191389E+03  0.78208191389E+03  0.00000000000E+00 0. -1.
         25    2    1    2    0    0  0.25222832825E+02  0.22943294113E+01  0.41532441040E+02  0.13413332608E+03  0.12500140105E+03 0.  0.
          2    1    1    2  501    0 -0.10980350810E+02  0.52531339842E+02 -0.73309621707E+03  0.73505793871E+03  0.00000000000E+00 0. -1.
          1    1    1    2  502    0 -0.14242482015E+02 -0.54825669253E+02  0.46894724096E+03  0.47235602791E+03  0.00000000000E+00 0. -1.
         22    1    3    3    0    0 -0.30244297956E+02  0.39350686409E+02  0.45469980017E+02  0.67310572442E+02  0.00000000000E+00 0.  1.
         22    1    3    3    0    0  0.55467130781E+02 -0.37056356998E+02 -0.39375389778E+01  0.66822753642E+02  0.00000000000E+00 0.  1.
</event>
<event>
 7    1  0.7961130E-006  0.1051193E+03  0.7818608E-02  0.1392201E+00
          2   -1    0    0  502    0  0.00000000000E+00  0.00000000000E+00  0.44684340447E+03  0.44684340447E+03  0.00000000000E+00 0. -1.
          1   -1    0    0  501    0 -0.00000000000E+00 -0.00000000000E+00 -0.22636869329E+03  0.22636869329E+03  0.00000000000E+00 0. -1.
         25    2    1    2    0    0 -0.83747290505E+02  0.10539622571E+03 -0.28123745720E+02  0.18584386185E+03  0.12500009141E+03 0.  0.
          2    1    1    2  501    0  0.84700494586E+01 -0.34803986541E+02 -0.10923125195E+03  0.11495445019E+03  0.00000000000E+00 0. -1.
          1    1    1    2  502    0  0.75277241047E+02 -0.70592239172E+02  0.35782970886E+03  0.37241378572E+03  0.00000000000E+00 0. -1.
         22    1    3    3    0    0 -0.31001777764E+02 -0.19137613940E+02  0.20885011558E+02  0.41994549642E+02  0.00000000000E+00 0.  1.
         22    1    3    3    0    0 -0.52745512742E+02  0.12453383965E+03 -0.49008757278E+02  0.14384931221E+03  0.00000000000E+00 0.  1.
</event>
<event>
 7    1  0.7961130E-006  0.5119562E+02  0.7818608E-02  0.1475927E+00
          2   -1    0    0  502    0  0.00000000000E+00  0.00000000000E+00  0.11287026200E+04  0.11287026200E+04  0.00000000000E+00 0. -1.
          1   -1    0    0  501    0 -0.00000000000E+00 -0.00000000000E+00 -0.10406328117E+04  0.10406328117E+04  0.00000000000E+00 0. -1.
         25    2    1    2    0    0  0.43308847824E+02 -0.99193910786E+01  0.31291477133E+03  0.33987496108E+03  0.12500113773E+03 0.  0.
          2    1    1    2  501    0 -0.42120840890E+02 -0.29173325930E+02 -0.10260364361E+04  0.10273149548E+04  0.00000000000E+00 0. -1.
          1    1    1    2  502    0 -0.11880069346E+01  0.39092717009E+02  0.80119147307E+03  0.80214551573E+03  0.00000000000E+00 0. -1.
         22    1    3    3    0    0  0.23845275037E+02 -0.61465335979E+02  0.98745961417E+02  0.11873226000E+03  0.00000000000E+00 0. -1.
         22    1    3    3    0    0  0.19463572787E+02  0.51545944901E+02  0.21416880991E+03  0.22114270108E+03  0.00000000000E+00 0. -1.
</event>
<event>
 7    1  0.7961130E-006  0.7783081E+02  0.7818608E-02  0.1435779E+00
          2   -1    0    0  502    0  0.00000000000E+00  0.00000000000E+00  0.27125324387E+04  0.27125324387E+04  0.00000000000E+00 0. -1.
          1   -1    0    0  501    0 -0.00000000000E+00 -0.00000000000E+00 -0.36586846489E+03  0.36586846489E+03  0.00000000000E+00 0. -1.
         25    2    1    2    0    0 -0.93362421066E+02 -0.92352216520E+01 -0.92347725451E+02  0.18153395532E+03  0.12499857420E+03 0.  0.
          2    1    1    2  501    0  0.18206191209E+02  0.29303062996E+02 -0.22705740680E+03  0.22966323363E+03  0.00000000000E+00 0. -1.
          1    1    1    2  502    0  0.75156229857E+02 -0.20067841344E+02  0.26660691061E+04  0.26672037146E+04  0.00000000000E+00 0. -1.
         22    1    3    3    0    0 -0.11051624356E+03 -0.39062759621E+02 -0.88575228258E+02  0.14691940083E+03  0.00000000000E+00 0.  1.
         22    1    3    3    0    0  0.17153822494E+02  0.29827537969E+02 -0.37724971929E+01  0.34614554489E+02  0.00000000000E+00 0.  1.
</event>
<event>
 7    1  0.7961130E-006  0.3665281E+02  0.7818608E-02  0.1568437E+00
          2   -1    0    0  502    0  0.00000000000E+00  0.00000000000E+00  0.41877291108E+02  0.41877291108E+02  0.00000000000E+00 0. -1.
          1   -1    0    0  501    0 -0.00000000000E+00 -0.00000000000E+00 -0.99573978938E+03  0.99573978938E+03  0.00000000000E+00 0. -1.
         25    2    1    2    0    0 -0.24092279676E+02 -0.41503452545E+02 -0.11216465184E+03  0.17466813550E+03  0.12500029569E+03 0.  0.
          2    1    1    2  501    0 -0.91878585889E+01  0.27996490263E+02 -0.82093330845E+03  0.82146193894E+03  0.00000000000E+00 0. -1.
          1    1    1    2  502    0  0.33280138265E+02  0.13506962282E+02 -0.20764537979E+02  0.41487006044E+02  0.00000000000E+00 0. -1.
         22    1    3    3    0    0  0.34624936023E+02  0.21715301876E+02 -0.63766427026E+02  0.75740331038E+02  0.00000000000E+00 0.  1.
         22    1    3    3    0    0 -0.58717215699E+02 -0.63218754421E+02 -0.48398224818E+02  0.98927804461E+02  0.00000000000E+00 0.  1.
</event>
<event>
 7    1  0.7961130E-006  0.4583555E+02  0.7818608E-02  0.1584467E+00
          2   -1    0    0  502    0  0.00000000000E+00  0.00000000000E+00  0.76967526186E+03  0.76967526186E+03  0.00000000000E+00 0. -1.
          1   -1    0    0  501    0 -0.00000000000E+00 -0.00000000000E+00 -0.35128100855E+03  0.35128100855E+03  0.00000000000E+00 0. -1.
         25    2    1    2    0    0 -0.75581155479E+01 -0.31002667646E+02  0.30135983800E+03  0.32780830317E+03  0.12498896413E+03 0.  0.
          2    1    1    2  501    0  0.14274563869E+02 -0.15852374187E+02 -0.33648730382E+03  0.33716281908E+03  0.00000000000E+00 0. -1.
          1    1    1    2  502    0 -0.67164483216E+01  0.46855041832E+02  0.45352171913E+03  0.45598514817E+03  0.00000000000E+00 0. -1.
         22    1    3    3    0    0  0.30557760871E+02 -0.15041024687E+02  0.12925793316E+02  0.36429182065E+02  0.00000000000E+00 0.  1.
         22    1    3    3    0    0 -0.38115876419E+02 -0.15961642959E+02  0.28843404468E+03  0.29137912110E+03  0.00000000000E+00 0.  1.
</event>
<event>
 7    1  0.7961130E-006  0.6644613E+02  0.7818608E-02  0.1428379E+00
          2   -1    0    0  502    0  0.00000000000E+00  0.00000000000E+00  0.42982020971E+02  0.42982020971E+02  0.00000000000E+00 0. -1.
          1   -1    0    0  501    0 -0.00000000000E+00 -0.00000000000E+00 -0.71841439811E+03  0.71841439811E+03  0.00000000000E+00 0. -1.
         25    2    1    2    0    0 -0.14686101787E+02  0.69538905184E+02 -0.25697464473E+03  0.29446966660E+03  0.12500030239E+03 0.  0.
          2    1    1    2  501    0  0.42043933087E+02 -0.76467164941E+01 -0.39191562153E+03  0.39423853057E+03  0.00000000000E+00 0. -1.
          1    1    1    2  502    0 -0.27357831300E+02 -0.61892188689E+02 -0.26542110878E+02  0.72688221908E+02  0.00000000000E+00 0. -1.
         22    1    3    3    0    0  0.42447735110E+02  0.72548598739E+02 -0.12505839715E+03  0.15068082855E+03  0.00000000000E+00 0.  1.
         22    1    3    3    0    0 -0.57133836897E+02 -0.30096935558E+01 -0.13191624757E+03  0.14378883805E+03  0.00000000000E+00 0.  1.
</event>
<event>
 7    1  0.7961130E-006  0.4612109E+02  0.7818608E-02  0.1482451E+00
          2   -1    0    0  502    0  0.00000000000E+00  0.00000000000E+00  0.12936782508E+04  0.12936782508E+04  0.00000000000E+00 0. -1.
          1   -1    0    0  501    0 -0.00000000000E+00 -0.00000000000E+00 -0.43181686853E+02  0.43181686853E+02  0.00000000000E+00 0. -1.
         25    2    1    2    0    0  0.83670185169E+02  0.19758037045E+01  0.20923574293E+03  0.25769988876E+03  0.12500013145E+03 0.  0.
          2    1    1    2  501    0 -0.42214972498E+02 -0.16614190698E+01  0.55393781820E+01  0.42609258700E+02  0.00000000000E+00 0. -1.
          1    1    1    2  502    0 -0.41455212670E+02 -0.31438463468E+00  0.10357214428E+04  0.10365507902E+04  0.00000000000E+00 0. -1.
         22    1    3    3    0    0  0.10198067887E+03 -0.59944373152E+01  0.21403227223E+03  0.23716198198E+03  0.00000000000E+00 0. -1.
         22    1    3    3    0    0 -0.18310493705E+02  0.79702410197E+01 -0.47965292975E+01  0.20537906781E+02  0.00000000000E+00 0. -1.
</event>
<event>
 7    1  0.7961130E-006  0.8070371E+02  0.7818608E-02  0.1373048E+00
          2   -1    0    0  502    0  0.00000000000E+00  0.00000000000E+00  0.11499948031E+04  0.11499948031E+04  0.00000000000E+00 0. -1.
          1   -1    0    0  501    0 -0.00000000000E+00 -0.00000000000E+00 -0.52617063798E+02  0.52617063798E+02  0.00000000000E+00 0. -1.
         25    2    1    2    0    0  0.13104113977E+02 -0.54685312806E+02  0.10904636470E+03  0.17515067217E+03  0.12499778825E+03 0.  0.
          2    1    1    2  501    0 -0.51182981591E+02 -0.18756746137E+02  0.23954716316E+02  0.59542770879E+02  0.00000000000E+00 0. -1.
          1    1    1    2  502    0  0.38078867614E+02  0.73442058943E+02  0.96437665832E+03  0.96791842388E+03  0.00000000000E+00 0. -1.
         22    1    3    3    0    0 -0.38356903217E+02  0.13663625009E+02  0.59057392178E+01  0.41143947653E+02  0.00000000000E+00 0. -1.
         22    1    3    3    0    0  0.51461017194E+02 -0.68348937816E+02  0.10314062548E+03  0.13400672452E+03  0.00000000000E+00 0. -1.
</event>
<event>
 7    1  0.7961130E-006  0.1301506E+03  0.7818608E-02  0.1264949E+00
          2   -1    0    0  502    0  0.00000000000E+00  0.00000000000E+00  0.41412932957E+03  0.41412932957E+03  0.00000000000E+00 0. -1.
          1   -1    0    0  501    0 -0.00000000000E+00 -0.00000000000E+00 -0.50460562125E+03  0.50460562125E+03  0.00000000000E+00 0. -1.
         25    2    1    2    0    0 -0.70231425071E+01 -0.17371889585E+02 -0.16444466989E+03  0.20740700616E+03  0.12499803866E+03 0.  0.
          2    1    1    2  501    0  0.13593313325E+02  0.14735657901E+03 -0.28957141344E+03  0.32519277825E+03  0.00000000000E+00 0. -1.
          1    1    1    2  502    0 -0.65701708184E+01 -0.12998468943E+03  0.36353979165E+03  0.38613516642E+03  0.00000000000E+00 0. -1.
         22    1    3    3    0    0  0.28473126983E+02 -0.49911455366E+02 -0.30468935832E+02  0.65040205932E+02  0.00000000000E+00 0. -1.
         22    1    3    3    0    0 -0.35496269490E+02  0.32539565781E+02 -0.13397573406E+03  0.14236680022E+03  0.00000000000E+00 0. -1.
</event>
<event>
 7    1  0.7961130E-006  0.4947399E+02  0.7818608E-02  0.1560354E+00
          2   -1    0    0  502    0  0.00000000000E+00  0.00000000000E+00  0.69806677699E+02  0.69806677699E+02  0.00000000000E+00 0. -1.
          1   -1    0    0  501    0 -0.00000000000E+00 -0.00000000000E+00 -0.11051409172E+04  0.11051409172E+04  0.00000000000E+00 0. -1.
         25    2    1    2    0    0 -0.65580358630E+02  0.73718283861E+01 -0.15594532546E+03  0.21047636206E+03  0.12500490855E+03 0.  0.
          2    1    1    2  501    0  0.45504272923E+02 -0.18533616393E+02 -0.91812382764E+03  0.91943759803E+03  0.00000000000E+00 0. -1.
          1    1    1    2  502    0  0.20076085707E+02  0.11161788007E+02  0.38734913621E+02  0.45033634786E+02  0.00000000000E+00 0. -1.
         22    1    3    3    0    0 -0.21048181925E+02  0.13453209835E+02 -0.16306775685E+03  0.16497002194E+03  0.00000000000E+00 0. -1.
         22    1    3    3    0    0 -0.44532176705E+02 -0.60813814488E+01  0.71224313831E+01  0.45506340121E+02  0.00000000000E+00 0. -1.
</event>
<event>
 7    1  0.7961130E-006  0.5938022E+02  0.7818608E-02  0.1481114E+00
          2   -1    0    0  502    0  0.00000000000E+00  0.00000000000E+00  0.10075194952E+04  0.10075194952E+04  0.00000000000E+00 0. -1.
          1   -1    0    0  501    0 -0.00000000000E+00 -0.00000000000E+00 -0.31056589410E+02  0.31056589410E+02  0.00000000000E+00 0. -1.
         25    2    1    2    0    0 -0.36598289561E+02  0.74059731316E+01  0.58951153736E+03  0.60377784530E+03  0.12501820088E+03 0.  0.
          2    1    1    2  501    0  0.58941256694E+02  0.16201705954E+02  0.17035265502E+02  0.63456814348E+02  0.00000000000E+00 0. -1.
          1    1    1    2  502    0 -0.22342967133E+02 -0.23607679086E+02  0.36991610294E+03  0.37134142498E+03  0.00000000000E+00 0. -1.
         22    1    3    3    0    0 -0.70687874795E+02  0.12998647102E+02  0.19616597213E+03  0.20891823542E+03  0.00000000000E+00 0.  1.
         22    1    3    3    0    0  0.34089585234E+02 -0.55926739701E+01  0.39334556523E+03  0.39485960987E+03  0.00000000000E+00 0.  1.
</event>
<event>
 7    1  0.7961130E-006  0.5151359E+02  0.7818608E-02  0.1447901E+00
          2   -1    0    0  502    0  0.00000000000E+00  0.00000000000E+00  0.22979222405E+03  0.22979222405E+03  0.00000000000E+00 0. -1.
          1   -1    0    0  501    0 -0.00000000000E+00 -0.00000000000E+00 -0.56845316684E+03  0.56845316684E+03  0.00000000000E+00 0. -1.
         25    2    1    2    0    0 -0.66040995728E+01  0.39024984250E+02 -0.21971222236E+03  0.25586206853E+03  0.12500149572E+03 0.  0.
          2    1    1    2  501    0 -0.40975405042E+02 -0.37056902642E+02 -0.32563187848E+03  0.33028520726E+03  0.00000000000E+00 0. -1.
          1    1    1    2  502    0  0.47579504614E+02 -0.19680816087E+01  0.20668315805E+03  0.21209811510E+03  0.00000000000E+00 0. -1.
         22    1    3    3    0    0  0.25388669469E+02 -0.34310967940E+02 -0.37340547571E+02  0.56711053167E+02  0.00000000000E+00 0. -1.
         22    1    3    3    0    0 -0.31992769042E+02  0.73335952190E+02 -0.18237167479E+03  0.19915101537E+03  0.00000000000E+00 0. -1.
</event>
<event>
 7    1  0.7961130E-006  0.2740377E+03  0.7818608E-02  0.1318344E+00
          2   -1    0    0  502    0  0.00000000000E+00  0.00000000000E+00  0.36609395917E+03  0.36609395917E+03  0.00000000000E+00 0. -1.
          1   -1    0    0  501    0 -0.00000000000E+00 -0.00000000000E+00 -0.95342803831E+03  0.95342803831E+03  0.00000000000E+00 0. -1.
         25    2    1    2    0    0  0.25057403900E+03  0.54219216918E+02 -0.84191623302E+02  0.29739132152E+03  0.12500518460E+03 0.  0.
          2    1    1    2  501    0  0.25619519362E+02 -0.18315130140E+01 -0.68618975523E+03  0.68667029526E+03  0.00000000000E+00 0. -1.
          1    1    1    2  502    0 -0.27619355836E+03 -0.52387703904E+02  0.18304729940E+03  0.33546038070E+03  0.00000000000E+00 0. -1.
         22    1    3    3    0    0  0.53234373241E+02  0.65981327608E+02 -0.44530553748E+02  0.95762227963E+02  0.00000000000E+00 0.  1.
         22    1    3    3    0    0  0.19733966576E+03 -0.11762110690E+02 -0.39661069554E+02  0.20162909356E+03  0.00000000000E+00 0.  1.
</event>
<event>
 7    1  0.7961130E-006  0.1162479E+03  0.7818608E-02  0.1335933E+00
          2   -1    0    0  502    0  0.00000000000E+00  0.00000000000E+00  0.89595738570E+03  0.89595738570E+03  0.00000000000E+00 0. -1.
          1   -1    0    0  501    0 -0.00000000000E+00 -0.00000000000E+00 -0.12228766591E+04  0.12228766591E+04  0.00000000000E+00 0. -1.
         25    2    1    2    0    0 -0.22896596777E+02 -0.63099040752E+02  0.29323069211E+03  0.32575253885E+03  0.12499893874E+03 0.  0.
          2    1    1    2  501    0  0.57894426074E+02  0.10133274771E+03 -0.12026402603E+04  0.12082895704E+04  0.00000000000E+00 0. -1.
          1    1    1    2  502    0 -0.34997829298E+02 -0.38233706963E+02  0.58249029476E+03  0.58479193555E+03  0.00000000000E+00 0. -1.
         22    1    3    3    0    0  0.44622096324E+02 -0.53545907349E+02  0.18648138846E+03  0.19908190253E+03  0.00000000000E+00 0. -1.
         22    1    3    3    0    0 -0.67518693100E+02 -0.95531334023E+01  0.10674930365E+03  0.12667063632E+03  0.00000000000E+00 0. -1.
</event>
<event>
 7    1  0.7961130E-006  0.8025068E+02  0.7818608E-02  0.1497647E+00
          2   -1    0    0  502    0  0.00000000000E+00  0.00000000000E+00  0.56003707398E+02  0.56003707398E+02  0.00000000000E+00 0. -1.
          1   -1    0    0  501    0 -0.00000000000E+00 -0.00000000000E+00 -0.11102184337E+04  0.11102184337E+04  0.00000000000E+00 0. -1.
         25    2    1    2    0    0  0.40937504229E+02 -0.47137027398E+02 -0.32837887605E+03  0.35686859832E+03  0.12499892650E+03 0.  0.
          2    1    1    2  501    0  0.19501623579E+02 -0.88902072521E+01 -0.72662056745E+03  0.72693658469E+03  0.00000000000E+00 0. -1.
          1    1    1    2  502    0 -0.60439127808E+02  0.56027234650E+02  0.78471724616E+00  0.82416958048E+02  0.00000000000E+00 0. -1.
         22    1    3    3    0    0  0.55504722765E+02 -0.79848657467E+02 -0.18401565052E+03  0.20813058878E+03  0.00000000000E+00 0. -1.
         22    1    3    3    0    0 -0.14567218536E+02  0.32711630068E+02 -0.14436322553E+03  0.14873800954E+03  0.00000000000E+00 0. -1.
</event>
<event>
 7    1  0.7961130E-006  0.6237545E+02  0.7818608E-02  0.1457701E+00
          2   -1    0    0  502    0  0.00000000000E+00  0.00000000000E+00  0.89288561311E+03  0.89288561311E+03  0.00000000000E+00 0. -1.
          1   -1    0    0  501    0 -0.00000000000E+00 -0.00000000000E+00 -0.59639858267E+03  0.59639858267E+03  0.00000000000E+00 0. -1.
         25    2    1    2    0    0  0.62121745784E+02 -0.53866199370E+02 -0.15800375090E+03  0.21760387534E+03  0.12500233010E+03 0.  0.
          2    1    1    2  501    0 -0.22815176999E+01  0.36527680245E+02 -0.40664756883E+03  0.40829122202E+03  0.00000000000E+00 0. -1.
          1    1    1    2  502    0 -0.59840228084E+02  0.17338519124E+02  0.86113835017E+03  0.86338909842E+03  0.00000000000E+00 0. -1.
         22    1    3    3    0    0 -0.25886507191E+02 -0.52067976960E+02 -0.86337158975E+02  0.10409270147E+03  0.00000000000E+00 0. -1.
         22    1    3    3    0    0  0.88008252975E+02 -0.17982224098E+01 -0.71666591923E+02  0.11351117387E+03  0.00000000000E+00 0. -1.
</event>
<event>
 7    1  0.7961130E-006  0.5891333E+02  0.7818608E-02  0.1421427E+00
          2   -1    0    0  502    0  0.00000000000E+00  0.00000000000E+00  0.51181314934E+03  0.51181314934E+03  0.00000000000E+00 0. -1.
          1   -1    0    0  501    0 -0.00000000000E+00 -0.00000000000E+00 -0.12810189698E+04  0.12810189698E+04  0.00000000000E+00 0. -1.
         25    2    1    2    0    0  0.73159895610E+02  0.27984141877E+02 -0.33451259982E+01  0.14755177055E+03  0.12499941041E+03 0.  0.
          2    1    1    2  501    0 -0.17663175819E+02 -0.47657501072E+02 -0.12030604049E+04  0.12041335320E+04  0.00000000000E+00 0. -1.
          1    1    1    2  502    0 -0.55496719791E+02  0.19673359195E+02  0.43719971041E+03  0.44114681655E+03  0.00000000000E+00 0. -1.
         22    1    3    3    0    0  0.94161232706E+02 -0.18969304836E+02 -0.89195959603E+00  0.96057107299E+02  0.00000000000E+00 0. -1.
         22    1    3    3    0    0 -0.21001337097E+02  0.46953446713E+02 -0.24531664022E+01  0.51494663253E+02  0.00000000000E+00 0. -1.
</event>
<event>
 7    1  0.7961130E-006  0.4242710E+02  0.7818608E-02  0.1535113E+00
          2   -1    0    0  502    0  0.00000000000E+00  0.00000000000E+00  0.20280132189E+04  0.20280132189E+04  0.00000000000E+00 0. -1.
          1   -1    0    0  501    0 -0.00000000000E+00 -0.00000000000E+00 -0.27441643313E+03  0.27441643313E+03  0.00000000000E+00 0. -1.
         25    2    1    2    0    0  0.60345911798E+01 -0.92986782353E+01  0.51708348848E+03  0.53209304478E+03  0.12499917017E+03 0.  0.
          2    1    1    2  501    0 -0.26542717509E+02  0.33228923062E+02 -0.26505117707E+03  0.26844143430E+03  0.00000000000E+00 0. -1.
          1    1    1    2  502    0  0.20508126329E+02 -0.23930244827E+02  0.15015644744E+04  0.15018951730E+04  0.00000000000E+00 0. -1.
         22    1    3    3    0    0  0.17465955451E+02 -0.60292809408E+02  0.38435094220E+03  0.38944310141E+03  0.00000000000E+00 0. -1.
         22    1    3    3    0    0 -0.11431364271E+02  0.50994131173E+02  0.13273254628E+03  0.14264994337E+03  0.00000000000E+00 0. -1.
</event>
<event>
 7    1  0.7961130E-006  0.6938256E+02  0.7818608E-02  0.1386999E+00
          2   -1    0    0  502    0  0.00000000000E+00  0.00000000000E+00  0.57106487271E+03  0.57106487271E+03  0.00000000000E+00 0. -1.
          1   -1    0    0  501    0 -0.00000000000E+00 -0.00000000000E+00 -0.45580765202E+03  0.45580765202E+03  0.00000000000E+00 0. -1.
         25    2    1    2    0    0 -0.24146861156E+02  0.45897866864E+01  0.67377556073E+02  0.14411103751E+03  0.12499647604E+03 0.  0.
          2    1    1    2  501    0  0.38963336381E+02 -0.59203009074E+02 -0.41268845564E+03  0.41873010315E+03  0.00000000000E+00 0. -1.
          1    1    1    2  502    0 -0.14816475225E+02  0.54613222387E+02  0.46056812027E+03  0.46403138407E+03  0.00000000000E+00 0. -1.
         22    1    3    3    0    0 -0.74250832936E+01  0.49309871640E+02  0.80412888173E+02  0.94619384310E+02  0.00000000000E+00 0.  1.
         22    1    3    3    0    0 -0.16721777863E+02 -0.44720084953E+02 -0.13035332100E+02  0.49491653196E+02  0.00000000000E+00 0.  1.
</event>
<event>
 7    1  0.7961130E-006  0.8792549E+02  0.7818608E-02  0.1327463E+00
          2   -1    0    0  502    0  0.00000000000E+00  0.00000000000E+00  0.41187300383E+03  0.41187300383E+03  0.00000000000E+00 0. -1.
          1   -1    0    0  501    0 -0.00000000000E+00 -0.00000000000E+00 -0.87716460548E+03  0.87716460548E+03  0.00000000000E+00 0. -1.
         25    2    1    2    0    0  0.64615258380E+02  0.13086015793E+03  0.20175020120E+03  0.27861787652E+03  0.12500105952E+03 0.  0.
          2    1    1    2  501    0 -0.66304376664E+02 -0.57063697466E+02 -0.82838574979E+03  0.83299188855E+03  0.00000000000E+00 0. -1.
          1    1    1    2  502    0  0.16891182844E+01 -0.73796460462E+02  0.16134394693E+03  0.17742784423E+03  0.00000000000E+00 0. -1.
         22    1    3    3    0    0 -0.23223917063E+02  0.92438231443E+02  0.86582744223E+02  0.12876625549E+03  0.00000000000E+00 0. -1.
         22    1    3    3    0    0  0.87839175443E+02  0.38421926485E+02  0.11516745698E+03  0.14985162103E+03  0.00000000000E+00 0. -1.
</event>
<event>
 7    1  0.7961130E-006  0.5510087E+02  0.7818608E-02  0.1477188E+00
          2   -1    0    0  502    0  0.00000000000E+00  0.00000000000E+00  0.33772634869E+04  0.33772634869E+04  0.00000000000E+00 0. -1.
          1   -1    0    0  501    0 -0.00000000000E+00 -0.00000000000E+00 -0.12066980269E+02  0.12066980269E+02  0.00000000000E+00 0. -1.
         25    2    1    2    0    0 -0.26925341426E+02 -0.11034825129E+02  0.19334113985E+04  0.19376661076E+04  0.12499426925E+03 0.  0.
          2    1    1    2  501    0 -0.35964671428E+02 -0.19029863185E+01  0.26013578203E+02  0.44427302403E+02  0.00000000000E+00 0. -1.
          1    1    1    2  502    0  0.62890012854E+02  0.12937811448E+02  0.14057715299E+04  0.14072370572E+04  0.00000000000E+00 0. -1.
         22    1    3    3    0    0  0.12618391631E+02  0.94029849433E+01  0.31293732137E+02  0.35027669124E+02  0.00000000000E+00 0. -1.
         22    1    3    3    0    0 -0.39543733057E+02 -0.20437810072E+02  0.19021176663E+04  0.19026384385E+04  0.00000000000E+00 0. -1.
</event>
<event>
 7    1  0.7961130E-006  0.1285151E+03  0.7818608E-02  0.1352303E+00
          2   -1    0    0  502    0  0.00000000000E+00  0.00000000000E+00  0.42895270817E+03  0.42895270817E+03  0.00000000000E+00 0. -1.
          1   -1    0    0  501    0 -0.00000000000E+00 -0.00000000000E+00 -0.78268913166E+03  0.78268913166E+03  0.00000000000E+00 0. -1.
         25    2    1    2    0    0 -0.47622933206E+02  0.79822373290E+02 -0.61455060918E+02  0.16745490381E+03  0.12499946100E+03 0.  0.
          2    1    1    2  501    0 -0.85744717885E+01  0.39809797161E+02 -0.65596603732E+03  0.65722886701E+03  0.00000000000E+00 0. -1.
          1    1    1    2  502    0  0.56197404995E+02 -0.11963217045E+03  0.36368467475E+03  0.38695806902E+03  0.00000000000E+00 0. -1.
         22    1    3    3    0    0  0.23839827183E+02  0.24878238627E+02 -0.68868579104E+02  0.77007436687E+02  0.00000000000E+00 0.  1.
         22    1    3    3    0    0 -0.71462760389E+02  0.54944134663E+02  0.74135181858E+01  0.90447467119E+02  0.00000000000E+00 0.  1.
</event>
<event>
 7    1  0.7961130E-006  0.1799099E+03  0.7818608E-02  0.1208353E+00
          2   -1    0    0  502    0  0.00000000000E+00  0.00000000000E+00  0.10002070755E+04  0.10002070755E+04  0.00000000000E+00 0. -1.
          1   -1    0    0  501    0 -0.00000000000E+00 -0.00000000000E+00 -0.14315916657E+04  0.14315916657E+04  0.00000000000E+00 0. -1.
         25    2    1    2    0    0  0.24904818468E+03  0.30608145909E+00  0.56554154642E+03  0.63046327870E+03  0.12498645156E+03 0.  0.
          2    1    1    2  501    0 -0.10451463162E+03  0.47685487479E+02 -0.13822458217E+04  0.13870114367E+04  0.00000000000E+00 0. -1.
          1    1    1    2  502    0 -0.14453355307E+03 -0.47991568938E+02  0.38531968512E+03  0.41432402585E+03  0.00000000000E+00 0. -1.
         22    1    3    3    0    0  0.20518537621E+03 -0.21874960840E+02  0.32516419392E+03  0.38511206879E+03  0.00000000000E+00 0. -1.
         22    1    3    3    0    0  0.43862808474E+02  0.22181042299E+02  0.24037735250E+03  0.24535120990E+03  0.00000000000E+00 0. -1.
</event>
<event>
 7    1  0.7961130E-006  0.1155516E+03  0.7818608E-02  0.1261444E+00
          2   -1    0    0  502    0  0.00000000000E+00  0.00000000000E+00  0.60950088261E+03  0.60950088261E+03  0.00000000000E+00 0. -1.
          1   -1    0    0  501    0 -0.00000000000E+00 -0.00000000000E+00 -0.23865906763E+04  0.23865906763E+04  0.00000000000E+00 0. -1.
         25    2    1    2    0    0  0.27890770378E+02 -0.20658462321E+03  0.68757755496E+02  0.25259976568E+03  0.12499564417E+03 0.  0.
          2    1    1    2  501    0 -0.35057025160E+02  0.97723020943E+02 -0.22868447999E+04  0.22892002802E+04  0.00000000000E+00 0. -1.
          1    1    1    2  502    0  0.71662547821E+01  0.10886160227E+03  0.44099725075E+03  0.45429151305E+03  0.00000000000E+00 0. -1.
         22    1    3    3    0    0  0.52305909677E+01 -0.21507568548E+03  0.47344559574E+02  0.22028712374E+03  0.00000000000E+00 0.  1.
         22    1    3    3    0    0  0.22660179410E+02  0.84910622669E+01  0.21413195922E+02  0.32312641936E+02  0.00000000000E+00 0.  1.
</event>
<event>
 7    1  0.7961130E-006  0.1080490E+03  0.7818608E-02  0.1345536E+00
          2   -1    0    0  502    0  0.00000000000E+00  0.00000000000E+00  0.33941625921E+04  0.33941625921E+04  0.00000000000E+00 0. -1.
          1   -1    0    0  501    0 -0.00000000000E+00 -0.00000000000E+00 -0.27821846600E+03  0.27821846600E+03  0.00000000000E+00 0. -1.
         25    2    1    2    0    0  0.60867899282E+02 -0.11723455153E+03 -0.75420734439E+02  0.19687934692E+03  0.12499739528E+03 0.  0.
          2    1    1    2  501    0 -0.50377192340E+02  0.97904890682E+01 -0.13652983646E+03  0.14585647544E+03  0.00000000000E+00 0. -1.
          1    1    1    2  502    0 -0.10490706943E+02  0.10744406246E+03  0.33278946970E+04  0.33296452358E+04  0.00000000000E+00 0. -1.
         22    1    3    3    0    0  0.13820763156E+02 -0.63871274251E+01  0.32046806907E+02  0.35479666344E+02  0.00000000000E+00 0.  1.
         22    1    3    3    0    0  0.47047136127E+02 -0.11084742411E+03 -0.10746754135E+03  0.16139968058E+03  0.00000000000E+00 0.  1.
</event>
<event>
 7    1  0.7961130E-006  0.4734631E+02  0.7818608E-02  0.1499660E+00
          2   -1    0    0  502    0  0.00000000000E+00  0.00000000000E+00  0.60473121706E+03  0.60473121706E+03  0.00000000000E+00 0. -1.
          1   -1    0    0  501    0 -0.00000000000E+00 -0.00000000000E+00 -0.11147992207E+03  0.11147992207E+03  0.00000000000E+00 0. -1.
         25    2    1    2    0    0  0.30483951704E+02  0.73567312125E+00  0.17494697792E+03  0.21716750797E+03  0.12500187561E+03 0.  0.
          2    1    1    2  501    0  0.42347697407E+01 -0.35576211999E+02 -0.85265897080E+02  0.92487152296E+02  0.00000000000E+00 0. -1.
          1    1    1    2  502    0 -0.34718721445E+02  0.34840538878E+02  0.40357021414E+03  0.40655647887E+03  0.00000000000E+00 0. -1.
         22    1    3    3    0    0  0.39588255337E+02 -0.40933456191E+02  0.16331413893E+03  0.17295746810E+03  0.00000000000E+00 0.  1.
         22    1    3    3    0    0 -0.91043036329E+01  0.41669129313E+02  0.11632838993E+02  0.44210039870E+02  0.00000000000E+00 0.  1.
</event>
<event>
 7    1  0.7961130E-006  0.9195777E+02  0.7818608E-02  0.1487805E+00
          2   -1    0    0  502    0  0.00000000000E+00  0.00000000000E+00  0.97225778054E+03  0.97225778054E+03  0.00000000000E+00 0. -1.
          1   -1    0    0  501    0 -0.00000000000E+00 -0.00000000000E+00 -0.53699748945E+03  0.53699748945E+03  0.00000000000E+00 0. -1.
         25    2    1    2    0    0  0.84619358755E+02 -0.22057935698E+02 -0.37100555096E+03  0.40114503267E+03  0.12500091995E+03 0.  0.
          2    1    1    2  501    0 -0.27190487755E+01 -0.19840650142E+02 -0.14803601421E+03  0.14938442398E+03  0.00000000000E+00 0. -1.
          1    1    1    2  502    0 -0.81900309980E+02  0.41898585839E+02  0.95430185627E+03  0.95872581333E+03  0.00000000000E+00 0. -1.
         22    1    3    3    0    0  0.29352119269E+02 -0.72138981897E+02 -0.19631520273E+03  0.21119952281E+03  0.00000000000E+00 0. -1.
         22    1    3    3    0    0  0.55267239486E+02  0.50081046199E+02 -0.17469034824E+03  0.18994550986E+03  0.00000000000E+00 0. -1.
</event>
<event>
 7    1  0.7961130E-006  0.3648393E+03  0.7818608E-02  0.1270261E+00
          2   -1    0    0  502    0  0.00000000000E+00  0.00000000000E+00  0.85261226607E+03  0.85261226607E+03  0.00000000000E+00 0. -1.
          1   -1    0    0  501    0 -0.00000000000E+00 -0.00000000000E+00 -0.10404609430E+04  0.10404609430E+04  0.00000000000E+00 0. -1.
         25    2    1    2    0    0  0.58781663666E+02  0.37983080665E+03  0.47328465343E+03  0.62237478860E+03  0.12500115458E+03 0.  0.
          2    1    1    2  501    0 -0.34416662174E+02 -0.36202566368E+03 -0.93081602447E+03  0.99933255687E+03  0.00000000000E+00 0. -1.
          1    1    1    2  502    0 -0.24365001491E+02 -0.17805142963E+02  0.26968269412E+03  0.27136586359E+03  0.00000000000E+00 0. -1.
         22    1    3    3    0    0 -0.39599416883E+02  0.11302303385E+03  0.14430914241E+03  0.18752986051E+03  0.00000000000E+00 0.  1.
         22    1    3    3    0    0  0.98381080549E+02  0.26680777279E+03  0.32897551102E+03  0.43484492809E+03  0.00000000000E+00 0.  1.
</event>
<event>
 7    1  0.7961130E-006  0.1250915E+03  0.7818608E-02  0.1318121E+00
          2   -1    0    0  502    0  0.00000000000E+00  0.00000000000E+00  0.17324902395E+04  0.17324902395E+04  0.00000000000E+00 0. -1.
          1   -1    0    0  501    0 -0.00000000000E+00 -0.00000000000E+00 -0.97533717738E+03  0.97533717738E+03  0.00000000000E+00 0. -1.
         25    2    1    2    0    0 -0.71330851162E+02  0.46729614860E+02  0.32759280810E+03  0.36085325750E+03  0.12500511308E+03 0.  0.
          2    1    1    2  501    0  0.12320198227E+03 -0.24636909614E+02 -0.95401395478E+03  0.96225169870E+03  0.00000000000E+00 0. -1.
          1    1    1    2  502    0 -0.51871131107E+02 -0.22092705246E+02  0.13835742088E+04  0.13847224607E+04  0.00000000000E+00 0. -1.
         22    1    3    3    0    0 -0.43228764445E+02  0.19313212843E+02  0.21065034312E+02  0.51821442824E+02  0.00000000000E+00 0.  1.
         22    1    3    3    0    0 -0.28102086717E+02  0.27416402017E+02  0.30652777379E+03  0.30903181467E+03  0.00000000000E+00 0.  1.
</event>
<event>
 7    1  0.7961130E-006  0.8522686E+02  0.7818608E-02  0.1394436E+00
          2   -1    0    0  502    0  0.00000000000E+00  0.00000000000E+00  0.17681167618E+04  0.17681167618E+04  0.00000000000E+00 0. -1.
          1   -1    0    0  501    0 -0.00000000000E+00 -0.00000000000E+00 -0.32876551694E+03  0.32876551694E+03  0.00000000000E+00 0. -1.
         25    2    1    2    0    0  0.57260606374E+02 -0.68174387180E+02  0.55151028618E+03  0.57246379136E+03  0.12499869018E+03 0.  0.
          2    1    1    2  501    0  0.22906478001E+02  0.36860224816E+02 -0.31526503412E+03  0.31823800001E+03  0.00000000000E+00 0. -1.
          1    1    1    2  502    0 -0.80167084375E+02  0.31314162364E+02  0.12031059928E+04  0.12061804873E+04  0.00000000000E+00 0. -1.
         22    1    3    3    0    0 -0.31936049617E+02 -0.33564829123E+02  0.90948874035E+02  0.10206961697E+03  0.00000000000E+00 0. -1.
         22    1    3    3    0    0  0.89196655990E+02 -0.34609558057E+02  0.46056141214E+03  0.47039417439E+03  0.00000000000E+00 0. -1.
</event>
<event>
 7    1  0.7961130E-006  0.1062764E+03  0.7818608E-02  0.1407092E+00
          2   -1    0    0  502    0  0.00000000000E+00  0.00000000000E+00  0.71545236013E+03  0.71545236013E+03  0.00000000000E+00 0. -1.
          1   -1    0    0  501    0 -0.00000000000E+00 -0.00000000000E+00 -0.83235244605E+03  0.83235244605E+03  0.00000000000E+00 0. -1.
         25    2    1    2    0    0 -0.11185088479E+03 -0.57372255676E+02 -0.41319662543E+02  0.18203538095E+03  0.12500947666E+03 0.  0.
          2    1    1    2  501    0  0.30039111214E+02 -0.94399346082E+01 -0.71600279338E+03  0.71669481699E+03  0.00000000000E+00 0. -1.
          1    1    1    2  502    0  0.81811773575E+02  0.66812190284E+02  0.64042237001E+03  0.64907460825E+03  0.00000000000E+00 0. -1.
         22    1    3    3    0    0  0.99452664577E+01 -0.13773700626E+01 -0.46807182068E+02  0.47871889103E+02  0.00000000000E+00 0.  1.
         22    1    3    3    0    0 -0.12179615125E+03 -0.55994885613E+02  0.54875195251E+01  0.13416349184E+03  0.00000000000E+00 0.  1.
</event>
<event>
 7    1  0.7961130E-006  0.8170962E+02  0.7818608E-02  0.1358451E+00
          2   -1    0    0  502    0  0.00000000000E+00  0.00000000000E+00  0.17059787219E+04  0.17059787219E+04  0.00000000000E+00 0. -1.
          1   -1    0    0  501    0 -0.00000000000E+00 -0.00000000000E+00 -0.42904596483E+03  0.42904596483E+03  0.00000000000E+00 0. -1.
         25    2    1    2    0    0  0.64882555076E+02 -0.76407128494E+02  0.36071044141E+03  0.39471011696E+03  0.12504502647E+03 0.  0.
          2    1    1    2  501    0  0.14969105354E+02  0.58931295487E+02 -0.40853646316E+03  0.41303633427E+03  0.00000000000E+00 0. -1.
          1    1    1    2  502    0 -0.79851660429E+02  0.17475833007E+02  0.13247587788E+04  0.13272782355E+04  0.00000000000E+00 0. -1.
         22    1    3    3    0    0  0.15274650330E+02  0.27006598194E+02  0.16479054919E+03  0.16768600535E+03  0.00000000000E+00 0. -1.
         22    1    3    3    0    0  0.49607904746E+02 -0.10341372669E+03  0.19591989223E+03  0.22702411161E+03  0.00000000000E+00 0. -1.
</event>
<event>
 7    1  0.7961130E-006  0.1129055E+03  0.7818608E-02  0.1338873E+00
          2   -1    0    0  502    0  0.00000000000E+00  0.00000000000E+00  0.24994475653E+03  0.24994475653E+03  0.00000000000E+00 0. -1.
          1   -1    0    0  501    0 -0.00000000000E+00 -0.00000000000E+00 -0.48090660325E+03  0.48090660325E+03  0.00000000000E+00 0. -1.
         25    2    1    2    0    0  0.90035670291E+02  0.12193256791E+03 -0.23472322436E+03  0.30609496742E+03  0.12500065594E+03 0.  0.
          2    1    1    2  501    0 -0.55367242226E+02 -0.83148750037E+02 -0.19510857364E+03  0.21919535043E+03  0.00000000000E+00 0. -1.
          1    1    1    2  502    0 -0.34668428065E+02 -0.38783817874E+02  0.19886995129E+03  0.20556104193E+03  0.00000000000E+00 0. -1.
         22    1    3    3    0    0  0.90878038270E+02  0.65936222624E+02 -0.22183171755E+03  0.24862766178E+03  0.00000000000E+00 0. -1.
         22    1    3    3    0    0 -0.84236797925E+00  0.55996345288E+02 -0.12891506812E+02  0.57467305638E+02  0.00000000000E+00 0. -1.
</event>
<event>
 7    1  0.7961130E-006  0.6643213E+02  0.7818608E-02  0.1460481E+00
          2   -1    0    0  502    0  0.00000000000E+00  0.00000000000E+00  0.41064960118E+02  0.41064960118E+02  0.00000000000E+00 0. -1.
          1   -1    0    0  501    0 -0.00000000000E+00 -0.00000000000E+00 -0.81221324379E+03  0.81221324379E+03  0.00000000000E+00 0. -1.
         25    2    1    2    0    0  0.23351773953E+02  0.79471003223E+02 -0.27387927759E+03  0.31224318459E+03  0.12500000770E+03 0.  0.
          2    1    1    2  501    0  0.69924739060E+01 -0.64866265685E+02 -0.50270688868E+03  0.50692281763E+03  0.00000000000E+00 0. -1.
          1    1    1    2  502    0 -0.30344247859E+02 -0.14604737538E+02  0.54378825992E+01  0.34112201685E+02  0.00000000000E+00 0. -1.
         22    1    3    3    0    0  0.40233039328E+02 -0.19724587705E+02 -0.12282942989E+03  0.13074718223E+03  0.00000000000E+00 0. -1.
         22    1    3    3    0    0 -0.16881265376E+02  0.99195590929E+02 -0.15104984770E+03  0.18149600236E+03  0.00000000000E+00 0. -1.
</event>
<event>
 7    1  0.7961130E-006  0.6153779E+02  0.7818608E-02  0.1393970E+00
          2   -1    0    0  502    0  0.00000000000E+00  0.00000000000E+00  0.13985164586E+04  0.13985164586E+04  0.00000000000E+00 0. -1.
          1   -1    0    0  501    0 -0.00000000000E+00 -0.00000000000E+00 -0.92590127725E+02  0.92590127725E+02  0.00000000000E+00 0. -1.
         25    2    1    2    0    0 -0.16788900889E+02 -0.65710247919E+02  0.10712830343E+04  0.10806813834E+04  0.12500083638E+03 0.  0.
          2    1    1    2  501    0 -0.45945886951E+02  0.40937449900E+02 -0.72998622962E+02  0.95476166064E+02  0.00000000000E+00 0. -1.
          1    1    1    2  502    0  0.62734787840E+02  0.24772798019E+02  0.30764191952E+03  0.31494903679E+03  0.00000000000E+00 0. -1.
         22    1    3    3    0    0 -0.54526576311E+00 -0.63849809211E+02  0.21595090601E+03  0.22519300446E+03  0.00000000000E+00 0. -1.
         22    1    3    3    0    0 -0.16243635126E+02 -0.18604387072E+01  0.85533212827E+03  0.85548837898E+03  0.00000000000E+00 0. -1.
</event>
<event>
 7    1  0.7961130E-006  0.8106834E+02  0.7818608E-02  0.1351804E+00
          2   -1    0    0  502    0  0.00000000000E+00  0.00000000000E+00  0.23508731705E+04  0.23508731705E+04  0.00000000000E+00 0. -1.
          1   -1    0    0  501    0 -0.00000000000E+00 -0.00000000000E+00 -0.43576629745E+02  0.43576629745E+02  0.00000000000E+00 0. -1.
         25    2    1    2    0    0 -0.38912070493E+02  0.67119551592E+02  0.10678114138E+03  0.18178427290E+03  0.12499650508E+03 0.  0.
          2    1    1    2  501    0 -0.10452357071E+02 -0.10914519623E+03  0.54705647522E+03  0.55793611884E+03  0.00000000000E+00 0. -1.
          1    1    1    2  502    0  0.49364427564E+02  0.42025644639E+02  0.16534589242E+04  0.16547294085E+04  0.00000000000E+00 0. -1.
         22    1    3    3    0    0  0.15599918736E+02  0.62788193314E+02  0.33459006620E+01  0.64783560688E+02  0.00000000000E+00 0.  1.
         22    1    3    3    0    0 -0.54511989229E+02  0.43313582778E+01  0.10343524072E+03  0.11700071221E+03  0.00000000000E+00 0.  1.
</event>
<event>
 7    1  0.7961130E-006  0.1119284E+03  0.7818608E-02  0.1305554E+00
          2   -1    0    0  502    0  0.00000000000E+00  0.00000000000E+00  0.69238795156E+03  0.69238795156E+03  0.00000000000E+00 0. -1.
          1   -1    0    0  501    0 -0.00000000000E+00 -0.00000000000E+00 -0.40543578818E+03  0.40543578818E+03  0.00000000000E+00 0. -1.
         25    2    1    2    0    0 -0.74481818927E+02  0.80223957650E+02  0.35279969116E+03  0.38996988822E+03  0.12500186760E+03 0.  0.
          2    1    1    2  501    0  0.11382258032E+02 -0.11188807335E+03 -0.37460738645E+03  0.39112554345E+03  0.00000000000E+00 0. -1.
          1    1    1    2  502    0  0.63099560895E+02  0.31664115703E+02  0.30875985867E+03  0.31672830807E+03  0.00000000000E+00 0. -1.
         22    1    3    3    0    0  0.20201883134E+02  0.26384189014E+02  0.19753208661E+03  0.20030768021E+03  0.00000000000E+00 0.  1.
         22    1    3    3    0    0 -0.94683702062E+02  0.53839768636E+02  0.15526760455E+03  0.18966220801E+03  0.00000000000E+00 0.  1.
</event>
<event>
 7    1  0.7961130E-006  0.1411816E+03  0.7818608E-02  0.1241822E+00
          2   -1    0    0  502    0  0.00000000000E+00  0.00000000000E+00  0.29291829514E+03  0.29291829514E+03  0.00000000000E+00 0. -1.
          1   -1    0    0  501    0 -0.00000000000E+00 -0.00000000000E+00 -0.11218602448E+04  0.11218602448E+04  0.00000000000E+00 0. -1.
         25    2    1    2    0    0 -0.48005345366E+02 -0.14764418554E+03 -0.22839735885E+03  0.30314119302E+03  0.12500364260E+03 0.  0.
          2    1    1    2  501    0 -0.73438794521E+02  0.72676159324E+02 -0.83271942315E+03  0.83910471240E+03  0.00000000000E+00 0. -1.
          1    1    1    2  502    0  0.12144413989E+03  0.74968026219E+02  0.23217483238E+03  0.27253263448E+03  0.00000000000E+00 0. -1.
         22    1    3    3    0    0 -0.36968909993E+02 -0.45427225130E+02 -0.69353008550E+01  0.58978228925E+02  0.00000000000E+00 0. -1.
         22    1    3    3    0    0 -0.11036435373E+02 -0.10221696041E+03 -0.22146205800E+03  0.24416296409E+03  0.00000000000E+00 0. -1.
</event>
<event>
 7    1  0.7961130E-006  0.7572512E+02  0.7818608E-02  0.1430510E+00
          2   -1    0    0  502    0  0.00000000000E+00  0.00000000000E+00  0.79725378699E+02  0.79725378699E+02  0.00000000000E+00 0. -1.
          1   -1    0    0  501    0 -0.00000000000E+00 -0.00000000000E+00 -0.14433066634E+04  0.14433066634E+04  0.00000000000E+00 0. -1.
         25    2    1    2    0    0  0.51293317191E+02 -0.31704045084E+02 -0.28539742041E+03  0.31735287623E+03  0.12500003845E+03 0.  0.
          2    1    1    2  501    0 -0.11846042246E+02 -0.34942336948E+02 -0.11179926033E+04  0.11186012500E+04  0.00000000000E+00 0. -1.
          1    1    1    2  502    0 -0.39447274946E+02  0.66646382032E+02  0.39808738929E+02  0.87077915878E+02  0.00000000000E+00 0. -1.
         22    1    3    3    0    0  0.58624410860E+02  0.37220838906E+02 -0.13960039565E+03  0.15591819285E+03  0.00000000000E+00 0. -1.
         22    1    3    3    0    0 -0.73310936691E+01 -0.68924883990E+02 -0.14579702477E+03  0.16143468338E+03  0.00000000000E+00 0. -1.
</event>
<event>
 7    1  0.7961130E-006  0.9709376E+02  0.7818608E-02  0.1391996E+00
          2   -1    0    0  502    0  0.00000000000E+00  0.00000000000E+00  0.12831341469E+04  0.12831341469E+04  0.00000000000E+00 0. -1.
          1   -1    0    0  501    0 -0.00000000000E+00 -0.00000000000E+00 -0.42218497544E+03  0.42218497544E+03  0.00000000000E+00 0. -1.
         25    2    1    2    0    0 -0.10714863263E+03  0.22549869471E+02 -0.35428044266E+03  0.39131672813E+03  0.12499929430E+03 0.  0.
          2    1    1    2  501    0  0.25236626451E+02  0.29529763699E+02 -0.39572490135E+02  0.55451566562E+02  0.00000000000E+00 0. -1.
          1    1    1    2  502    0  0.81912006176E+02 -0.52079633169E+02  0.12548021042E+04  0.12585508276E+04  0.00000000000E+00 0. -1.
         22    1    3    3    0    0 -0.61728361727E+02 -0.46804138567E+02 -0.22278410269E+03  0.23586812934E+03  0.00000000000E+00 0.  1.
         22    1    3    3    0    0 -0.45420270900E+02  0.69354008038E+02 -0.13149633997E+03  0.15544859879E+03  0.00000000000E+00 0.  1.
</event>
<event>
 7    1  0.7961130E-006  0.8521089E+02  0.7818608E-02  0.1444851E+00
          2   -1    0    0  502    0  0.00000000000E+00  0.00000000000E+00  0.17053919805E+03  0.17053919805E+03  0.00000000000E+00 0. -1.
          1   -1    0    0  501    0 -0.00000000000E+00 -0.00000000000E+00 -0.18321475546E+04  0.18321475546E+04  0.00000000000E+00 0. -1.
         25    2    1    2    0    0  0.92317856613E+02  0.42935704455E+02 -0.12226959450E+03  0.20234010100E+03  0.12500240544E+03 0.  0.
          2    1    1    2  501    0 -0.83547258366E+02 -0.14826235050E+02 -0.16670888416E+04  0.16692468863E+04  0.00000000000E+00 0. -1.
          1    1    1    2  502    0 -0.87705982476E+01 -0.28109469405E+02  0.12775007953E+03  0.13109976538E+03  0.00000000000E+00 0. -1.
         22    1    3    3    0    0  0.46051901235E+02  0.35890012699E+02  0.12471784050E+02  0.59702730393E+02  0.00000000000E+00 0.  1.
         22    1    3    3    0    0  0.46265955378E+02  0.70456917555E+01 -0.13474137855E+03  0.14263737061E+03  0.00000000000E+00 0.  1.
</event>
<event>
 7    1  0.7961130E-006  0.1644293E+03  0.7818608E-02  0.1313517E+00
          2   -1    0    0  502    0  0.00000000000E+00  0.00000000000E+00  0.28887394802E+02  0.28887394802E+02  0.00000000000E+00 0. -1.
          1   -1    0    0  501    0 -0.00000000000E+00 -0.00000000000E+00 -0.21417581233E+04  0.21417581233E+04  0.00000000000E+00 0. -1.
         25    2    1    2    0    0  0.10253300186E+03  0.10946509623E+03 -0.98151873548E+03  0.10007500049E+04  0.12500368206E+03 0.  0.
          2    1    1    2  501    0 -0.14607068567E+03 -0.99315902803E+02 -0.11027873883E+04  0.11168439092E+04  0.00000000000E+00 0. -1.
          1    1    1    2  502    0  0.43537683803E+02 -0.10149193429E+02 -0.28564604715E+02  0.53051603941E+02  0.00000000000E+00 0. -1.
         22    1    3    3    0    0  0.43501896271E+02 -0.22350176539E+02 -0.31390585952E+03  0.31769298704E+03  0.00000000000E+00 0.  1.
         22    1    3    3    0    0  0.59031105593E+02  0.13181527277E+03 -0.66761287595E+03  0.68305701790E+03  0.00000000000E+00 0.  1.
</event>
<event>
 7    1  0.1376650E-005  0.1168312E+03  0.7818608E-02  0.1368345E+00
          2   -1    0    0  502    0  0.00000000000E+00  0.00000000000E+00  0.12411313586E+04  0.12411313586E+04  0.00000000000E+00 0. -1.
          1   -1    0    0  501    0 -0.00000000000E+00 -0.00000000000E+00 -0.12766489444E+04  0.12766489444E+04  0.00000000000E+00 0. -1.
         25    2    1    2    0    0 -0.10868828771E+03 -0.42353073481E+02 -0.71349508321E+03  0.73369368494E+03  0.12499705129E+03 0.  0.
          2    1    1    2  501    0  0.19951992711E+02 -0.33682548632E+02 -0.54958351995E+03  0.55097608069E+03  0.00000000000E+00 0. -1.
          1    1    1    2  502    0  0.88736295004E+02  0.76035622114E+02  0.12275610173E+04  0.12331105373E+04  0.00000000000E+00 0. -1.
         22    1    3    3    0    0 -0.51199338616E+02 -0.84763633308E+02 -0.44194813382E+03  0.45290661155E+03  0.00000000000E+00 0.  1.
         22    1    3    3    0    0 -0.57488949099E+02  0.42410559826E+02 -0.27154694940E+03  0.28078707338E+03  0.00000000000E+00 0.  1.
</event>
<event>
 7    1  0.7961130E-006  0.2199582E+03  0.7818608E-02  0.1230559E+00
          2   -1    0    0  502    0  0.00000000000E+00  0.00000000000E+00  0.96618835907E+03  0.96618835907E+03  0.00000000000E+00 0. -1.
          1   -1    0    0  501    0 -0.00000000000E+00 -0.00000000000E+00 -0.86946133923E+03  0.86946133923E+03  0.00000000000E+00 0. -1.
         25    2    1    2    0    0 -0.11221298395E+03 -0.20769628143E+03  0.17955289211E+03  0.32186034401E+03  0.12500136359E+03 0.  0.
          2    1    1    2  501    0  0.15991856666E+03  0.15059598311E+03 -0.78118275357E+03  0.81147987810E+03  0.00000000000E+00 0. -1.
          1    1    1    2  502    0 -0.47705582707E+02  0.57100298320E+02  0.69835688130E+03  0.70230947619E+03  0.00000000000E+00 0. -1.
         22    1    3    3    0    0 -0.81808027419E+02 -0.17749894301E+03  0.19521264007E+03  0.27623613624E+03  0.00000000000E+00 0. -1.
         22    1    3    3    0    0 -0.30404956529E+02 -0.30197338414E+02 -0.15659747961E+02  0.45624207775E+02  0.00000000000E+00 0. -1.
</event>
<event>
 7    1  0.7961130E-006  0.9923443E+02  0.7818608E-02  0.1334092E+00
          2   -1    0    0  502    0  0.00000000000E+00  0.00000000000E+00  0.14638002911E+04  0.14638002911E+04  0.00000000000E+00 0. -1.
          1   -1    0    0  501    0 -0.00000000000E+00 -0.00000000000E+00 -0.19584934038E+02  0.19584934038E+02  0.00000000000E+00 0. -1.
         25    2    1    2    0    0 -0.13523435916E+02 -0.24299968028E+01  0.49380248648E+03  0.50956301859E+03  0.12499914419E+03 0.  0.
          2    1    1    2  501    0  0.10677672170E+03  0.36360770286E+02  0.52694263397E+03  0.53888024032E+03  0.00000000000E+00 0. -1.
          1    1    1    2  502    0 -0.93253285781E+02 -0.33930773483E+02  0.42347023660E+03  0.43494196623E+03  0.00000000000E+00 0. -1.
         22    1    3    3    0    0  0.12698052067E+02 -0.58707383060E+02  0.18252096172E+03  0.19215019860E+03  0.00000000000E+00 0. -1.
         22    1    3    3    0    0 -0.26221487983E+02  0.56277386257E+02  0.31128152476E+03  0.31741281999E+03  0.00000000000E+00 0. -1.
</event>
<event>
 7    1  0.7961130E-006  0.2514067E+02  0.7818608E-02  0.1689252E+00
          2   -1    0    0  502    0  0.00000000000E+00  0.00000000000E+00  0.41281474219E+03  0.41281474219E+03  0.00000000000E+00 0. -1.
          1   -1    0    0  501    0 -0.00000000000E+00 -0.00000000000E+00 -0.12004668857E+04  0.12004668857E+04  0.00000000000E+00 0. -1.
         25    2    1    2    0    0  0.32942307212E+02 -0.67022976794E+01 -0.15911810670E+03  0.20511606332E+03  0.12499564453E+03 0.  0.
          2    1    1    2  501    0 -0.22239075130E+02 -0.11711386736E+02 -0.10179036317E+04  0.10182138952E+04  0.00000000000E+00 0. -1.
          1    1    1    2  502    0 -0.10703232082E+02  0.18413684415E+02  0.38936959492E+03  0.38995166931E+03  0.00000000000E+00 0. -1.
         22    1    3    3    0    0  0.54563891431E+02  0.10072822785E+02 -0.13709133802E+02  0.57154355535E+02  0.00000000000E+00 0.  1.
         22    1    3    3    0    0 -0.21621584219E+02 -0.16775120464E+02 -0.14540897290E+03  0.14796170778E+03  0.00000000000E+00 0.  1.
</event>
<event>
 7    1  0.7961130E-006  0.7317968E+02  0.7818608E-02  0.1419514E+00
          2   -1    0    0  502    0  0.00000000000E+00  0.00000000000E+00  0.42467669984E+03  0.42467669984E+03  0.00000000000E+00 0. -1.
          1   -1    0    0  501    0 -0.00000000000E+00 -0.00000000000E+00 -0.11522872248E+04  0.11522872248E+04  0.00000000000E+00 0. -1.
         25    2    1    2    0    0 -0.12096087627E+02  0.30371739758E+02 -0.45002922940E+03  0.46820683724E+03  0.12499030847E+03 0.  0.
          2    1    1    2  501    0 -0.25615724760E+02  0.32680399186E+02 -0.68929246845E+03  0.69054201966E+03  0.00000000000E+00 0. -1.
          1    1    1    2  502    0  0.37711812387E+02 -0.63052138944E+02  0.41171117289E+03  0.41821506776E+03  0.00000000000E+00 0. -1.
         22    1    3    3    0    0  0.40178512044E+02  0.11771307732E+01 -0.52126691536E+02  0.65824694738E+02  0.00000000000E+00 0. -1.
         22    1    3    3    0    0 -0.52274599671E+02  0.29194608985E+02 -0.39790253787E+03  0.40238214250E+03  0.00000000000E+00 0. -1.
</event>
<event>
 7    1  0.7961130E-006  0.9525070E+02  0.7818608E-02  0.1374606E+00
          2   -1    0    0  502    0  0.00000000000E+00  0.00000000000E+00  0.25017935444E+03  0.25017935444E+03  0.00000000000E+00 0. -1.
          1   -1    0    0  501    0 -0.00000000000E+00 -0.00000000000E+00 -0.28905406568E+04  0.28905406568E+04  0.00000000000E+00 0. -1.
         25    2    1    2    0    0 -0.53140966605E+02 -0.28001954361E+02 -0.59441313704E+03  0.61038522821E+03  0.12504030369E+03 0.  0.
          2    1    1    2  501    0  0.98187935328E+02  0.20934481852E+02 -0.22848831910E+04  0.22870877376E+04  0.00000000000E+00 0. -1.
          1    1    1    2  502    0 -0.45046968723E+02  0.70674725089E+01  0.23893502571E+03  0.24324704535E+03  0.00000000000E+00 0. -1.
         22    1    3    3    0    0 -0.71125268731E+02  0.27797108205E+02 -0.40390759316E+03  0.41106304491E+03  0.00000000000E+00 0.  1.
         22    1    3    3    0    0  0.17984302126E+02 -0.55799062566E+02 -0.19050554388E+03  0.19932218330E+03  0.00000000000E+00 0.  1.
</event>
<event>
 7    1  0.7961130E-006  0.4177161E+02  0.7818608E-02  0.1593151E+00
          2   -1    0    0  502    0  0.00000000000E+00  0.00000000000E+00  0.24803066139E+03  0.24803066139E+03  0.00000000000E+00 0. -1.
          1   -1    0    0  501    0 -0.00000000000E+00 -0.00000000000E+00 -0.11096283242E+04  0.11096283242E+04  0.00000000000E+00 0. -1.
         25    2    1    2    0    0  0.13207122832E+02 -0.27716287049E+02 -0.29351221735E+03  0.32049521048E+03  0.12500055020E+03 0.  0.
          2    1    1    2  501    0  0.21712599865E+02  0.46219566164E+01 -0.80060125379E+03  0.80090896302E+03  0.00000000000E+00 0. -1.
          1    1    1    2  502    0 -0.34919722697E+02  0.23094330433E+02  0.23251580830E+03  0.23625481210E+03  0.00000000000E+00 0. -1.
         22    1    3    3    0    0  0.34117419743E+02 -0.53458130365E+02 -0.69675280610E+02  0.94214726875E+02  0.00000000000E+00 0. -1.
         22    1    3    3    0    0 -0.20910296911E+02  0.25741843316E+02 -0.22383693674E+03  0.22628048361E+03  0.00000000000E+00 0. -1.
</event>
<event>
 7    1  0.7961130E-006  0.1475874E+03  0.7818608E-02  0.1239171E+00
          2   -1    0    0  502    0  0.00000000000E+00  0.00000000000E+00  0.12103186142E+04  0.12103186142E+04  0.00000000000E+00 0. -1.
          1   -1    0    0  501    0 -0.00000000000E+00 -0.00000000000E+00 -0.87916871513E+03  0.87916871513E+03  0.00000000000E+00 0. -1.
         25    2    1    2    0    0 -0.65058239425E+02 -0.18149239618E+03  0.14993560248E+03  0.27436559924E+03  0.12499493097E+03 0.  0.
          2    1    1    2  501    0 -0.48075522609E+02  0.89426697928E+02 -0.80843281666E+03  0.81478341247E+03  0.00000000000E+00 0. -1.
          1    1    1    2  502    0  0.11313376203E+03  0.92065698251E+02  0.98964711331E+03  0.10003383177E+04  0.00000000000E+00 0. -1.
         22    1    3    3    0    0 -0.91350890022E+02 -0.15193313043E+03  0.81054036318E+02  0.19493182920E+03  0.00000000000E+00 0.  1.
         22    1    3    3    0    0  0.26292650597E+02 -0.29559265749E+02  0.68881566158E+02  0.79433770044E+02  0.00000000000E+00 0.  1.
</event>
<event>
 7    1  0.7961130E-006  0.1353089E+03  0.7818608E-02  0.1328132E+00
          2   -1    0    0  502    0  0.00000000000E+00  0.00000000000E+00  0.34990673299E+03  0.34990673299E+03  0.00000000000E+00 0. -1.
          1   -1    0    0  501    0 -0.00000000000E+00 -0.00000000000E+00 -0.35538549705E+03  0.35538549705E+03  0.00000000000E+00 0. -1.
         25    2    1    2    0    0 -0.85256093915E+02  0.99996893239E+02  0.18089897260E+03  0.25615813365E+03  0.12499828374E+03 0.  0.
          2    1    1    2  501    0  0.46575815926E+02 -0.12788232774E+03 -0.29807928199E+03  0.32768041554E+03  0.00000000000E+00 0. -1.
          1    1    1    2  502    0  0.38680277989E+02  0.27885434505E+02  0.11170154533E+03  0.12145368085E+03  0.00000000000E+00 0. -1.
         22    1    3    3    0    0 -0.87443977904E+00 -0.76844003689E+01 -0.15200286501E+02  0.17054716757E+02  0.00000000000E+00 0. -1.
         22    1    3    3    0    0 -0.84381654136E+02  0.10768129361E+03  0.19609925910E+03  0.23910341689E+03  0.00000000000E+00 0. -1.
</event>
<event>
 7    1  0.7961130E-006  0.6848301E+02  0.7818608E-02  0.1400640E+00
          2   -1    0    0  502    0  0.00000000000E+00  0.00000000000E+00  0.23442809694E+02  0.23442809694E+02  0.00000000000E+00 0. -1.
          1   -1    0    0  501    0 -0.00000000000E+00 -0.00000000000E+00 -0.21815854615E+04  0.21815854615E+04  0.00000000000E+00 0. -1.
         25    2    1    2    0    0 -0.33122486068E+01 -0.21827447133E+02 -0.48480517781E+03  0.50114761337E+03  0.12500184604E+03 0.  0.
          2    1    1    2  501    0  0.21726082831E+02  0.69827016422E+02 -0.16420928812E+04  0.16437204341E+04  0.00000000000E+00 0. -1.
          1    1    1    2  502    0 -0.18413834224E+02 -0.47999569289E+02 -0.31244592789E+02  0.60160223747E+02  0.00000000000E+00 0. -1.
         22    1    3    3    0    0  0.50059540313E+02 -0.45992040545E+02 -0.27934024202E+03  0.28749294979E+03  0.00000000000E+00 0. -1.
         22    1    3    3    0    0 -0.53371788920E+02  0.24164593413E+02 -0.20546493580E+03  0.21365466358E+03  0.00000000000E+00 0. -1.
</event>
<event>
 7    1  0.7961130E-006  0.1000108E+03  0.7818608E-02  0.1283449E+00
          2   -1    0    0  502    0  0.00000000000E+00  0.00000000000E+00  0.14178982001E+04  0.14178982001E+04  0.00000000000E+00 0. -1.
          1   -1    0    0  501    0 -0.00000000000E+00 -0.00000000000E+00 -0.39207850118E+02  0.39207850118E+02  0.00000000000E+00 0. -1.
         25    2    1    2    0    0 -0.35707797243E+02  0.95776879852E+02  0.19358267008E+03  0.25208743435E+03  0.12500226759E+03 0.  0.
          2    1    1    2  501    0 -0.65739400190E+02 -0.71383847246E+02  0.34273360242E+03  0.35620730567E+03  0.00000000000E+00 0. -1.
          1    1    1    2  502    0  0.10144719743E+03 -0.24393032605E+02  0.84237407749E+03  0.84881131021E+03  0.00000000000E+00 0. -1.
         22    1    3    3    0    0 -0.40329567800E+02  0.82637609970E+02  0.44143333246E+02  0.10200040437E+03  0.00000000000E+00 0. -1.
         22    1    3    3    0    0  0.46217705575E+01  0.13139269881E+02  0.14943933683E+03  0.15008702998E+03  0.00000000000E+00 0. -1.
</event>
<event>
 7    1  0.7961130E-006  0.1047533E+03  0.7818608E-02  0.1287939E+00
          2   -1    0    0  502    0  0.00000000000E+00  0.00000000000E+00  0.25191627521E+03  0.25191627521E+03  0.00000000000E+00 0. -1.
          1   -1    0    0  501    0 -0.00000000000E+00 -0.00000000000E+00 -0.13536808313E+04  0.13536808313E+04  0.00000000000E+00 0. -1.
         25    2    1    2    0    0 -0.36856416476E+02  0.25097061999E+02 -0.36423151370E+01  0.13276551572E+03  0.12500063099E+03 0.  0.
          2    1    1    2  501    0 -0.18404005707E+02  0.86880235098E+02 -0.12629367059E+04  0.12660552933E+04  0.00000000000E+00 0. -1.
          1    1    1    2  502    0  0.55260422183E+02 -0.11197729710E+03  0.16481446496E+03  0.20677629745E+03  0.00000000000E+00 0. -1.
         22    1    3    3    0    0 -0.69432055331E+01  0.38226885289E+01 -0.62716762097E+02  0.63215609612E+02  0.00000000000E+00 0.  1.
         22    1    3    3    0    0 -0.29913210943E+02  0.21274373471E+02  0.59074446961E+02  0.69549906105E+02  0.00000000000E+00 0.  1.
</event>
<event>
 7    1  0.7961130E-006  0.8906376E+02  0.7818608E-02  0.1374962E+00
          2   -1    0    0  502    0  0.00000000000E+00  0.00000000000E+00  0.25784353166E+04  0.25784353166E+04  0.00000000000E+00 0. -1.
          1   -1    0    0  501    0 -0.00000000000E+00 -0.00000000000E+00 -0.11742125628E+03  0.11742125628E+03  0.00000000000E+00 0. -1.
         25    2    1    2    0    0  0.56243792526E+02 -0.41398786149E+01  0.12378399203E+03  0.18473805842E+03  0.12500068302E+03 0.  0.
          2    1    1    2  501    0 -0.90249932607E+02 -0.30613046325E+02 -0.60508459405E+02  0.11288703469E+03  0.00000000000E+00 0. -1.
          1    1    1    2  502    0  0.34006140081E+02  0.34752924940E+02  0.23977385277E+04  0.23982314798E+04  0.00000000000E+00 0. -1.
         22    1    3    3    0    0 -0.16219864477E+02  0.16475935431E+01 -0.18683129320E+02  0.24796328142E+02  0.00000000000E+00 0.  1.
         22    1    3    3    0    0  0.72463657004E+02 -0.57874721580E+01  0.14246712135E+03  0.15994173028E+03  0.00000000000E+00 0.  1.
</event>
<event>
 7    1  0.7961130E-006  0.6982491E+02  0.7818608E-02  0.1447554E+00
          2   -1    0    0  502    0  0.00000000000E+00  0.00000000000E+00  0.12574234424E+04  0.12574234424E+04  0.00000000000E+00 0. -1.
          1   -1    0    0  501    0 -0.00000000000E+00 -0.00000000000E+00 -0.80370331385E+03  0.80370331385E+03  0.00000000000E+00 0. -1.
         25    2    1    2    0    0  0.91839781224E+02 -0.23397454594E+02  0.36058416816E+03  0.39322769643E+03  0.12500037044E+03 0.  0.
          2    1    1    2  501    0 -0.23794459461E+02  0.25969675381E+02 -0.78566990546E+03  0.78645902671E+03  0.00000000000E+00 0. -1.
          1    1    1    2  502    0 -0.68045321763E+02 -0.25722207870E+01  0.87880586581E+03  0.88144003308E+03  0.00000000000E+00 0. -1.
         22    1    3    3    0    0  0.91343835501E+02  0.14668163097E+02  0.33455539122E+03  0.34711116532E+03  0.00000000000E+00 0.  1.
         22    1    3    3    0    0  0.49594572345E+00 -0.38065617691E+02  0.26028776939E+02  0.46116531106E+02  0.00000000000E+00 0.  1.
</event>
<event>
 7    1  0.7961130E-006  0.1261750E+03  0.7818608E-02  0.1384873E+00
          2   -1    0    0  502    0  0.00000000000E+00  0.00000000000E+00  0.32360292758E+03  0.32360292758E+03  0.00000000000E+00 0. -1.
          1   -1    0    0  501    0 -0.00000000000E+00 -0.00000000000E+00 -0.23946695214E+03  0.23946695214E+03  0.00000000000E+00 0. -1.
         25    2    1    2    0    0  0.15327396508E+02  0.12477051718E+03 -0.11028532364E+03  0.20878682685E+03  0.12500590151E+03 0.  0.
          2    1    1    2  501    0  0.16195676155E+02 -0.12767334917E+03 -0.26255372275E+02  0.13134735851E+03  0.00000000000E+00 0. -1.
          1    1    1    2  502    0 -0.31523072663E+02  0.29028319884E+01  0.22067667135E+03  0.22293569437E+03  0.00000000000E+00 0. -1.
         22    1    3    3    0    0 -0.12844544707E+02  0.13908074737E+03 -0.10898596102E+03  0.17716200585E+03  0.00000000000E+00 0. -1.
         22    1    3    3    0    0  0.28171941215E+02 -0.14310230188E+02 -0.12993626219E+01  0.31624820997E+02  0.00000000000E+00 0. -1.
</event>
<event>
 7    1  0.7961130E-006  0.8951030E+02  0.7818608E-02  0.1456271E+00
          2   -1    0    0  502    0  0.00000000000E+00  0.00000000000E+00  0.47850781531E+03  0.47850781531E+03  0.00000000000E+00 0. -1.
          1   -1    0    0  501    0 -0.00000000000E+00 -0.00000000000E+00 -0.40250469124E+03  0.40250469124E+03  0.00000000000E+00 0. -1.
         25    2    1    2    0    0 -0.56340102443E+02  0.32004727668E+02  0.21712677844E+03  0.25878059162E+03  0.12499938780E+03 0.  0.
          2    1    1    2  501    0  0.75197934301E+02 -0.49570251867E+02 -0.37564873224E+03  0.38629510640E+03  0.00000000000E+00 0. -1.
          1    1    1    2  502    0 -0.18857831857E+02  0.17565524198E+02  0.23452507788E+03  0.23593680852E+03  0.00000000000E+00 0. -1.
         22    1    3    3    0    0  0.19163626335E+02  0.27551903010E+02  0.54549671168E+01  0.34001597022E+02  0.00000000000E+00 0. -1.
         22    1    3    3    0    0 -0.75503728779E+02  0.44528246581E+01  0.21167181132E+03  0.22477899460E+03  0.00000000000E+00 0. -1.
</event>
<event>
 7    1  0.7961130E-006  0.8156102E+02  0.7818608E-02  0.1394740E+00
          2   -1    0    0  502    0  0.00000000000E+00  0.00000000000E+00  0.54625997386E+03  0.54625997386E+03  0.00000000000E+00 0. -1.
          1   -1    0    0  501    0 -0.00000000000E+00 -0.00000000000E+00 -0.39066244811E+03  0.39066244811E+03  0.00000000000E+00 0. -1.
         25    2    1    2    0    0  0.59800039464E+02 -0.51668420326E+01 -0.50127054328E+02  0.14744529438E+03  0.12499860913E+03 0.  0.
          2    1    1    2  501    0 -0.69596846411E+02  0.49331982864E+02 -0.28457940134E+03  0.29709056066E+03  0.00000000000E+00 0. -1.
          1    1    1    2  502    0  0.97968069466E+01 -0.44165140831E+02  0.49030398142E+03  0.49238656693E+03  0.00000000000E+00 0. -1.
         22    1    3    3    0    0  0.22638728291E+02 -0.15705783360E+02 -0.88685452023E+02  0.92867071937E+02  0.00000000000E+00 0.  1.
         22    1    3    3    0    0  0.37161311173E+02  0.10538941327E+02  0.38558397695E+02  0.54578222445E+02  0.00000000000E+00 0.  1.
</event>
<event>
 7    1  0.7961130E-006  0.1524261E+03  0.7818608E-02  0.1229496E+00
          2   -1    0    0  502    0  0.00000000000E+00  0.00000000000E+00  0.35418481650E+03  0.35418481650E+03  0.00000000000E+00 0. -1.
          1   -1    0    0  501    0 -0.00000000000E+00 -0.00000000000E+00 -0.99100416450E+03  0.99100416450E+03  0.00000000000E+00 0. -1.
         25    2    1    2    0    0  0.10980653948E+03  0.10046505148E+03 -0.57203539134E+03  0.60415313544E+03  0.12500327770E+03 0.  0.
          2    1    1    2  501    0 -0.29692112118E+02 -0.17371913392E+03 -0.37393176343E+03  0.41338229608E+03  0.00000000000E+00 0. -1.
          1    1    1    2  502    0 -0.80114427360E+02  0.73254082443E+02  0.30914780676E+03  0.32765354949E+03  0.00000000000E+00 0. -1.
         22    1    3    3    0    0  0.17045879647E+02  0.98997932006E+02 -0.26468683154E+03  0.28310823256E+03  0.00000000000E+00 0. -1.
         22    1    3    3    0    0  0.92760659830E+02  0.14671194716E+01 -0.30734855979E+03  0.32104490287E+03  0.00000000000E+00 0. -1.
</event>
<event>
 7    1  0.7961130E-006  0.2591680E+03  0.7818608E-02  0.1183884E+00
          2   -1    0    0  502    0  0.00000000000E+00  0.00000000000E+00  0.42279471343E+03  0.42279471343E+03  0.00000000000E+00 0. -1.
          1   -1    0    0  501    0 -0.00000000000E+00 -0.00000000000E+00 -0.17195750595E+04  0.17195750595E+04  0.00000000000E+00 0. -1.
         25    2    1    2    0    0  0.19366792048E+03  0.23256004761E+03 -0.39823494935E+03  0.51556544895E+03  0.12500087238E+03 0.  0.
          2    1    1    2  501    0 -0.21610590253E+03 -0.13079795663E+03 -0.12422380976E+04  0.12676613735E+04  0.00000000000E+00 0. -1.
          1    1    1    2  502    0  0.22437982052E+02 -0.10176209098E+03  0.34369270095E+03  0.35914295049E+03  0.00000000000E+00 0. -1.
         22    1    3    3    0    0  0.98511688339E+02  0.18106296923E+03 -0.18736288075E+03  0.27855556115E+03  0.00000000000E+00 0.  1.
         22    1    3    3    0    0  0.95156232139E+02  0.51497078388E+02 -0.21087206860E+03  0.23700988780E+03  0.00000000000E+00 0.  1.
</event>
<event>
 7    1  0.7961130E-006  0.1361474E+03  0.7818608E-02  0.1271918E+00
          2   -1    0    0  502    0  0.00000000000E+00  0.00000000000E+00  0.12925999279E+04  0.12925999279E+04  0.00000000000E+00 0. -1.
          1   -1    0    0  501    0 -0.00000000000E+00 -0.00000000000E+00 -0.17670453936E+04  0.17670453936E+04  0.00000000000E+00 0. -1.
         25    2    1    2    0    0 -0.30090645415E+02 -0.19397118189E+03 -0.59233515972E+02  0.24013321764E+03  0.12500034582E+03 0.  0.
          2    1    1    2  501    0 -0.20962683863E+02  0.13291999812E+03 -0.16132406328E+04  0.16188429508E+04  0.00000000000E+00 0. -1.
          1    1    1    2  502    0  0.51053329278E+02  0.61051183773E+02  0.11980286831E+04  0.12006691530E+04  0.00000000000E+00 0. -1.
         22    1    3    3    0    0 -0.71949353476E+02 -0.16292448751E+03 -0.30742132648E+02  0.18073786769E+03  0.00000000000E+00 0.  1.
         22    1    3    3    0    0  0.41858708061E+02 -0.31046694376E+02 -0.28491383324E+02  0.59395349952E+02  0.00000000000E+00 0.  1.
</event>
<event>
 7    1  0.7961130E-006  0.1992075E+03  0.7818608E-02  0.1178708E+00
          2   -1    0    0  502    0  0.00000000000E+00  0.00000000000E+00  0.40653488952E+03  0.40653488952E+03  0.00000000000E+00 0. -1.
          1   -1    0    0  501    0 -0.00000000000E+00 -0.00000000000E+00 -0.16379531549E+04  0.16379531549E+04  0.00000000000E+00 0. -1.
         25    2    1    2    0    0  0.39710684994E+02 -0.21794106528E+03  0.92600247514E+02  0.27069303882E+03  0.12499867595E+03 0.  0.
          2    1    1    2  501    0  0.11581756792E+03  0.85022447830E+02 -0.14982178248E+04  0.15050910857E+04  0.00000000000E+00 0. -1.
          1    1    1    2  502    0 -0.15552825291E+03  0.13291861745E+03  0.17419931190E+03  0.26870391993E+03  0.00000000000E+00 0. -1.
         22    1    3    3    0    0 -0.36673801013E+02 -0.23404817499E+02  0.28807717216E+02  0.52178901235E+02  0.00000000000E+00 0.  1.
         22    1    3    3    0    0  0.76384486006E+02 -0.19453624778E+03  0.63792530298E+02  0.21851413759E+03  0.00000000000E+00 0.  1.
</event>
<event>
 7    1  0.7961130E-006  0.2737089E+03  0.7818608E-02  0.1211702E+00
          2   -1    0    0  502    0  0.00000000000E+00  0.00000000000E+00  0.89924301117E+03  0.89924301117E+03  0.00000000000E+00 0. -1.
          1   -1    0    0  501    0 -0.00000000000E+00 -0.00000000000E+00 -0.76611586053E+03  0.76611586053E+03  0.00000000000E+00 0. -1.
         25    2    1    2    0    0 -0.23150901043E+03 -0.17796154160E+01  0.99642170029E+02  0.28134178738E+03  0.12500020135E+03 0.  0.
          2    1    1    2  501    0 -0.51884280632E+02 -0.51150433154E+02 -0.64380923147E+03  0.64791872323E+03  0.00000000000E+00 0. -1.
          1    1    1    2  502    0  0.28339329107E+03  0.52930048570E+02  0.67729421209E+03  0.73609836108E+03  0.00000000000E+00 0. -1.
         22    1    3    3    0    0 -0.35692889005E+02  0.52985195517E+01 -0.29550741474E+02  0.46640143189E+02  0.00000000000E+00 0.  1.
         22    1    3    3    0    0 -0.19581612143E+03 -0.70781349677E+01  0.12919291150E+03  0.23470164420E+03  0.00000000000E+00 0.  1.
</event>
<event>
 7    1  0.7961130E-006  0.6122714E+02  0.7818608E-02  0.1417234E+00
          2   -1    0    0  502    0  0.00000000000E+00  0.00000000000E+00  0.42558816164E+04  0.42558816164E+04  0.00000000000E+00 0. -1.
          1   -1    0    0  501    0 -0.00000000000E+00 -0.00000000000E+00 -0.16641227925E+04  0.16641227925E+04  0.00000000000E+00 0. -1.
         25    2    1    2    0    0 -0.45356566136E+02 -0.10169869341E+03 -0.66371466216E+03  0.68450118620E+03  0.12499951526E+03 0.  0.
          2    1    1    2  501    0  0.16389893121E+02  0.47775627116E+02 -0.98914984164E+03  0.99043856365E+03  0.00000000000E+00 0. -1.
          1    1    1    2  502    0  0.28966673015E+02  0.53923066293E+02  0.42446233277E+04  0.42450646590E+04  0.00000000000E+00 0. -1.
         22    1    3    3    0    0 -0.45729653019E+02 -0.13063593917E+03 -0.54199833323E+03  0.55939176164E+03  0.00000000000E+00 0. -1.
         22    1    3    3    0    0  0.37308688325E+00  0.28937245760E+02 -0.12171632893E+03  0.12510942456E+03  0.00000000000E+00 0. -1.
</event>
<event>
 7    1  0.7961130E-006  0.1615714E+03  0.7818608E-02  0.1277136E+00
          2   -1    0    0  502    0  0.00000000000E+00  0.00000000000E+00  0.86554487897E+03  0.86554487897E+03  0.00000000000E+00 0. -1.
          1   -1    0    0  501    0 -0.00000000000E+00 -0.00000000000E+00 -0.19750717190E+03  0.19750717190E+03  0.00000000000E+00 0. -1.
         25    2    1    2    0    0 -0.90098614412E+02 -0.62781260869E+02  0.27781839870E+03  0.32382731920E+03  0.12498729122E+03 0.  0.
          2    1    1    2  501    0  0.11944039680E+03  0.11941727381E+03 -0.13123082094E+03  0.21388787258E+03  0.00000000000E+00 0. -1.
          1    1    1    2  502    0 -0.29341782388E+02 -0.56636012942E+02  0.52145012932E+03  0.52533685909E+03  0.00000000000E+00 0. -1.
         22    1    3    3    0    0 -0.79032939867E+02 -0.85244341416E+02  0.13206015299E+03  0.17593375837E+03  0.00000000000E+00 0. -1.
         22    1    3    3    0    0 -0.11065674544E+02  0.22463080547E+02  0.14575824571E+03  0.14789356083E+03  0.00000000000E+00 0. -1.
</event>
<event>
 7    1  0.7961130E-006  0.5667099E+02  0.7818608E-02  0.1546115E+00
          2   -1    0    0  502    0  0.00000000000E+00  0.00000000000E+00  0.52419880008E+02  0.52419880008E+02  0.00000000000E+00 0. -1.
          1   -1    0    0  501    0 -0.00000000000E+00 -0.00000000000E+00 -0.16453544641E+04  0.16453544641E+04  0.00000000000E+00 0. -1.
         25    2    1    2    0    0 -0.14328421913E+02 -0.76479067204E+02 -0.20067371935E+03  0.24889734904E+03  0.12500238928E+03 0.  0.
          2    1    1    2  501    0  0.13546214055E+02  0.54527974522E+02 -0.14156652921E+04  0.14167798062E+04  0.00000000000E+00 0. -1.
          1    1    1    2  502    0  0.78220785802E+00  0.21951092682E+02  0.23404427321E+02  0.32097188932E+02  0.00000000000E+00 0. -1.
         22    1    3    3    0    0 -0.25785211941E+02  0.20206128248E+02 -0.90953194391E+01  0.33998376569E+02  0.00000000000E+00 0.  1.
         22    1    3    3    0    0  0.11456790028E+02 -0.96685195452E+02 -0.19157839991E+03  0.21489897247E+03  0.00000000000E+00 0.  1.
</event>
<event>
 7    1  0.7961130E-006  0.1070337E+03  0.7818608E-02  0.1433985E+00
          2   -1    0    0  502    0  0.00000000000E+00  0.00000000000E+00  0.75561887456E+03  0.75561887456E+03  0.00000000000E+00 0. -1.
          1   -1    0    0  501    0 -0.00000000000E+00 -0.00000000000E+00 -0.95735152635E+03  0.95735152635E+03  0.00000000000E+00 0. -1.
         25    2    1    2    0    0 -0.78535680979E+02 -0.54961924048E+02 -0.79078370824E+02  0.17625966650E+03  0.12500166008E+03 0.  0.
          2    1    1    2  501    0  0.72836427932E+02  0.79741799942E+02 -0.82593721852E+03  0.83296830001E+03  0.00000000000E+00 0. -1.
          1    1    1    2  502    0  0.56992530471E+01 -0.24779875894E+02  0.70328293755E+03  0.70374243440E+03  0.00000000000E+00 0. -1.
         22    1    3    3    0    0 -0.59110336196E+02 -0.31682268817E+02 -0.11260055955E+03  0.13105984897E+03  0.00000000000E+00 0.  1.
         22    1    3    3    0    0 -0.19425344783E+02 -0.23279655231E+02  0.33522188725E+02  0.45199817527E+02  0.00000000000E+00 0.  1.
</event>
<event>
 7    1  0.7961130E-006  0.7378465E+02  0.7818608E-02  0.1351992E+00
          2   -1    0    0  502    0  0.00000000000E+00  0.00000000000E+00  0.30078966897E+03  0.30078966897E+03  0.00000000000E+00 0. -1.
          1   -1    0    0  501    0 -0.00000000000E+00 -0.00000000000E+00 -0.45351097682E+03  0.45351097682E+03  0.00000000000E+00 0. -1.
         25    2    1    2    0    0 -0.72464849251E+00  0.82543619554E+02 -0.24671711274E+03  0.28863144649E+03  0.12499921577E+03 0.  0.
          2    1    1    2  501    0 -0.62544481865E+02 -0.44580591541E+02 -0.17267098040E+03  0.18898282680E+03  0.00000000000E+00 0. -1.
          1    1    1    2  502    0  0.63269130358E+02 -0.37963028013E+02  0.26666678529E+03  0.27668637250E+03  0.00000000000E+00 0. -1.
         22    1    3    3    0    0 -0.14412193819E+02 -0.26238881584E+02 -0.10655763003E+03  0.11068296507E+03  0.00000000000E+00 0.  1.
         22    1    3    3    0    0  0.13687545327E+02  0.10878250114E+03 -0.14015948270E+03  0.17794848143E+03  0.00000000000E+00 0.  1.
</event>
<event>
 7    1  0.7961130E-006  0.4797613E+02  0.7818608E-02  0.1559970E+00
          2   -1    0    0  502    0  0.00000000000E+00  0.00000000000E+00  0.78937618323E+03  0.78937618323E+03  0.00000000000E+00 0. -1.
          1   -1    0    0  501    0 -0.00000000000E+00 -0.00000000000E+00 -0.13108611392E+03  0.13108611392E+03  0.00000000000E+00 0. -1.
         25    2    1    2    0    0  0.57020138472E+02  0.33813535638E+02  0.64934431291E+02  0.15571138840E+03  0.12503961263E+03 0.  0.
          2    1    1    2  501    0 -0.23742919470E+02  0.33148702697E+00 -0.83197558453E+02  0.86519765609E+02  0.00000000000E+00 0. -1.
          1    1    1    2  502    0 -0.33277219001E+02 -0.34145022665E+02  0.67655319648E+03  0.67823114315E+03  0.00000000000E+00 0. -1.
         22    1    3    3    0    0  0.89490704812E+02  0.25879334881E+02  0.13157193979E+02  0.94082081051E+02  0.00000000000E+00 0.  1.
         22    1    3    3    0    0 -0.32470566340E+02  0.79342007573E+01  0.51777237312E+02  0.61629307345E+02  0.00000000000E+00 0.  1.
</event>
<event>
 7    1  0.7961130E-006  0.7131065E+02  0.7818608E-02  0.1392255E+00
          2   -1    0    0  502    0  0.00000000000E+00  0.00000000000E+00  0.14760315900E+03  0.14760315900E+03  0.00000000000E+00 0. -1.
          1   -1    0    0  501    0 -0.00000000000E+00 -0.00000000000E+00 -0.70195320127E+03  0.70195320127E+03  0.00000000000E+00 0. -1.
         25    2    1    2    0    0 -0.42939930763E+02 -0.22413185251E+02 -0.48148940262E+03  0.49980291901E+03  0.12499889795E+03 0.  0.
          2    1    1    2  501    0 -0.87516446729E+01  0.71537408939E+02 -0.19523775450E+03  0.20811528763E+03  0.00000000000E+00 0. -1.
          1    1    1    2  502    0  0.51691575436E+02 -0.49124223688E+02  0.12237711485E+03  0.14163815363E+03  0.00000000000E+00 0. -1.
         22    1    3    3    0    0 -0.78726651056E+02 -0.39124277180E+02 -0.25091298272E+03  0.26586823719E+03  0.00000000000E+00 0.  1.
         22    1    3    3    0    0  0.35786720294E+02  0.16711091929E+02 -0.23057641991E+03  0.23393468182E+03  0.00000000000E+00 0.  1.
</event>
<event>
 7    1  0.7961130E-006  0.4977533E+02  0.7818608E-02  0.1482582E+00
          2   -1    0    0  502    0  0.00000000000E+00  0.00000000000E+00  0.33071064470E+03  0.33071064470E+03  0.00000000000E+00 0. -1.
          1   -1    0    0  501    0 -0.00000000000E+00 -0.00000000000E+00 -0.61277773978E+03  0.61277773978E+03  0.00000000000E+00 0. -1.
         25    2    1    2    0    0  0.32368278387E+01  0.17937117481E+02 -0.21036007514E+03  0.24537589126E+03  0.12500299821E+03 0.  0.
          2    1    1    2  501    0  0.36063289823E+02  0.13125285848E+02 -0.38193896487E+03  0.38386222384E+03  0.00000000000E+00 0. -1.
          1    1    1    2  502    0 -0.39300117662E+02 -0.31062403328E+02  0.31023194494E+03  0.31425026938E+03  0.00000000000E+00 0. -1.
         22    1    3    3    0    0 -0.28692539080E+02 -0.76243367002E+01 -0.20130802745E+03  0.20348541526E+03  0.00000000000E+00 0.  1.
         22    1    3    3    0    0  0.31929366919E+02  0.25561454181E+02 -0.90520476878E+01  0.41890475994E+02  0.00000000000E+00 0.  1.
</event>
<event>
 7    1  0.7961130E-006  0.6982042E+02  0.7818608E-02  0.1363019E+00
          2   -1    0    0  502    0  0.00000000000E+00  0.00000000000E+00  0.63092988367E+03  0.63092988367E+03  0.00000000000E+00 0. -1.
          1   -1    0    0  501    0 -0.00000000000E+00 -0.00000000000E+00 -0.19671829047E+03  0.19671829047E+03  0.00000000000E+00 0. -1.
         25    2    1    2    0    0  0.95566525350E+02 -0.69885058006E+02  0.38375877069E+03  0.42060925689E+03  0.12499788317E+03 0.  0.
          2    1    1    2  501    0 -0.27374122904E+02  0.63619504410E+02 -0.16607624440E+03  0.17993916444E+03  0.00000000000E+00 0. -1.
          1    1    1    2  502    0 -0.68192402447E+02  0.62655535960E+01  0.21652906690E+03  0.22709975281E+03  0.00000000000E+00 0. -1.
         22    1    3    3    0    0 -0.30085442681E+02 -0.86254565456E+01  0.89980488012E+02  0.95268150947E+02  0.00000000000E+00 0.  1.
         22    1    3    3    0    0  0.12565196803E+03 -0.61259601460E+02  0.29377828268E+03  0.32534110594E+03  0.00000000000E+00 0.  1.
</event>
<event>
 7    1  0.7961130E-006  0.8709329E+02  0.7818608E-02  0.1419405E+00
          2   -1    0    0  502    0  0.00000000000E+00  0.00000000000E+00  0.59256043496E+03  0.59256043496E+03  0.00000000000E+00 0. -1.
          1   -1    0    0  501    0 -0.00000000000E+00 -0.00000000000E+00 -0.18523129419E+03  0.18523129419E+03  0.00000000000E+00 0. -1.
         25    2    1    2    0    0  0.61781462359E+02  0.43871524673E+02 -0.38332788193E+02  0.15111506500E+03  0.12499880179E+03 0.  0.
          2    1    1    2  501    0 -0.52365322656E+02 -0.77496863560E+02 -0.65588283375E+02  0.11423534389E+03  0.00000000000E+00 0. -1.
          1    1    1    2  502    0 -0.94161397026E+01  0.33625338888E+02  0.51125021233E+03  0.51244132026E+03  0.00000000000E+00 0. -1.
         22    1    3    3    0    0  0.58590593747E+02 -0.16732331609E+02 -0.61106393669E+02  0.86294958971E+02  0.00000000000E+00 0. -1.
         22    1    3    3    0    0  0.31908686120E+01  0.60603856282E+02  0.22773605476E+02  0.64820106025E+02  0.00000000000E+00 0. -1.
</event>
<event>
 7    1  0.7961130E-006  0.6930919E+02  0.7818608E-02  0.1450070E+00
          2   -1    0    0  502    0  0.00000000000E+00  0.00000000000E+00  0.50990033678E+03  0.50990033678E+03  0.00000000000E+00 0. -1.
          1   -1    0    0  501    0 -0.00000000000E+00 -0.00000000000E+00 -0.55021296980E+03  0.55021296980E+03  0.00000000000E+00 0. -1.
         25    2    1    2    0    0  0.43786065620E+02 -0.36601353265E+02 -0.43739550676E+02  0.14420590730E+03  0.12500126721E+03 0.  0.
          2    1    1    2  501    0 -0.24833362744E+02  0.65825104985E+02 -0.45286033437E+03  0.45829261700E+03  0.00000000000E+00 0. -1.
          1    1    1    2  502    0 -0.18952702876E+02 -0.29223751720E+02  0.45628725202E+03  0.45761478229E+03  0.00000000000E+00 0. -1.
         22    1    3    3    0    0  0.14386099531E+02  0.40974605201E+02 -0.43184915564E+02  0.61243898172E+02  0.00000000000E+00 0. -1.
         22    1    3    3    0    0  0.29399966090E+02 -0.77575958466E+02 -0.55463511221E+00  0.82962009125E+02  0.00000000000E+00 0. -1.
</event>
<event>
 7    1  0.7961130E-006  0.1361959E+03  0.7818608E-02  0.1243278E+00
          2   -1    0    0  502    0  0.00000000000E+00  0.00000000000E+00  0.23852716334E+04  0.23852716334E+04  0.00000000000E+00 0. -1.
          1   -1    0    0  501    0 -0.00000000000E+00 -0.00000000000E+00 -0.47198790864E+03  0.47198790864E+03  0.00000000000E+00 0. -1.
         25    2    1    2    0    0 -0.15455265780E+03  0.13755711242E+02 -0.69332893604E+01  0.19936986232E+03  0.12499811149E+03 0.  0.
          2    1    1    2  501    0  0.61217582782E+02  0.85967970702E+02 -0.35920044866E+03  0.37438355566E+03  0.00000000000E+00 0. -1.
          1    1    1    2  502    0  0.93335075022E+02 -0.99723681944E+02  0.22794174627E+04  0.22835061240E+04  0.00000000000E+00 0. -1.
         22    1    3    3    0    0 -0.10900505161E+03  0.65583144127E+02  0.12121157713E+02  0.12778956348E+03  0.00000000000E+00 0.  1.
         22    1    3    3    0    0 -0.45547606194E+02 -0.51827432885E+02 -0.19054447074E+02  0.71580298845E+02  0.00000000000E+00 0.  1.
</event>
<event>
 7    1  0.7961130E-006  0.1412877E+03  0.7818608E-02  0.1361310E+00
          2   -1    0    0  502    0  0.00000000000E+00  0.00000000000E+00  0.76062260405E+03  0.76062260405E+03  0.00000000000E+00 0. -1.
          1   -1    0    0  501    0 -0.00000000000E+00 -0.00000000000E+00 -0.19257256867E+03  0.19257256867E+03  0.00000000000E+00 0. -1.
         25    2    1    2    0    0  0.14594690656E+03  0.80655836280E+02  0.35069347520E+02  0.21132993271E+03  0.12499847144E+03 0.  0.
          2    1    1    2  501    0 -0.11732845991E+03 -0.61697002257E+02 -0.61684272347E+02  0.14621024946E+03  0.00000000000E+00 0. -1.
          1    1    1    2  502    0 -0.28618446652E+02 -0.18958834023E+02  0.59466496020E+03  0.59565499055E+03  0.00000000000E+00 0. -1.
         22    1    3    3    0    0 -0.21757937229E+02  0.10302345507E+02 -0.61634790496E+01  0.24850244051E+02  0.00000000000E+00 0. -1.
         22    1    3    3    0    0  0.16770484379E+03  0.70353490773E+02  0.41232826570E+02  0.18647968866E+03  0.00000000000E+00 0. -1.
</event>
<event>
 7    1  0.7961130E-006  0.5227075E+02  0.7818608E-02  0.1472568E+00
          2   -1    0    0  502    0  0.00000000000E+00  0.00000000000E+00  0.67921523969E+03  0.67921523969E+03  0.00000000000E+00 0. -1.
          1   -1    0    0  501    0 -0.00000000000E+00 -0.00000000000E+00 -0.44988167685E+02  0.44988167685E+02  0.00000000000E+00 0. -1.
         25    2    1    2    0    0  0.65498839325E+02 -0.15114962607E+02  0.10229279037E+03  0.17494951480E+03  0.12499983088E+03 0.  0.
          2    1    1    2  501    0 -0.32157819817E+02  0.35794450734E+02  0.66040985843E+02  0.81711565215E+02  0.00000000000E+00 0. -1.
          1    1    1    2  502    0 -0.33341019508E+02 -0.20679488127E+02  0.46589329579E+03  0.46754232736E+03  0.00000000000E+00 0. -1.
         22    1    3    3    0    0 -0.14158773753E+02 -0.50717923800E+02  0.53114564777E+02  0.74792617686E+02  0.00000000000E+00 0. -1.
         22    1    3    3    0    0  0.79657613078E+02  0.35602961193E+02  0.49178225594E+02  0.10015689711E+03  0.00000000000E+00 0. -1.
</event>
<event>
 7    1  0.7961130E-006  0.8858455E+02  0.7818608E-02  0.1344003E+00
          2   -1    0    0  502    0  0.00000000000E+00  0.00000000000E+00  0.97439431999E+03  0.97439431999E+03  0.00000000000E+00 0. -1.
          1   -1    0    0  501    0 -0.00000000000E+00 -0.00000000000E+00 -0.26679254404E+02  0.26679254404E+02  0.00000000000E+00 0. -1.
         25    2    1    2    0    0  0.86440322929E+02 -0.56715721618E+02  0.47987352075E+03  0.50654858699E+03  0.12499709020E+03 0.  0.
          2    1    1    2  501    0 -0.57409120105E+02 -0.26964894853E+02  0.12176867331E+03  0.13729720473E+03  0.00000000000E+00 0. -1.
          1    1    1    2  502    0 -0.29031202823E+02  0.83680616472E+02  0.34607287153E+03  0.35722778268E+03  0.00000000000E+00 0. -1.
         22    1    3    3    0    0 -0.21268473773E+02 -0.37435155252E+02  0.68801357619E+02  0.81162587659E+02  0.00000000000E+00 0.  1.
         22    1    3    3    0    0  0.10770879670E+03 -0.19280566366E+02  0.41107216313E+03  0.42538599933E+03  0.00000000000E+00 0.  1.
</event>
<event>
 7    1  0.7961130E-006  0.8961787E+02  0.7818608E-02  0.1342275E+00
          2   -1    0    0  502    0  0.00000000000E+00  0.00000000000E+00  0.38773989059E+03  0.38773989059E+03  0.00000000000E+00 0. -1.
          1   -1    0    0  501    0 -0.00000000000E+00 -0.00000000000E+00 -0.15250183037E+04  0.15250183037E+04  0.00000000000E+00 0. -1.
         25    2    1    2    0    0  0.41013685954E+02 -0.11689198674E+03  0.29707051432E+03  0.34528427345E+03  0.12499792005E+03 0.  0.
          2    1    1    2  501    0 -0.39393472073E-01  0.63636090286E+02 -0.14830954296E+04  0.14844600388E+04  0.00000000000E+00 0. -1.
          1    1    1    2  502    0 -0.40974292481E+02  0.53255896450E+02  0.48746502102E+02  0.83013882081E+02  0.00000000000E+00 0. -1.
         22    1    3    3    0    0  0.31572442768E+02 -0.14207304426E+03  0.27214384469E+03  0.30861600939E+03  0.00000000000E+00 0.  1.
         22    1    3    3    0    0  0.94412431851E+01  0.25181057522E+02  0.24926669633E+02  0.36668264068E+02  0.00000000000E+00 0.  1.
</event>
<event>
 7    1  0.7961130E-006  0.7698756E+02  0.7818608E-02  0.1370266E+00
          2   -1    0    0  502    0  0.00000000000E+00  0.00000000000E+00  0.13741096682E+04  0.13741096682E+04  0.00000000000E+00 0. -1.
          1   -1    0    0  501    0 -0.00000000000E+00 -0.00000000000E+00 -0.82590991963E+03  0.82590991963E+03  0.00000000000E+00 0. -1.
         25    2    1    2    0    0  0.43379434870E+02  0.11394402223E+03  0.20705402617E+03  0.27084849784E+03  0.12499009342E+03 0.  0.
          2    1    1    2  501    0  0.73669223322E+01 -0.58004779955E+02 -0.79167704402E+03  0.79383333772E+03  0.00000000000E+00 0. -1.
          1    1    1    2  502    0 -0.50746357202E+02 -0.55939242278E+02  0.11328227664E+04  0.11353377523E+04  0.00000000000E+00 0. -1.
         22    1    3    3    0    0  0.52239764443E+02  0.74001792866E+01  0.12626411334E+03  0.13684437131E+03  0.00000000000E+00 0.  1.
         22    1    3    3    0    0 -0.88603295730E+01  0.10654384295E+03  0.80789912834E+02  0.13400412652E+03  0.00000000000E+00 0.  1.
</event>
<event>
 7    1  0.7961130E-006  0.4035136E+02  0.7818608E-02  0.1533909E+00
          2   -1    0    0  502    0  0.00000000000E+00  0.00000000000E+00  0.68806853102E+03  0.68806853102E+03  0.00000000000E+00 0. -1.
          1   -1    0    0  501    0 -0.00000000000E+00 -0.00000000000E+00 -0.50104196937E+02  0.50104196937E+02  0.00000000000E+00 0. -1.
         25    2    1    2    0    0  0.47077048063E+02  0.55884093388E+02  0.10543717496E+03  0.17911440623E+03  0.12500276920E+03 0.  0.
          2    1    1    2  501    0 -0.20992223871E+02 -0.25978025466E+02  0.97729415541E+01  0.34800023804E+02  0.00000000000E+00 0. -1.
          1    1    1    2  502    0 -0.26084824192E+02 -0.29906067922E+02  0.52275421757E+03  0.52425829792E+03  0.00000000000E+00 0. -1.
         22    1    3    3    0    0 -0.34224877540E+01  0.34120460618E+02  0.11785297938E+03  0.12274055566E+03  0.00000000000E+00 0.  1.
         22    1    3    3    0    0  0.50499535817E+02  0.21763632770E+02 -0.12415804418E+02  0.56373850573E+02  0.00000000000E+00 0.  1.
</event>
<event>
 7    1  0.7961130E-006  0.3394599E+03  0.7818608E-02  0.1186009E+00
          2   -1    0    0  502    0  0.00000000000E+00  0.00000000000E+00  0.19142554238E+04  0.19142554238E+04  0.00000000000E+00 0. -1.
          1   -1    0    0  501    0 -0.00000000000E+00 -0.00000000000E+00 -0.19534184296E+04  0.19534184296E+04  0.00000000000E+00 0. -1.
         25    2    1    2    0    0  0.10314540743E+03 -0.36678586383E+03  0.95627819941E+02  0.41223921690E+03  0.12500258809E+03 0.  0.
          2    1    1    2  501    0 -0.14772094662E+03  0.30314678672E+03 -0.17783495051E+04  0.18100404456E+04  0.00000000000E+00 0. -1.
          1    1    1    2  502    0  0.44575539189E+02  0.63639077111E+02  0.16435586794E+04  0.16453941909E+04  0.00000000000E+00 0. -1.
         22    1    3    3    0    0  0.12388768837E+03 -0.32187216727E+03  0.57213889694E+02  0.34960446302E+03  0.00000000000E+00 0.  1.
         22    1    3    3    0    0 -0.20742280933E+02 -0.44913696563E+02  0.38413930247E+02  0.62634753885E+02  0.00000000000E+00 0.  1.
</event>
<event>
 7    1  0.7961130E-006  0.1334855E+03  0.7818608E-02  0.1298025E+00
          2   -1    0    0  502    0  0.00000000000E+00  0.00000000000E+00  0.22951224498E+04  0.22951224498E+04  0.00000000000E+00 0. -1.
          1   -1    0    0  501    0 -0.00000000000E+00 -0.00000000000E+00 -0.15046901479E+03  0.15046901479E+03  0.00000000000E+00 0. -1.
         25    2    1    2    0    0  0.45965858714E+02  0.13183808456E+03  0.11279536493E+03  0.21872659914E+03  0.12499756043E+03 0.  0.
          2    1    1    2  501    0 -0.63434046057E+02  0.82980378859E+00 -0.84843079927E+02  0.10593826025E+03  0.00000000000E+00 0. -1.
          1    1    1    2  502    0  0.17468187343E+02 -0.13266788835E+03  0.21167011500E+04  0.21209266052E+04  0.00000000000E+00 0. -1.
         22    1    3    3    0    0 -0.88652214628E+01  0.88703093670E+01 -0.23817765689E+02  0.26917661531E+02  0.00000000000E+00 0.  1.
         22    1    3    3    0    0  0.54831080177E+02  0.12296777520E+03  0.13661313062E+03  0.19180893761E+03  0.00000000000E+00 0.  1.
</event>
<event>
 7    1  0.7961130E-006  0.7004942E+02  0.7818608E-02  0.1485524E+00
          2   -1    0    0  502    0  0.00000000000E+00  0.00000000000E+00  0.29379050515E+03  0.29379050515E+03  0.00000000000E+00 0. -1.
          1   -1    0    0  501    0 -0.00000000000E+00 -0.00000000000E+00 -0.23793739145E+03  0.23793739145E+03  0.00000000000E+00 0. -1.
         25    2    1    2    0    0  0.88159622377E+02  0.35745434123E+02  0.77510405514E+02  0.17516594704E+03  0.12500156383E+03 0.  0.
          2    1    1    2  501    0 -0.65113627627E+02 -0.22238674311E+02 -0.18170712220E+03  0.19429827945E+03  0.00000000000E+00 0. -1.
          1    1    1    2  502    0 -0.23045994751E+02 -0.13506759812E+02  0.16004983038E+03  0.16226367012E+03  0.00000000000E+00 0. -1.
         22    1    3    3    0    0  0.11534513421E+03  0.92163281253E+01  0.73235951795E+02  0.13694139376E+03  0.00000000000E+00 0. -1.
         22    1    3    3    0    0 -0.27185511832E+02  0.26529105998E+02  0.42744537196E+01  0.38224553277E+02  0.00000000000E+00 0. -1.
</event>
<event>
 7    1  0.7961130E-006  0.4578942E+02  0.7818608E-02  0.1569386E+00
          2   -1    0    0  502    0  0.00000000000E+00  0.00000000000E+00  0.16146572399E+04  0.16146572399E+04  0.00000000000E+00 0. -1.
          1   -1    0    0  501    0 -0.00000000000E+00 -0.00000000000E+00 -0.90705596475E+03  0.90705596475E+03  0.00000000000E+00 0. -1.
         25    2    1    2    0    0  0.25808502038E+02 -0.29929664607E+01 -0.48851556247E+03  0.50491993101E+03  0.12498658057E+03 0.  0.
          2    1    1    2  501    0 -0.49245173381E+02  0.36693327152E+01 -0.40876658193E+03  0.41173859378E+03  0.00000000000E+00 0. -1.
          1    1    1    2  502    0  0.23436671344E+02 -0.67636625454E+00  0.16048834195E+04  0.16050546798E+04  0.00000000000E+00 0. -1.
         22    1    3    3    0    0 -0.29006576031E+02 -0.90788992670E+01 -0.39634595513E+03  0.39750965273E+03  0.00000000000E+00 0.  1.
         22    1    3    3    0    0  0.54815078068E+02  0.60859328063E+01 -0.92169607342E+02  0.10741027828E+03  0.00000000000E+00 0.  1.
</event>
<event>
 7    1  0.7961130E-006  0.9691022E+02  0.7818608E-02  0.1395387E+00
          2   -1    0    0  502    0  0.00000000000E+00  0.00000000000E+00  0.43905855350E+03  0.43905855350E+03  0.00000000000E+00 0. -1.
          1   -1    0    0  501    0 -0.00000000000E+00 -0.00000000000E+00 -0.63821743431E+03  0.63821743431E+03  0.00000000000E+00 0. -1.
         25    2    1    2    0    0  0.90581623957E+02 -0.64919846696E+02  0.71461615642E+02  0.18207551520E+03  0.12500045452E+03 0.  0.
          2    1    1    2  501    0 -0.92763406365E+02  0.27105345531E+02 -0.57773333727E+03  0.58576066641E+03  0.00000000000E+00 0. -1.
          1    1    1    2  502    0  0.21817824076E+01  0.37814501165E+02  0.30711284081E+03  0.30943980621E+03  0.00000000000E+00 0. -1.
         22    1    3    3    0    0  0.17025058326E+02  0.12630500444E+02  0.72137055043E+02  0.75187345097E+02  0.00000000000E+00 0. -1.
         22    1    3    3    0    0  0.73556565631E+02 -0.77550347139E+02 -0.67543940095E+00  0.10688817010E+03  0.00000000000E+00 0. -1.
</event>
<event>
 7    1  0.7961130E-006  0.1195423E+03  0.7818608E-02  0.1442333E+00
          2   -1    0    0  502    0  0.00000000000E+00  0.00000000000E+00  0.22737462681E+03  0.22737462681E+03  0.00000000000E+00 0. -1.
          1   -1    0    0  501    0 -0.00000000000E+00 -0.00000000000E+00 -0.59738949209E+03  0.59738949209E+03  0.00000000000E+00 0. -1.
         25    2    1    2    0    0  0.10321089836E+03 -0.15433191140E+02 -0.26794575167E+03  0.31354440369E+03  0.12499797726E+03 0.  0.
          2    1    1    2  501    0  0.17274316939E+02  0.12607717077E+02 -0.28846439053E+03  0.28925604775E+03  0.00000000000E+00 0. -1.
          1    1    1    2  502    0 -0.12048521530E+03  0.28254740625E+01  0.18639527692E+03  0.22196366745E+03  0.00000000000E+00 0. -1.
         22    1    3    3    0    0  0.10594442459E+03 -0.57587801110E+02 -0.19712144237E+03  0.23107885879E+03  0.00000000000E+00 0.  1.
         22    1    3    3    0    0 -0.27335262312E+01  0.42154609970E+02 -0.70824309305E+02  0.82465544902E+02  0.00000000000E+00 0.  1.
</event>
<event>
 7    1  0.7961130E-006  0.5549370E+02  0.7818608E-02  0.1506496E+00
          2   -1    0    0  502    0  0.00000000000E+00  0.00000000000E+00  0.15443158734E+02  0.15443158734E+02  0.00000000000E+00 0. -1.
          1   -1    0    0  501    0 -0.00000000000E+00 -0.00000000000E+00 -0.19402603283E+04  0.19402603283E+04  0.00000000000E+00 0. -1.
         25    2    1    2    0    0  0.23188699792E+02  0.23015841896E+02 -0.88417648945E+03  0.89356576150E+03  0.12499704341E+03 0.  0.
          2    1    1    2  501    0 -0.51256960505E+02 -0.30958611261E+02 -0.10289833315E+04  0.10307242154E+04  0.00000000000E+00 0. -1.
          1    1    1    2  502    0  0.28068260712E+02  0.79427693652E+01 -0.11657348610E+02  0.31413510170E+02  0.00000000000E+00 0. -1.
         22    1    3    3    0    0  0.57736459581E+02  0.17690289948E+02 -0.21069217165E+03  0.21917489892E+03  0.00000000000E+00 0.  1.
         22    1    3    3    0    0 -0.34547759789E+02  0.53255519474E+01 -0.67348431780E+03  0.67439086259E+03  0.00000000000E+00 0.  1.
</event>
<event>
 7    1  0.7961130E-006  0.1739565E+03  0.7818608E-02  0.1251268E+00
          2   -1    0    0  502    0  0.00000000000E+00  0.00000000000E+00  0.14509970951E+03  0.14509970951E+03  0.00000000000E+00 0. -1.
          1   -1    0    0  501    0 -0.00000000000E+00 -0.00000000000E+00 -0.16194529918E+04  0.16194529918E+04  0.00000000000E+00 0. -1.
         25    2    1    2    0    0  0.13461984988E+03 -0.13856343170E+03 -0.11516495399E+04  0.11744074261E+04  0.12495523686E+03 0.  0.
          2    1    1    2  501    0  0.25768790474E+02  0.71777044103E+02 -0.39475884805E+03  0.40205785993E+03  0.00000000000E+00 0. -1.
          1    1    1    2  502    0 -0.16038864036E+03  0.66786387597E+02  0.72055105649E+02  0.18808741525E+03  0.00000000000E+00 0. -1.
         22    1    3    3    0    0  0.10702036523E+03 -0.12367104468E+03 -0.60069750361E+03  0.62256355235E+03  0.00000000000E+00 0.  1.
         22    1    3    3    0    0  0.27599484650E+02 -0.14892387017E+02 -0.55095203626E+03  0.55184387376E+03  0.00000000000E+00 0.  1.
</event>
<event>
 7    1  0.7961130E-006  0.1110332E+03  0.7818608E-02  0.1427984E+00
          2   -1    0    0  502    0  0.00000000000E+00  0.00000000000E+00  0.88178867255E+03  0.88178867255E+03  0.00000000000E+00 0. -1.
          1   -1    0    0  501    0 -0.00000000000E+00 -0.00000000000E+00 -0.28260114223E+03  0.28260114223E+03  0.00000000000E+00 0. -1.
         25    2    1    2    0    0 -0.12183018353E+02 -0.11462639675E+03 -0.55046740518E+02  0.17872352027E+03  0.12499726512E+03 0.  0.
          2    1    1    2  501    0  0.35741260906E+02  0.10448060547E+03 -0.14709261686E+03  0.18392898789E+03  0.00000000000E+00 0. -1.
          1    1    1    2  502    0 -0.23558242553E+02  0.10145791283E+02  0.80132688770E+03  0.80173730662E+03  0.00000000000E+00 0. -1.
         22    1    3    3    0    0 -0.30240711183E+02 -0.60900825642E+02 -0.89496122688E+02  0.11239647304E+03  0.00000000000E+00 0.  1.
         22    1    3    3    0    0  0.18057692830E+02 -0.53725571107E+02  0.34449382170E+02  0.66327047221E+02  0.00000000000E+00 0.  1.
</event>
<event>
 7    1  0.7961130E-006  0.9816296E+02  0.7818608E-02  0.1413406E+00
          2   -1    0    0  502    0  0.00000000000E+00  0.00000000000E+00  0.45075821817E+03  0.45075821817E+03  0.00000000000E+00 0. -1.
          1   -1    0    0  501    0 -0.00000000000E+00 -0.00000000000E+00 -0.73600962153E+03  0.73600962153E+03  0.00000000000E+00 0. -1.
         25    2    1    2    0    0  0.26689705759E+02 -0.96497382428E+02  0.31087710920E+03  0.34970590081E+03  0.12500221929E+03 0.  0.
          2    1    1    2  501    0  0.57258582697E+01  0.98029932919E+02 -0.71097210381E+03  0.71772138438E+03  0.00000000000E+00 0. -1.
          1    1    1    2  502    0 -0.32415564029E+02 -0.15325504908E+01  0.11484359124E+03  0.11934055451E+03  0.00000000000E+00 0. -1.
         22    1    3    3    0    0 -0.17659913531E+02 -0.69417781151E+02  0.59805812739E+02  0.93313643822E+02  0.00000000000E+00 0. -1.
         22    1    3    3    0    0  0.44349619290E+02 -0.27079601276E+02  0.25107129646E+03  0.25639225699E+03  0.00000000000E+00 0. -1.
</event>
<event>
 7    1  0.7961130E-006  0.2854558E+03  0.7818608E-02  0.1296283E+00
          2   -1    0    0  502    0  0.00000000000E+00  0.00000000000E+00  0.26463644292E+03  0.26463644292E+03  0.00000000000E+00 0. -1.
          1   -1    0    0  501    0 -0.00000000000E+00 -0.00000000000E+00 -0.53916551253E+03  0.53916551253E+03  0.00000000000E+00 0. -1.
         25    2    1    2    0    0 -0.29530061485E+03 -0.56494454200E+02 -0.35292012921E+02  0.32751328577E+03  0.12500139875E+03 0.  0.
          2    1    1    2  501    0  0.29849343329E+02 -0.42330514698E+01 -0.19870571413E+03  0.20097975732E+03  0.00000000000E+00 0. -1.
          1    1    1    2  502    0  0.26545127152E+03  0.60727505669E+02 -0.40531342560E+02  0.27530891237E+03  0.00000000000E+00 0. -1.
         22    1    3    3    0    0 -0.28966353982E+03 -0.79239531913E+02 -0.23350311710E+02  0.30121272678E+03  0.00000000000E+00 0. -1.
         22    1    3    3    0    0 -0.56370750338E+01  0.22745077713E+02 -0.11941701210E+02  0.26300558985E+02  0.00000000000E+00 0. -1.
</event>
<event>
 7    1  0.7961130E-006  0.3528066E+02  0.7818608E-02  0.1571031E+00
          2   -1    0    0  502    0  0.00000000000E+00  0.00000000000E+00  0.10769743147E+04  0.10769743147E+04  0.00000000000E+00 0. -1.
          1   -1    0    0  501    0 -0.00000000000E+00 -0.00000000000E+00 -0.52729521828E+02  0.52729521828E+02  0.00000000000E+00 0. -1.
         25    2    1    2    0    0 -0.44277714722E+01 -0.18840043620E+02  0.17197419616E+03  0.21348039008E+03  0.12499680155E+03 0.  0.
          2    1    1    2  501    0  0.29355462336E+02 -0.67372889619E+01 -0.24439050438E+02  0.38786613900E+02  0.00000000000E+00 0. -1.
          1    1    1    2  502    0 -0.24927690864E+02  0.25577332582E+02  0.87670964711E+03  0.87743683251E+03  0.00000000000E+00 0. -1.
         22    1    3    3    0    0  0.35015970445E+02 -0.55083080992E+02  0.12986165026E+03  0.14534205243E+03  0.00000000000E+00 0. -1.
         22    1    3    3    0    0 -0.39443741917E+02  0.36243037372E+02  0.42112545904E+02  0.68138337644E+02  0.00000000000E+00 0. -1.
</event>
<event>
 7    1  0.7961130E-006  0.8445958E+02  0.7818608E-02  0.1359143E+00
          2   -1    0    0  502    0  0.00000000000E+00  0.00000000000E+00  0.13600785435E+04  0.13600785435E+04  0.00000000000E+00 0. -1.
          1   -1    0    0  501    0 -0.00000000000E+00 -0.00000000000E+00 -0.19920406742E+04  0.19920406742E+04  0.00000000000E+00 0. -1.
         25    2    1    2    0    0 -0.26964474250E+02  0.15485694041E+02  0.28544976232E+02  0.13193564090E+03  0.12500123231E+03 0.  0.
          2    1    1    2  501    0 -0.58322495313E+02 -0.43025821498E+01 -0.19384585826E+04  0.19393405328E+04  0.00000000000E+00 0. -1.
          1    1    1    2  502    0  0.85286969563E+02 -0.11183111891E+02  0.12779514757E+04  0.12808430440E+04  0.00000000000E+00 0. -1.
         22    1    3    3    0    0 -0.55983766900E+02  0.27378058052E+02 -0.27182233072E+02  0.67989808161E+02  0.00000000000E+00 0.  1.
         22    1    3    3    0    0  0.29019292650E+02 -0.11892364012E+02  0.55727209304E+02  0.63945832738E+02  0.00000000000E+00 0.  1.
</event>
<event>
 7    1  0.7961130E-006  0.1952524E+03  0.7818608E-02  0.1263540E+00
          2   -1    0    0  502    0  0.00000000000E+00  0.00000000000E+00  0.19401245788E+04  0.19401245788E+04  0.00000000000E+00 0. -1.
          1   -1    0    0  501    0 -0.00000000000E+00 -0.00000000000E+00 -0.19759451215E+03  0.19759451215E+03  0.00000000000E+00 0. -1.
         25    2    1    2    0    0 -0.22494751781E+03 -0.32543666506E+02  0.35671427316E+03  0.44105627298E+03  0.12500034904E+03 0.  0.
          2    1    1    2  501    0  0.34241320917E+02  0.49506430302E+02 -0.14339309387E+03  0.15551506059E+03  0.00000000000E+00 0. -1.
          1    1    1    2  502    0  0.19070619689E+03 -0.16962763796E+02  0.15292088873E+04  0.15411477574E+04  0.00000000000E+00 0. -1.
         22    1    3    3    0    0 -0.12775633752E+03 -0.61468349109E+02  0.28019449092E+03  0.31402068795E+03  0.00000000000E+00 0. -1.
         22    1    3    3    0    0 -0.97191180288E+02  0.28924682604E+02  0.76519782239E+02  0.12703558503E+03  0.00000000000E+00 0. -1.
</event>
<event>
 7    1  0.7961130E-006  0.5510676E+02  0.7818608E-02  0.1519014E+00
          2   -1    0    0  502    0  0.00000000000E+00  0.00000000000E+00  0.28027476134E+03  0.28027476134E+03  0.00000000000E+00 0. -1.
          1   -1    0    0  501    0 -0.00000000000E+00 -0.00000000000E+00 -0.10678631990E+04  0.10678631990E+04  0.00000000000E+00 0. -1.
         25    2    1    2    0    0  0.52905965128E+02  0.58706020516E+02 -0.20281416068E+03  0.25100627720E+03  0.12500051772E+03 0.  0.
          2    1    1    2  501    0 -0.29237656883E+02 -0.45725071168E+02 -0.83936299651E+03  0.84111584376E+03  0.00000000000E+00 0. -1.
          1    1    1    2  502    0 -0.23668308245E+02 -0.12980949349E+02  0.25458871957E+03  0.25601583934E+03  0.00000000000E+00 0. -1.
         22    1    3    3    0    0 -0.73003054377E+01 -0.35413478914E+02 -0.49812578618E+02  0.61552432421E+02  0.00000000000E+00 0. -1.
         22    1    3    3    0    0  0.60206270566E+02  0.94119499430E+02 -0.15300158207E+03  0.18945384478E+03  0.00000000000E+00 0. -1.
</event>
<event>
 7    1  0.7961130E-006  0.5486667E+02  0.7818608E-02  0.1440267E+00
          2   -1    0    0  502    0  0.00000000000E+00  0.00000000000E+00  0.28171125470E+03  0.28171125470E+03  0.00000000000E+00 0. -1.
          1   -1    0    0  501    0 -0.00000000000E+00 -0.00000000000E+00 -0.19897497611E+04  0.19897497611E+04  0.00000000000E+00 0. -1.
         25    2    1    2    0    0 -0.27205190094E+01 -0.20782762843E+02 -0.11002811282E+03  0.16784213036E+03  0.12500188261E+03 0.  0.
          2    1    1    2  501    0 -0.47117267346E+02 -0.43624170608E+01 -0.18474264741E+04  0.18480323712E+04  0.00000000000E+00 0. -1.
          1    1    1    2  502    0  0.49837786355E+02  0.25145179904E+02  0.24941608057E+03  0.25558651425E+03  0.00000000000E+00 0. -1.
         22    1    3    3    0    0  0.54041549173E+02 -0.35270082885E+02 -0.37597407162E+02  0.74686229046E+02  0.00000000000E+00 0.  1.
         22    1    3    3    0    0 -0.56762068183E+02  0.14487320042E+02 -0.72430705662E+02  0.93155901311E+02  0.00000000000E+00 0.  1.
</event>
<event>
 7    1  0.7961130E-006  0.1279069E+03  0.7818608E-02  0.1246277E+00
          2   -1    0    0  502    0  0.00000000000E+00  0.00000000000E+00  0.95790245630E+03  0.95790245630E+03  0.00000000000E+00 0. -1.
          1   -1    0    0  501    0 -0.00000000000E+00 -0.00000000000E+00 -0.21109143631E+03  0.21109143631E+03  0.00000000000E+00 0. -1.
         25    2    1    2    0    0 -0.17942787687E+03  0.75542609068E+02 -0.15530356279E+02  0.23187928289E+03  0.12500304431E+03 0.  0.
          2    1    1    2  501    0  0.10981780909E+03  0.83759495649E+01 -0.47516878529E+02  0.11994982897E+03  0.00000000000E+00 0. -1.
          1    1    1    2  502    0  0.69610067780E+02 -0.83918558632E+02  0.80985825480E+03  0.81716478074E+03  0.00000000000E+00 0. -1.
         22    1    3    3    0    0 -0.25819525318E+02  0.22641250860E+02  0.46647634011E+02  0.57924743305E+02  0.00000000000E+00 0.  1.
         22    1    3    3    0    0 -0.15360835155E+03  0.52901358208E+02 -0.62177990290E+02  0.17395453959E+03  0.00000000000E+00 0.  1.
</event>
<event>
 7    1  0.7961130E-006  0.9534959E+02  0.7818608E-02  0.1425190E+00
          2   -1    0    0  502    0  0.00000000000E+00  0.00000000000E+00  0.54076553942E+03  0.54076553942E+03  0.00000000000E+00 0. -1.
          1   -1    0    0  501    0 -0.00000000000E+00 -0.00000000000E+00 -0.13362663334E+03  0.13362663334E+03  0.00000000000E+00 0. -1.
         25    2    1    2    0    0 -0.10253566655E+03 -0.40281906874E+02  0.69685107744E+01  0.16676395715E+03  0.12500184929E+03 0.  0.
          2    1    1    2  501    0  0.88753408348E+02  0.13060404630E+02 -0.15329502325E+02  0.91009534138E+02  0.00000000000E+00 0. -1.
          1    1    1    2  502    0  0.13782258202E+02  0.27221502244E+02  0.41549989762E+03  0.41661868147E+03  0.00000000000E+00 0. -1.
         22    1    3    3    0    0 -0.90692640148E+02  0.29839261896E+02  0.24617059697E+01  0.95507049603E+02  0.00000000000E+00 0. -1.
         22    1    3    3    0    0 -0.11843026402E+02 -0.70121168770E+02  0.45068048047E+01  0.71256907550E+02  0.00000000000E+00 0. -1.
</event>
<event>
 7    1  0.7961130E-006  0.2505528E+03  0.7818608E-02  0.1199424E+00
          2   -1    0    0  502    0  0.00000000000E+00  0.00000000000E+00  0.24982139552E+03  0.24982139552E+03  0.00000000000E+00 0. -1.
          1   -1    0    0  501    0 -0.00000000000E+00 -0.00000000000E+00 -0.59613895146E+03  0.59613895146E+03  0.00000000000E+00 0. -1.
         25    2    1    2    0    0  0.22301470860E+03  0.64848134737E+02 -0.32544706847E+03  0.41890517084E+03  0.12499962780E+03 0.  0.
          2    1    1    2  501    0 -0.26040140450E+03 -0.14762714698E+03 -0.90375566586E+02  0.31268260109E+03  0.00000000000E+00 0. -1.
          1    1    1    2  502    0  0.37386695895E+02  0.82779012243E+02  0.69505079119E+02  0.11437257504E+03  0.00000000000E+00 0. -1.
         22    1    3    3    0    0  0.66844675095E+02  0.69653466172E+02 -0.18564700778E+03  0.20924776567E+03  0.00000000000E+00 0. -1.
         22    1    3    3    0    0  0.15617003351E+03 -0.48053314347E+01 -0.13980006069E+03  0.20965740518E+03  0.00000000000E+00 0. -1.
</event>
<event>
 7    1  0.7961130E-006  0.8935395E+02  0.7818608E-02  0.1339707E+00
          2   -1    0    0  502    0  0.00000000000E+00  0.00000000000E+00  0.37512908055E+04  0.37512908055E+04  0.00000000000E+00 0. -1.
          1   -1    0    0  501    0 -0.00000000000E+00 -0.00000000000E+00 -0.34053553173E+03  0.34053553173E+03  0.00000000000E+00 0. -1.
         25    2    1    2    0    0  0.36189511549E+02  0.11925623176E+03  0.90936631226E+03  0.92633853160E+03  0.12499702274E+03 0.  0.
          2    1    1    2  501    0  0.20456643732E+02 -0.86856009297E+02 -0.32567115583E+03  0.33767461019E+03  0.00000000000E+00 0. -1.
          1    1    1    2  502    0 -0.56646155282E+02 -0.32400222459E+02  0.28270601174E+04  0.28278131955E+04  0.00000000000E+00 0. -1.
         22    1    3    3    0    0  0.62377406196E+02  0.60738632404E+02  0.26825895475E+03  0.28203366656E+03  0.00000000000E+00 0.  1.
         22    1    3    3    0    0 -0.26187894647E+02  0.58517599351E+02  0.64110735750E+03  0.64430486503E+03  0.00000000000E+00 0.  1.
</event>
<event>
 7    1  0.7961130E-006  0.5833880E+02  0.7818608E-02  0.1437265E+00
          2   -1    0    0  502    0  0.00000000000E+00  0.00000000000E+00  0.61635949491E+03  0.61635949491E+03  0.00000000000E+00 0. -1.
          1   -1    0    0  501    0 -0.00000000000E+00 -0.00000000000E+00 -0.15520940156E+03  0.15520940156E+03  0.00000000000E+00 0. -1.
         25    2    1    2    0    0 -0.22914748625E+02  0.54269429769E+02  0.40317455418E+02  0.14394618011E+03  0.12499899537E+03 0.  0.
          2    1    1    2  501    0  0.45513907616E+02  0.92205039467E-01 -0.96635022992E+02  0.10681690857E+03  0.00000000000E+00 0. -1.
          1    1    1    2  502    0 -0.22599158991E+02 -0.54361634808E+02  0.51746766092E+03  0.52080580779E+03  0.00000000000E+00 0. -1.
         22    1    3    3    0    0  0.20031742650E+02  0.45343368767E+01  0.69188160699E+02  0.72172241931E+02  0.00000000000E+00 0.  1.
         22    1    3    3    0    0 -0.42946491276E+02  0.49735092892E+02 -0.28870705281E+02  0.71773938176E+02  0.00000000000E+00 0.  1.
</event>
<event>
 7    1  0.7961130E-006  0.1381508E+03  0.7818608E-02  0.1258477E+00
          2   -1    0    0  502    0  0.00000000000E+00  0.00000000000E+00  0.75361083650E+03  0.75361083650E+03  0.00000000000E+00 0. -1.
          1   -1    0    0  501    0 -0.00000000000E+00 -0.00000000000E+00 -0.21085851047E+03  0.21085851047E+03  0.00000000000E+00 0. -1.
         25    2    1    2    0    0  0.15459653183E+03 -0.16124647058E+03  0.51187154706E+03  0.57230988875E+03  0.12500246456E+03 0.  0.
          2    1    1    2  501    0 -0.93755123964E+02  0.95733453297E+02 -0.14341368309E+03  0.19627124559E+03  0.00000000000E+00 0. -1.
          1    1    1    2  502    0 -0.60841407863E+02  0.65513017278E+02  0.17429446206E+03  0.19588821263E+03  0.00000000000E+00 0. -1.
         22    1    3    3    0    0  0.60540145993E+02 -0.11480502594E+03  0.16502883297E+03  0.20995194443E+03  0.00000000000E+00 0.  1.
         22    1    3    3    0    0  0.94056385833E+02 -0.46441444636E+02  0.34684271409E+03  0.36235794432E+03  0.00000000000E+00 0.  1.
</event>
<event>
 7    1  0.7961130E-006  0.4839139E+02  0.7818608E-02  0.1459127E+00
          2   -1    0    0  502    0  0.00000000000E+00  0.00000000000E+00  0.21795325061E+04  0.21795325061E+04  0.00000000000E+00 0. -1.
          1   -1    0    0  501    0 -0.00000000000E+00 -0.00000000000E+00 -0.22937898977E+02  0.22937898977E+02  0.00000000000E+00 0. -1.
         25    2    1    2    0    0 -0.12915140358E+02  0.11905105327E+02  0.63564648643E+03  0.64805885478E+03  0.12500116463E+03 0.  0.
          2    1    1    2  501    0 -0.16451248342E+02 -0.48200747686E+02  0.23251479198E+02  0.55987381921E+02  0.00000000000E+00 0. -1.
          1    1    1    2  502    0  0.29366388700E+02  0.36295642358E+02  0.14976966415E+04  0.14984241684E+04  0.00000000000E+00 0. -1.
         22    1    3    3    0    0 -0.32875510322E+01  0.41262572101E+02  0.59767179422E+03  0.59910348142E+03  0.00000000000E+00 0.  1.
         22    1    3    3    0    0 -0.96275893260E+01 -0.29357466774E+02  0.37974692210E+02  0.48955373352E+02  0.00000000000E+00 0.  1.
</event>
<event>
 7    1  0.7961130E-006  0.7888737E+02  0.7818608E-02  0.1483527E+00
          2   -1    0    0  502    0  0.00000000000E+00  0.00000000000E+00  0.94941428973E+03  0.94941428973E+03  0.00000000000E+00 0. -1.
          1   -1    0    0  501    0 -0.00000000000E+00 -0.00000000000E+00 -0.25875564332E+02  0.25875564332E+02  0.00000000000E+00 0. -1.
         25    2    1    2    0    0  0.66090203383E+02  0.95595518154E+01  0.63203664919E+03  0.64772965086E+03  0.12499629866E+03 0.  0.
          2    1    1    2  501    0  0.23319331160E+02 -0.59016927000E+01  0.15393659219E+01  0.24103751366E+02  0.00000000000E+00 0. -1.
          1    1    1    2  502    0 -0.89409534543E+02 -0.36578591155E+01  0.28996271029E+03  0.30345645183E+03  0.00000000000E+00 0. -1.
         22    1    3    3    0    0  0.59898621616E+02 -0.28265617889E+02  0.57625611267E+03  0.58004990942E+03  0.00000000000E+00 0.  1.
         22    1    3    3    0    0  0.61915817667E+01  0.37825169705E+02  0.55780536512E+02  0.67679741441E+02  0.00000000000E+00 0.  1.
</event>
<event>
 7    1  0.7961130E-006  0.1010997E+03  0.7818608E-02  0.1377520E+00
          2   -1    0    0  502    0  0.00000000000E+00  0.00000000000E+00  0.23024808731E+03  0.23024808731E+03  0.00000000000E+00 0. -1.
          1   -1    0    0  501    0 -0.00000000000E+00 -0.00000000000E+00 -0.10715623783E+04  0.10715623783E+04  0.00000000000E+00 0. -1.
         25    2    1    2    0    0  0.80190712128E+02  0.11548570771E+03 -0.14663154322E+03  0.23852100981E+03  0.12499585455E+03 0.  0.
          2    1    1    2  501    0 -0.57836871198E+02 -0.79993598648E+02 -0.87378397380E+03  0.87934209064E+03  0.00000000000E+00 0. -1.
          1    1    1    2  502    0 -0.22353840929E+02 -0.35492109058E+02  0.17910122600E+03  0.18394736520E+03  0.00000000000E+00 0. -1.
         22    1    3    3    0    0  0.87789948748E+02  0.11969401513E+03 -0.16271005001E+03  0.22024598233E+03  0.00000000000E+00 0.  1.
         22    1    3    3    0    0 -0.75992366202E+01 -0.42083074197E+01  0.16078506791E+02  0.18275027474E+02  0.00000000000E+00 0.  1.
</event>
<event>
 7    1  0.7961130E-006  0.1036556E+03  0.7818608E-02  0.1292884E+00
          2   -1    0    0  502    0  0.00000000000E+00  0.00000000000E+00  0.44651627089E+03  0.44651627089E+03  0.00000000000E+00 0. -1.
          1   -1    0    0  501    0 -0.00000000000E+00 -0.00000000000E+00 -0.91276526047E+03  0.91276526047E+03  0.00000000000E+00 0. -1.
         25    2    1    2    0    0  0.34239783311E+02  0.43701874966E+02  0.11719063023E+03  0.18011509070E+03  0.12500234176E+03 0.  0.
          2    1    1    2  501    0 -0.94459266019E+02  0.42683975609E+02 -0.86881795797E+03  0.87497949622E+03  0.00000000000E+00 0. -1.
          1    1    1    2  502    0  0.60219482708E+02 -0.86385850575E+02  0.28537833816E+03  0.30418694444E+03  0.00000000000E+00 0. -1.
         22    1    3    3    0    0 -0.34536048424E+02 -0.22339518022E+02  0.40848085189E+02  0.57968601586E+02  0.00000000000E+00 0.  1.
         22    1    3    3    0    0  0.68775831735E+02  0.66041392988E+02  0.76342545046E+02  0.12214648911E+03  0.00000000000E+00 0.  1.
</event>
<event>
 7    1  0.7961130E-006  0.1076840E+03  0.7818608E-02  0.1307010E+00
          2   -1    0    0  502    0  0.00000000000E+00  0.00000000000E+00  0.10549163996E+04  0.10549163996E+04  0.00000000000E+00 0. -1.
          1   -1    0    0  501    0 -0.00000000000E+00 -0.00000000000E+00 -0.78108413653E+03  0.78108413653E+03  0.00000000000E+00 0. -1.
         25    2    1    2    0    0  0.25617053312E+01 -0.56154740813E+02  0.19955411643E+03  0.24208909234E+03  0.12500146397E+03 0.  0.
          2    1    1    2  501    0 -0.69546941469E+02  0.83661336691E+02 -0.75433513700E+03  0.76214007586E+03  0.00000000000E+00 0. -1.
          1    1    1    2  502    0  0.66985236138E+02 -0.27506595878E+02  0.82861328363E+03  0.83177136792E+03  0.00000000000E+00 0. -1.
         22    1    3    3    0    0  0.59377899108E+02 -0.36821045218E+01  0.79892484323E+02  0.99609747753E+02  0.00000000000E+00 0.  1.
         22    1    3    3    0    0 -0.56816193776E+02 -0.52472636291E+02  0.11966163211E+03  0.14247934458E+03  0.00000000000E+00 0.  1.
</event>
<event>
 7    1  0.7961130E-006  0.8513261E+02  0.7818608E-02  0.1401317E+00
          2   -1    0    0  502    0  0.00000000000E+00  0.00000000000E+00  0.10894258050E+04  0.10894258050E+04  0.00000000000E+00 0. -1.
          1   -1    0    0  501    0 -0.00000000000E+00 -0.00000000000E+00 -0.32987947715E+03  0.32987947715E+03  0.00000000000E+00 0. -1.
         25    2    1    2    0    0 -0.12468850133E+03 -0.73881987587E+01  0.24933864012E+03  0.30560878296E+03  0.12500065168E+03 0.  0.
          2    1    1    2  501    0  0.83657932938E+02  0.10323527778E+02 -0.29532254175E+03  0.30711663686E+03  0.00000000000E+00 0. -1.
          1    1    1    2  502    0  0.41030568396E+02 -0.29353290193E+01  0.80553022947E+03  0.80657986232E+03  0.00000000000E+00 0. -1.
         22    1    3    3    0    0 -0.42707511278E+02 -0.39226086373E+02  0.22293772896E+02  0.62125917954E+02  0.00000000000E+00 0.  1.
         22    1    3    3    0    0 -0.81980990056E+02  0.31837887614E+02  0.22704486723E+03  0.24348286501E+03  0.00000000000E+00 0.  1.
</event>
<event>
 7    1  0.7961130E-006  0.1032633E+03  0.7818608E-02  0.1391743E+00
          2   -1    0    0  502    0  0.00000000000E+00  0.00000000000E+00  0.19349270996E+03  0.19349270996E+03  0.00000000000E+00 0. -1.
          1   -1    0    0  501    0 -0.00000000000E+00 -0.00000000000E+00 -0.10001310169E+04  0.10001310169E+04  0.00000000000E+00 0. -1.
         25    2    1    2    0    0  0.30331674242E+02 -0.83157660671E+02 -0.46331024474E+03  0.48797274255E+03  0.12500323039E+03 0.  0.
          2    1    1    2  501    0 -0.70968985977E+01  0.11143401944E+03 -0.51661362175E+03  0.52854284674E+03  0.00000000000E+00 0. -1.
          1    1    1    2  502    0 -0.23234775644E+02 -0.28276358770E+02  0.17328555952E+03  0.17710813759E+03  0.00000000000E+00 0. -1.
         22    1    3    3    0    0 -0.15448985162E+02  0.25269984041E+02 -0.48873943391E+02  0.57148102143E+02  0.00000000000E+00 0.  1.
         22    1    3    3    0    0  0.45780659404E+02 -0.10842764471E+03 -0.41443630134E+03  0.43082464041E+03  0.00000000000E+00 0.  1.
</event>
<event>
 7    1  0.7961130E-006  0.1154255E+03  0.7818608E-02  0.1277264E+00
          2   -1    0    0  502    0  0.00000000000E+00  0.00000000000E+00  0.24135281331E+04  0.24135281331E+04  0.00000000000E+00 0. -1.
          1   -1    0    0  501    0 -0.00000000000E+00 -0.00000000000E+00 -0.63222413140E+03  0.63222413140E+03  0.00000000000E+00 0. -1.
         25    2    1    2    0    0 -0.16689548812E+03  0.89817674772E+02 -0.12296813962E+03  0.25818665928E+03  0.12497147280E+03 0.  0.
          2    1    1    2  501    0  0.10574281395E+03 -0.24911259160E+02 -0.43410320091E+03  0.44749044970E+03  0.00000000000E+00 0. -1.
          1    1    1    2  502    0  0.61152674172E+02 -0.64906415612E+02  0.23383753423E+04  0.23400751556E+04  0.00000000000E+00 0. -1.
         22    1    3    3    0    0 -0.99005883407E+02  0.11294014834E+03 -0.10781798144E+03  0.18488471862E+03  0.00000000000E+00 0. -1.
         22    1    3    3    0    0 -0.67889604712E+02 -0.23122473572E+02 -0.15150158178E+02  0.73301940662E+02  0.00000000000E+00 0. -1.
</event>
<event>
 7    1  0.7961130E-006  0.6742076E+02  0.7818608E-02  0.1488538E+00
          2   -1    0    0  502    0  0.00000000000E+00  0.00000000000E+00  0.96511369533E+03  0.96511369533E+03  0.00000000000E+00 0. -1.
          1   -1    0    0  501    0 -0.00000000000E+00 -0.00000000000E+00 -0.41809183148E+03  0.41809183148E+03  0.00000000000E+00 0. -1.
         25    2    1    2    0    0 -0.49785447564E+02  0.20218524193E+02  0.33508831000E+03  0.36165800280E+03  0.12499982392E+03 0.  0.
          2    1    1    2  501    0 -0.20109238172E+02 -0.18278238141E+02 -0.40236539695E+03  0.40328202057E+03  0.00000000000E+00 0. -1.
          1    1    1    2  502    0  0.69894685736E+02 -0.19402860517E+01  0.61429895080E+03  0.61826550345E+03  0.00000000000E+00 0. -1.
         22    1    3    3    0    0  0.11867791291E+02  0.47155878095E+02  0.54163970607E+02  0.72789127079E+02  0.00000000000E+00 0.  1.
         22    1    3    3    0    0 -0.61653238856E+02 -0.26937353902E+02  0.28092433939E+03  0.28886887572E+03  0.00000000000E+00 0.  1.
</event>
<event>
 7    1  0.7961130E-006  0.1174480E+03  0.7818608E-02  0.1300889E+00
          2   -1    0    0  502    0  0.00000000000E+00  0.00000000000E+00  0.15749455236E+03  0.15749455236E+03  0.00000000000E+00 0. -1.
          1   -1    0    0  501    0 -0.00000000000E+00 -0.00000000000E+00 -0.12892353788E+04  0.12892353788E+04  0.00000000000E+00 0. -1.
         25    2    1    2    0    0  0.10680393443E+03  0.13651561338E+03 -0.23212973826E+03  0.31552000339E+03  0.12500025621E+03 0.  0.
          2    1    1    2  501    0 -0.17904320310E+02 -0.67900837595E+02 -0.98663979244E+03  0.98913556627E+03  0.00000000000E+00 0. -1.
          1    1    1    2  502    0 -0.88899614120E+02 -0.68614775785E+02  0.87028704223E+02  0.14207436153E+03  0.00000000000E+00 0. -1.
         22    1    3    3    0    0  0.69752704018E+02  0.26018380020E+02 -0.16501842717E+03  0.18103446391E+03  0.00000000000E+00 0. -1.
         22    1    3    3    0    0  0.37051230412E+02  0.11049723336E+03 -0.67111311086E+02  0.13448553949E+03  0.00000000000E+00 0. -1.
</event>
<event>
 7    1  0.7961130E-006  0.4195316E+02  0.7818608E-02  0.1575491E+00
          2   -1    0    0  502    0  0.00000000000E+00  0.00000000000E+00  0.19742612626E+03  0.19742612626E+03  0.00000000000E+00 0. -1.
          1   -1    0    0  501    0 -0.00000000000E+00 -0.00000000000E+00 -0.15338120695E+04  0.15338120695E+04  0.00000000000E+00 0. -1.
         25    2    1    2    0    0 -0.29261165249E+02  0.11374687165E+02 -0.50059308932E+03  0.51691935535E+03  0.12500631809E+03 0.  0.
          2    1    1    2  501    0 -0.11450884192E+02 -0.21811367358E+02 -0.10225724179E+04  0.10228691061E+04  0.00000000000E+00 0. -1.
          1    1    1    2  502    0  0.40712049441E+02  0.10436680192E+02  0.18677956392E+03  0.19144973429E+03  0.00000000000E+00 0. -1.
         22    1    3    3    0    0  0.42098099661E+02 -0.17272443841E+02 -0.11386389219E+03  0.12261962834E+03  0.00000000000E+00 0.  1.
         22    1    3    3    0    0 -0.71359264909E+02  0.28647131007E+02 -0.38672919713E+03  0.39429972700E+03  0.00000000000E+00 0.  1.
</event>
<event>
 7    1  0.7961130E-006  0.9229401E+02  0.7818608E-02  0.1427721E+00
          2   -1    0    0  502    0  0.00000000000E+00  0.00000000000E+00  0.15671609840E+04  0.15671609840E+04  0.00000000000E+00 0. -1.
          1   -1    0    0  501    0 -0.00000000000E+00 -0.00000000000E+00 -0.18315717066E+04  0.18315717066E+04  0.00000000000E+00 0. -1.
         25    2    1    2    0    0 -0.12890455547E+02  0.12169061133E+03 -0.10121994578E+03  0.20210011524E+03  0.12499684166E+03 0.  0.
          2    1    1    2  501    0  0.11771331363E+02 -0.90791052995E+02 -0.16785065223E+04  0.16810014054E+04  0.00000000000E+00 0. -1.
          1    1    1    2  502    0  0.11191241846E+01 -0.30899558339E+02  0.15153157455E+04  0.15156311700E+04  0.00000000000E+00 0. -1.
         22    1    3    3    0    0  0.53122059840E+02  0.73350847665E+02 -0.70239830721E+02  0.11461210196E+03  0.00000000000E+00 0.  1.
         22    1    3    3    0    0 -0.66012515388E+02  0.48339763669E+02 -0.30980115058E+02  0.87488013284E+02  0.00000000000E+00 0.  1.
</event>
<event>
 7    1  0.7961130E-006  0.4214170E+02  0.7818608E-02  0.1596043E+00
          2   -1    0    0  502    0  0.00000000000E+00  0.00000000000E+00  0.43830904204E+03  0.43830904204E+03  0.00000000000E+00 0. -1.
          1   -1    0    0  501    0 -0.00000000000E+00 -0.00000000000E+00 -0.27039570223E+03  0.27039570223E+03  0.00000000000E+00 0. -1.
         25    2    1    2    0    0  0.22728932485E+02  0.39173861209E+01 -0.34559378548E+02  0.13172340385E+03  0.12499901676E+03 0.  0.
          2    1    1    2  501    0 -0.43007438534E+02  0.35853752410E+01 -0.18446188790E+03  0.18944308584E+03  0.00000000000E+00 0. -1.
          1    1    1    2  502    0  0.20278506049E+02 -0.75027613618E+01  0.38693460626E+03  0.38753825457E+03  0.00000000000E+00 0. -1.
         22    1    3    3    0    0 -0.21091262013E+02  0.38188060500E+02 -0.56965071967E+02  0.71750879592E+02  0.00000000000E+00 0. -1.
         22    1    3    3    0    0  0.43820194499E+02 -0.34270674379E+02  0.22405693419E+02  0.59972524258E+02  0.00000000000E+00 0. -1.
</event>
<event>
 7    1  0.7961130E-006  0.1751343E+03  0.7818608E-02  0.1337483E+00
          2   -1    0    0  502    0  0.00000000000E+00  0.00000000000E+00  0.16977143407E+04  0.16977143407E+04  0.00000000000E+00 0. -1.
          1   -1    0    0  501    0 -0.00000000000E+00 -0.00000000000E+00 -0.69588450426E+02  0.69588450426E+02  0.00000000000E+00 0. -1.
         25    2    1    2    0    0  0.15914062632E+03  0.58562567089E+02  0.10685983816E+04  0.10891665375E+04  0.12500372808E+03 0.  0.
          2    1    1    2  501    0 -0.15058731511E+03 -0.91410884934E+02  0.73424867147E+02  0.19084994229E+03  0.00000000000E+00 0. -1.
          1    1    1    2  502    0 -0.85533112103E+01  0.32848317845E+02  0.48610264150E+03  0.48728631131E+03  0.00000000000E+00 0. -1.
         22    1    3    3    0    0  0.58671326296E+02 -0.14942651462E+02  0.63994266056E+03  0.64280029260E+03  0.00000000000E+00 0. -1.
         22    1    3    3    0    0  0.10046930003E+03  0.73505218551E+02  0.42865572102E+03  0.44636624488E+03  0.00000000000E+00 0. -1.
</event>
<event>
 7    1  0.7961130E-006  0.2965349E+02  0.7818608E-02  0.1661260E+00
          2   -1    0    0  502    0  0.00000000000E+00  0.00000000000E+00  0.59744481868E+03  0.59744481868E+03  0.00000000000E+00 0. -1.
          1   -1    0    0  501    0 -0.00000000000E+00 -0.00000000000E+00 -0.18268370457E+03  0.18268370457E+03  0.00000000000E+00 0. -1.
         25    2    1    2    0    0 -0.10230945665E+02  0.38916701426E+01  0.31181520083E+02  0.12929418560E+03  0.12499952755E+03 0.  0.
          2    1    1    2  501    0 -0.86944134163E+01  0.19166656245E+02 -0.13236516302E+03  0.13402794454E+03  0.00000000000E+00 0. -1.
          1    1    1    2  502    0  0.18925359082E+02 -0.23058326388E+02  0.51594475705E+03  0.51680639311E+03  0.00000000000E+00 0. -1.
         22    1    3    3    0    0  0.42590354541E+02 -0.36409123045E+02  0.31070333061E+00  0.56032660810E+02  0.00000000000E+00 0.  1.
         22    1    3    3    0    0 -0.52821300206E+02  0.40300793188E+02  0.30870816753E+02  0.73261524786E+02  0.00000000000E+00 0.  1.
</event>
<event>
 7    1  0.7961130E-006  0.8416948E+02  0.7818608E-02  0.1340294E+00
          2   -1    0    0  502    0  0.00000000000E+00  0.00000000000E+00  0.26032041726E+04  0.26032041726E+04  0.00000000000E+00 0. -1.
          1   -1    0    0  501    0 -0.00000000000E+00 -0.00000000000E+00 -0.25255716231E+02  0.25255716231E+02  0.00000000000E+00 0. -1.
         25    2    1    2    0    0 -0.88570059252E+02 -0.43716821629E+02  0.17780554807E+04  0.17851783713E+04  0.12499883491E+03 0.  0.
          2    1    1    2  501    0  0.58893373171E+02 -0.35809626070E+02  0.42135603873E+02  0.80784700510E+02  0.00000000000E+00 0. -1.
          1    1    1    2  502    0  0.29676686080E+02  0.79526447698E+02  0.75775737177E+03  0.76249681707E+03  0.00000000000E+00 0. -1.
         22    1    3    3    0    0 -0.46306680510E+02  0.61865605190E+01  0.18589965648E+03  0.19168010974E+03  0.00000000000E+00 0.  1.
         22    1    3    3    0    0 -0.42263378741E+02 -0.49903382148E+02  0.15921558243E+04  0.15934982615E+04  0.00000000000E+00 0.  1.
</event>
<event>
 7    1  0.7961130E-006  0.8713156E+02  0.7818608E-02  0.1361103E+00
          2   -1    0    0  502    0  0.00000000000E+00  0.00000000000E+00  0.95097980656E+02  0.95097980656E+02  0.00000000000E+00 0. -1.
          1   -1    0    0  501    0 -0.00000000000E+00 -0.00000000000E+00 -0.21892527318E+04  0.21892527318E+04  0.00000000000E+00 0. -1.
         25    2    1    2    0    0  0.50315311158E+02  0.86654172537E+02 -0.17735308088E+03  0.23899636716E+03  0.12499828824E+03 0.  0.
          2    1    1    2  501    0  0.54450689194E+01 -0.87063258666E+02 -0.19678333159E+04  0.19697658792E+04  0.00000000000E+00 0. -1.
          1    1    1    2  502    0 -0.55760380078E+02  0.40908612964E+00  0.51031645671E+02  0.75588466037E+02  0.00000000000E+00 0. -1.
         22    1    3    3    0    0  0.27193555202E+02  0.11754196767E+03 -0.12252736703E+03  0.17195510833E+03  0.00000000000E+00 0. -1.
         22    1    3    3    0    0  0.23121755957E+02 -0.30887795135E+02 -0.54825713844E+02  0.67041258828E+02  0.00000000000E+00 0. -1.
</event>
<event>
 7    1  0.7961130E-006  0.5219310E+02  0.7818608E-02  0.1442872E+00
          2   -1    0    0  502    0  0.00000000000E+00  0.00000000000E+00  0.13585052017E+04  0.13585052017E+04  0.00000000000E+00 0. -1.
          1   -1    0    0  501    0 -0.00000000000E+00 -0.00000000000E+00 -0.88783039648E+02  0.88783039648E+02  0.00000000000E+00 0. -1.
         25    2    1    2    0    0  0.10215856941E+02  0.66631931532E+02  0.76743499028E+03  0.78046643373E+03  0.12500884700E+03 0.  0.
          2    1    1    2  501    0  0.32640175582E+02 -0.36258630259E+02 -0.73732935770E+02  0.88411623374E+02  0.00000000000E+00 0. -1.
          1    1    1    2  502    0 -0.42856032523E+02 -0.30373301273E+02  0.57602010753E+03  0.57841018424E+03  0.00000000000E+00 0. -1.
         22    1    3    3    0    0  0.45603006094E+02  0.88288815892E+02  0.49322675515E+03  0.50313733829E+03  0.00000000000E+00 0.  1.
         22    1    3    3    0    0 -0.35387149153E+02 -0.21656884360E+02  0.27420823513E+03  0.27732909544E+03  0.00000000000E+00 0.  1.
</event>
<event>
 7    1  0.7961130E-006  0.2775888E+03  0.7818608E-02  0.1179844E+00
          2   -1    0    0  502    0  0.00000000000E+00  0.00000000000E+00  0.46352934449E+03  0.46352934449E+03  0.00000000000E+00 0. -1.
          1   -1    0    0  501    0 -0.00000000000E+00 -0.00000000000E+00 -0.10455941897E+04  0.10455941897E+04  0.00000000000E+00 0. -1.
         25    2    1    2    0    0 -0.29733412512E+03 -0.12114893126E+03 -0.37352662012E+03  0.50816556005E+03  0.12500181990E+03 0.  0.
          2    1    1    2  501    0  0.23940063236E+02  0.98941648524E+02 -0.55205716927E+03  0.56136413724E+03  0.00000000000E+00 0. -1.
          1    1    1    2  502    0  0.27339406188E+03  0.22207282736E+02  0.34351894415E+03  0.43959383693E+03  0.00000000000E+00 0. -1.
         22    1    3    3    0    0 -0.30416786480E+02 -0.63682719218E+02 -0.92460544507E+02  0.11631690297E+03  0.00000000000E+00 0. -1.
         22    1    3    3    0    0 -0.26691733864E+03 -0.57466212042E+02 -0.28106607561E+03  0.39184865708E+03  0.00000000000E+00 0. -1.
</event>
<event>
 7    1  0.7961130E-006  0.1017665E+03  0.7818608E-02  0.1369008E+00
          2   -1    0    0  502    0  0.00000000000E+00  0.00000000000E+00  0.36949957443E+03  0.36949957443E+03  0.00000000000E+00 0. -1.
          1   -1    0    0  501    0 -0.00000000000E+00 -0.00000000000E+00 -0.12061711610E+03  0.12061711610E+03  0.00000000000E+00 0. -1.
         25    2    1    2    0    0 -0.53742284454E+01  0.12704191850E+03  0.13481636806E+02  0.17881281553E+03  0.12499494821E+03 0.  0.
          2    1    1    2  501    0  0.31970319799E+02 -0.31236733254E+02 -0.10628088096E+02  0.45943346733E+02  0.00000000000E+00 0. -1.
          1    1    1    2  502    0 -0.26596091354E+02 -0.95805185245E+02  0.24602890962E+03  0.26536052827E+03  0.00000000000E+00 0. -1.
         22    1    3    3    0    0  0.94847863191E+01  0.90178967277E+02 -0.50275945393E+02  0.10368161841E+03  0.00000000000E+00 0. -1.
         22    1    3    3    0    0 -0.14859014764E+02  0.36862951222E+02  0.63757582198E+02  0.75131197118E+02  0.00000000000E+00 0. -1.
</event>
<event>
 7    1  0.7961130E-006  0.8473460E+02  0.7818608E-02  0.1397772E+00
          2   -1    0    0  502    0  0.00000000000E+00  0.00000000000E+00  0.74899661166E+03  0.74899661166E+03  0.00000000000E+00 0. -1.
          1   -1    0    0  501    0 -0.00000000000E+00 -0.00000000000E+00 -0.15340632133E+03  0.15340632133E+03  0.00000000000E+00 0. -1.
         25    2    1    2    0    0  0.55219057811E+02 -0.44996493155E+02  0.55788641020E+03  0.57613961250E+03  0.12500311062E+03 0.  0.
          2    1    1    2  501    0  0.18377781083E+02 -0.38327569053E+02 -0.12340482484E+03  0.13052009876E+03  0.00000000000E+00 0. -1.
          1    1    1    2  502    0 -0.73596838894E+02  0.83324062209E+02  0.16110870497E+03  0.19574322173E+03  0.00000000000E+00 0. -1.
         22    1    3    3    0    0  0.74450703916E+02  0.18557082765E+02  0.26965591486E+03  0.28035974221E+03  0.00000000000E+00 0. -1.
         22    1    3    3    0    0 -0.19231646105E+02 -0.63553575920E+02  0.28823049534E+03  0.29577987029E+03  0.00000000000E+00 0. -1.
</event>
<event>
 7    1  0.7961130E-006  0.7269395E+02  0.7818608E-02  0.1373855E+00
          2   -1    0    0  502    0  0.00000000000E+00  0.00000000000E+00  0.18377818790E+04  0.18377818790E+04  0.00000000000E+00 0. -1.
          1   -1    0    0  501    0 -0.00000000000E+00 -0.00000000000E+00 -0.24762043058E+04  0.24762043058E+04  0.00000000000E+00 0. -1.
         25    2    1    2    0    0  0.61956675142E+01  0.41417343688E+02 -0.34326665948E+02  0.13622416121E+03  0.12499967780E+03 0.  0.
          2    1    1    2  501    0  0.53268931347E+02 -0.50249844238E+02 -0.23898622382E+04  0.23909839279E+04  0.00000000000E+00 0. -1.
          1    1    1    2  502    0 -0.59464598861E+02  0.88325005500E+01  0.17857664773E+04  0.17867780957E+04  0.00000000000E+00 0. -1.
         22    1    3    3    0    0  0.58447397932E+02 -0.85077129121E+01 -0.95753977325E+01  0.59834502971E+02  0.00000000000E+00 0.  1.
         22    1    3    3    0    0 -0.52251730418E+02  0.49925056600E+02 -0.24751268216E+02  0.76389658243E+02  0.00000000000E+00 0.  1.
</event>
<event>
 7    1  0.7961130E-006  0.4915153E+02  0.7818608E-02  0.1456734E+00
          2   -1    0    0  502    0  0.00000000000E+00  0.00000000000E+00  0.90908625084E+03  0.90908625084E+03  0.00000000000E+00 0. -1.
          1   -1    0    0  501    0 -0.00000000000E+00 -0.00000000000E+00 -0.17849603512E+04  0.17849603512E+04  0.00000000000E+00 0. -1.
         25    2    1    2    0    0 -0.95166297276E+02  0.44297934342E+01  0.56740309366E+02  0.16707699975E+03  0.12497605343E+03 0.  0.
          2    1    1    2  501    0  0.46767204722E+02 -0.81026621604E+00 -0.17287366566E+04  0.17293693232E+04  0.00000000000E+00 0. -1.
          1    1    1    2  502    0  0.48399092554E+02 -0.36195272182E+01  0.79612224694E+03  0.79760027909E+03  0.00000000000E+00 0. -1.
         22    1    3    3    0    0 -0.59913665450E+02 -0.23557811842E+02  0.90322697165E+02  0.11091802121E+03  0.00000000000E+00 0.  1.
         22    1    3    3    0    0 -0.35252631826E+02  0.27987605277E+02 -0.33582387799E+02  0.56158978535E+02  0.00000000000E+00 0.  1.
</event>
<event>
 7    1  0.7961130E-006  0.6620800E+02  0.7818608E-02  0.1396912E+00
          2   -1    0    0  502    0  0.00000000000E+00  0.00000000000E+00  0.61342442399E+02  0.61342442399E+02  0.00000000000E+00 0. -1.
          1   -1    0    0  501    0 -0.00000000000E+00 -0.00000000000E+00 -0.14187239003E+04  0.14187239003E+04  0.00000000000E+00 0. -1.
         25    2    1    2    0    0 -0.39488148345E+02  0.35879088789E+02 -0.73117070621E+02  0.15432998528E+03  0.12500006187E+03 0.  0.
          2    1    1    2  501    0 -0.42985234339E+02 -0.33946316320E+02 -0.12198293111E+04  0.12210584061E+04  0.00000000000E+00 0. -1.
          1    1    1    2  502    0  0.82473382683E+02 -0.19327724691E+01 -0.64435076172E+02  0.10467795137E+03  0.00000000000E+00 0. -1.
         22    1    3    3    0    0 -0.23050326034E+02 -0.35414954830E+02  0.10178606046E+02  0.43464244810E+02  0.00000000000E+00 0. -1.
         22    1    3    3    0    0 -0.16437822311E+02  0.71294043619E+02 -0.83295676667E+02  0.11086574047E+03  0.00000000000E+00 0. -1.
</event>
<event>
 7    1  0.7961130E-006  0.3019843E+03  0.7818608E-02  0.1174798E+00
          2   -1    0    0  502    0  0.00000000000E+00  0.00000000000E+00  0.17006833172E+04  0.17006833172E+04  0.00000000000E+00 0. -1.
          1   -1    0    0  501    0 -0.00000000000E+00 -0.00000000000E+00 -0.53763672693E+03  0.53763672693E+03  0.00000000000E+00 0. -1.
         25    2    1    2    0    0  0.13204358092E+03 -0.19753942843E+03  0.95343251282E+02  0.28490980400E+03  0.12500371116E+03 0.  0.
          2    1    1    2  501    0 -0.12806302640E+03  0.29651829355E+03 -0.38204502197E+03  0.50028155668E+03  0.00000000000E+00 0. -1.
          1    1    1    2  502    0 -0.39805545132E+01 -0.98978865120E+02  0.14497483609E+04  0.14531286834E+04  0.00000000000E+00 0. -1.
         22    1    3    3    0    0  0.89744101550E+02 -0.42961672389E+02  0.72320086483E+02  0.12300367460E+03  0.00000000000E+00 0.  1.
         22    1    3    3    0    0  0.42299479368E+02 -0.15457775604E+03  0.23023164799E+02  0.16190612939E+03  0.00000000000E+00 0.  1.
</event>
<event>
 7    1  0.7961130E-006  0.1902233E+03  0.7818608E-02  0.1336145E+00
          2   -1    0    0  502    0  0.00000000000E+00  0.00000000000E+00  0.22725174079E+03  0.22725174079E+03  0.00000000000E+00 0. -1.
          1   -1    0    0  501    0 -0.00000000000E+00 -0.00000000000E+00 -0.61593652017E+03  0.61593652017E+03  0.00000000000E+00 0. -1.
         25    2    1    2    0    0  0.19601833201E+03 -0.28807276720E+02 -0.14991144352E+02  0.23473851524E+03  0.12499756177E+03 0.  0.
          2    1    1    2  501    0 -0.96601478603E+01  0.30105495414E+02 -0.41611944152E+03  0.41731888158E+03  0.00000000000E+00 0. -1.
          1    1    1    2  502    0 -0.18635818415E+03 -0.12982186942E+01  0.42425806494E+02  0.19113086415E+03  0.00000000000E+00 0. -1.
         22    1    3    3    0    0  0.75036072452E+01 -0.52045875038E+01 -0.41875133905E+02  0.42859289452E+02  0.00000000000E+00 0.  1.
         22    1    3    3    0    0  0.18851472477E+03 -0.23602689216E+02  0.26883989553E+02  0.19187922578E+03  0.00000000000E+00 0.  1.
</event>
<event>
 7    1  0.7961130E-006  0.8366618E+02  0.7818608E-02  0.1456394E+00
          2   -1    0    0  502    0  0.00000000000E+00  0.00000000000E+00  0.17758604924E+04  0.17758604924E+04  0.00000000000E+00 0. -1.
          1   -1    0    0  501    0 -0.00000000000E+00 -0.00000000000E+00 -0.14495858465E+03  0.14495858465E+03  0.00000000000E+00 0. -1.
         25    2    1    2    0    0 -0.75405932285E+02 -0.53130623356E+02  0.14626029573E+04  0.14708298620E+04  0.12499661757E+03 0.  0.
          2    1    1    2  501    0  0.51140016390E+02  0.66168704262E+02 -0.12773543959E+03  0.15267593533E+03  0.00000000000E+00 0. -1.
          1    1    1    2  502    0  0.24265915895E+02 -0.13038080906E+02  0.29603438998E+03  0.29731327968E+03  0.00000000000E+00 0. -1.
         22    1    3    3    0    0 -0.52884098546E+01 -0.79665741742E+02  0.69310658608E+03  0.69769000089E+03  0.00000000000E+00 0.  1.
         22    1    3    3    0    0 -0.70117522430E+02  0.26535118386E+02  0.76949637125E+03  0.77313986111E+03  0.00000000000E+00 0.  1.
</event>
<event>
 7    1  0.7961130E-006  0.1767493E+03  0.7818608E-02  0.1201257E+00
          2   -1    0    0  502    0  0.00000000000E+00  0.00000000000E+00  0.37807351570E+03  0.37807351570E+03  0.00000000000E+00 0. -1.
          1   -1    0    0  501    0 -0.00000000000E+00 -0.00000000000E+00 -0.44890807527E+03  0.44890807527E+03  0.00000000000E+00 0. -1.
         25    2    1    2    0    0 -0.25654160818E+03 -0.61375381767E+02 -0.16014385670E+03  0.33294408939E+03  0.12500071041E+03 0.  0.
          2    1    1    2  501    0  0.89535398856E+02  0.88967323318E+02 -0.15307208315E+03  0.19840069281E+03  0.00000000000E+00 0. -1.
          1    1    1    2  502    0  0.16700620933E+03 -0.27591941551E+02  0.24238138029E+03  0.29563680878E+03  0.00000000000E+00 0. -1.
         22    1    3    3    0    0 -0.26931125795E+03 -0.48528597910E+02 -0.15260841187E+03  0.31332555888E+03  0.00000000000E+00 0. -1.
         22    1    3    3    0    0  0.12769649764E+02 -0.12846783857E+02 -0.75354448348E+01  0.19618530511E+02  0.00000000000E+00 0. -1.
</event>
<event>
 7    1  0.7961130E-006  0.1005596E+03  0.7818608E-02  0.1282267E+00
          2   -1    0    0  502    0  0.00000000000E+00  0.00000000000E+00  0.99377057872E+03  0.99377057872E+03  0.00000000000E+00 0. -1.
          1   -1    0    0  501    0 -0.00000000000E+00 -0.00000000000E+00 -0.40196403477E+02  0.40196403477E+02  0.00000000000E+00 0. -1.
         25    2    1    2    0    0  0.11727718567E+01  0.29618284281E+02  0.14945858292E+03  0.19708152723E+03  0.12499856884E+03 0.  0.
          2    1    1    2  501    0  0.91487591720E+02  0.41740231267E+02  0.23068847921E+03  0.25165333454E+03  0.00000000000E+00 0. -1.
          1    1    1    2  502    0 -0.92660363577E+02 -0.71358515548E+02  0.57342711311E+03  0.58523212042E+03  0.00000000000E+00 0. -1.
         22    1    3    3    0    0 -0.39538913166E+01  0.33655137200E+01  0.16570450251E+03  0.16578583199E+03  0.00000000000E+00 0.  1.
         22    1    3    3    0    0  0.51266631733E+01  0.26252770561E+02 -0.16245919586E+02  0.31295695241E+02  0.00000000000E+00 0.  1.
</event>
<event>
 7    1  0.7961130E-006  0.1024695E+03  0.7818608E-02  0.1317648E+00
          2   -1    0    0  502    0  0.00000000000E+00  0.00000000000E+00  0.64647996159E+03  0.64647996159E+03  0.00000000000E+00 0. -1.
          1   -1    0    0  501    0 -0.00000000000E+00 -0.00000000000E+00 -0.66672570720E+03  0.66672570720E+03  0.00000000000E+00 0. -1.
         25    2    1    2    0    0  0.99938163035E+02  0.51667648478E+02  0.37523450966E+03  0.41119685251E+03  0.12499892779E+03 0.  0.
          2    1    1    2  501    0  0.34701805043E+01 -0.69032331297E+02 -0.63593796447E+03  0.63968320251E+03  0.00000000000E+00 0. -1.
          1    1    1    2  502    0 -0.10340834354E+03  0.17364682819E+02  0.24045770920E+03  0.26232561377E+03  0.00000000000E+00 0. -1.
         22    1    3    3    0    0  0.79950471774E+02 -0.26537328412E+02  0.15147628453E+03  0.17332447176E+03  0.00000000000E+00 0. -1.
         22    1    3    3    0    0  0.19987691260E+02  0.78204976890E+02  0.22375822512E+03  0.23787238075E+03  0.00000000000E+00 0. -1.
</event>
<event>
 7    1  0.7961130E-006  0.1302282E+03  0.7818608E-02  0.1378202E+00
          2   -1    0    0  502    0  0.00000000000E+00  0.00000000000E+00  0.17205397685E+04  0.17205397685E+04  0.00000000000E+00 0. -1.
          1   -1    0    0  501    0 -0.00000000000E+00 -0.00000000000E+00 -0.10310984534E+04  0.10310984534E+04  0.00000000000E+00 0. -1.
         25    2    1    2    0    0 -0.94647028984E+01 -0.14775636662E+03 -0.60392889907E+01  0.19386257033E+03  0.12499879473E+03 0.  0.
          2    1    1    2  501    0  0.26217340573E+02  0.19006294153E+02 -0.92827393265E+03  0.92883856627E+03  0.00000000000E+00 0. -1.
          1    1    1    2  502    0 -0.16752637675E+02  0.12875007247E+03  0.16237545367E+04  0.16289370852E+04  0.00000000000E+00 0. -1.
         22    1    3    3    0    0  0.12432972211E+02 -0.78085443610E+02 -0.63117979239E+02  0.10117210389E+03  0.00000000000E+00 0. -1.
         22    1    3    3    0    0 -0.21897675109E+02 -0.69670923011E+02  0.57078690249E+02  0.92690466440E+02  0.00000000000E+00 0. -1.
</event>
<event>
 7    1  0.7961130E-006  0.1316723E+03  0.7818608E-02  0.1424347E+00
          2   -1    0    0  502    0  0.00000000000E+00  0.00000000000E+00  0.19320345118E+04  0.19320345118E+04  0.00000000000E+00 0. -1.
          1   -1    0    0  501    0 -0.00000000000E+00 -0.00000000000E+00 -0.28931981775E+03  0.28931981775E+03  0.00000000000E+00 0. -1.
         25    2    1    2    0    0 -0.69111579365E+02 -0.13245113723E+03  0.11327358338E+04  0.11493631929E+04  0.12500226405E+03 0.  0.
          2    1    1    2  501    0  0.49641318320E+02  0.12170770618E+03 -0.26546733489E+03  0.29622615030E+03  0.00000000000E+00 0. -1.
          1    1    1    2  502    0  0.19470261044E+02  0.10743431048E+02  0.77544619514E+03  0.77576498628E+03  0.00000000000E+00 0. -1.
         22    1    3    3    0    0  0.27156406731E+02  0.37057875001E+01  0.13013846764E+03  0.13299332332E+03  0.00000000000E+00 0.  1.
         22    1    3    3    0    0 -0.96267986096E+02 -0.13615692473E+03  0.10025973661E+04  0.10163698696E+04  0.00000000000E+00 0.  1.
</event>
<event>
 7    1  0.7961130E-006  0.1483776E+03  0.7818608E-02  0.1370010E+00
          2   -1    0    0  502    0  0.00000000000E+00  0.00000000000E+00  0.22841815404E+03  0.22841815404E+03  0.00000000000E+00 0. -1.
          1   -1    0    0  501    0 -0.00000000000E+00 -0.00000000000E+00 -0.45583048140E+03  0.45583048140E+03  0.00000000000E+00 0. -1.
         25    2    1    2    0    0  0.27818656202E+02  0.16726497378E+03 -0.55755861460E+02  0.21791131974E+03  0.12500071239E+03 0.  0.
          2    1    1    2  501    0  0.91365586331E+01 -0.28997313105E+02 -0.28323477709E+03  0.28486182585E+03  0.00000000000E+00 0. -1.
          1    1    1    2  502    0 -0.36955214835E+02 -0.13826766067E+03  0.11157831119E+03  0.18147548985E+03  0.00000000000E+00 0. -1.
         22    1    3    3    0    0  0.31905928602E+02  0.78336721094E+01  0.22938559470E+02  0.40069092943E+02  0.00000000000E+00 0.  1.
         22    1    3    3    0    0 -0.40872724008E+01  0.15943130167E+03 -0.78694420930E+02  0.17784222680E+03  0.00000000000E+00 0.  1.
</event>
<event>
 7    1  0.7961130E-006  0.1216673E+03  0.7818608E-02  0.1316523E+00
          2   -1    0    0  502    0  0.00000000000E+00  0.00000000000E+00  0.14060619428E+04  0.14060619428E+04  0.00000000000E+00 0. -1.
          1   -1    0    0  501    0 -0.00000000000E+00 -0.00000000000E+00 -0.80545476367E+03  0.80545476367E+03  0.00000000000E+00 0. -1.
         25    2    1    2    0    0  0.16331560243E+02  0.83726428414E+02 -0.20450352919E+03  0.25440926856E+03  0.12500219118E+03 0.  0.
          2    1    1    2  501    0 -0.64362440327E+02 -0.11765180098E+03 -0.56755455397E+03  0.58318319740E+03  0.00000000000E+00 0. -1.
          1    1    1    2  502    0  0.48030880083E+02  0.33925372565E+02  0.13726652623E+04  0.13739242406E+04  0.00000000000E+00 0. -1.
         22    1    3    3    0    0  0.54274945999E+02  0.68002023008E+02 -0.63956284639E+02  0.10798356931E+03  0.00000000000E+00 0. -1.
         22    1    3    3    0    0 -0.37943385755E+02  0.15724405406E+02 -0.14054724456E+03  0.14642569925E+03  0.00000000000E+00 0. -1.
</event>
<event>
 7    1  0.7961130E-006  0.5663359E+02  0.7818608E-02  0.1460072E+00
          2   -1    0    0  502    0  0.00000000000E+00  0.00000000000E+00  0.11611373430E+04  0.11611373430E+04  0.00000000000E+00 0. -1.
          1   -1    0    0  501    0 -0.00000000000E+00 -0.00000000000E+00 -0.20510519299E+02  0.20510519299E+02  0.00000000000E+00 0. -1.
         25    2    1    2    0    0  0.17057771884E+02 -0.67084444191E+02  0.66906006396E+03  0.68414734435E+03  0.12499971743E+03 0.  0.
          2    1    1    2  501    0  0.19924692933E+02  0.52869970565E+02  0.54318990202E+02  0.78375888337E+02  0.00000000000E+00 0. -1.
          1    1    1    2  502    0 -0.36982464817E+02  0.14214473625E+02  0.41724776956E+03  0.41912462964E+03  0.00000000000E+00 0. -1.
         22    1    3    3    0    0  0.29702909848E+02  0.23746038699E+02  0.87576047427E+02  0.95476181795E+02  0.00000000000E+00 0.  1.
         22    1    3    3    0    0 -0.12645137964E+02 -0.90830482890E+02  0.58148401654E+03  0.58867116255E+03  0.00000000000E+00 0.  1.
</event>
<event>
 7    1  0.7961130E-006  0.7693153E+02  0.7818608E-02  0.1358052E+00
          2   -1    0    0  502    0  0.00000000000E+00  0.00000000000E+00  0.14962418176E+04  0.14962418176E+04  0.00000000000E+00 0. -1.
          1   -1    0    0  501    0 -0.00000000000E+00 -0.00000000000E+00 -0.36203515507E+02  0.36203515507E+02  0.00000000000E+00 0. -1.
         25    2    1    2    0    0 -0.37146616386E+02 -0.77393254101E+02  0.12382634086E+04  0.12475140543E+04  0.12500183920E+03 0.  0.
          2    1    1    2  501    0 -0.27478145893E+02  0.72677795257E+02  0.31351850212E+02  0.83785732299E+02  0.00000000000E+00 0. -1.
          1    1    1    2  502    0  0.64624762279E+02  0.47154588442E+01  0.19042304326E+03  0.20114554645E+03  0.00000000000E+00 0. -1.
         22    1    3    3    0    0 -0.33426795283E+02 -0.10285330460E+03  0.11621063098E+04  0.11671277686E+04  0.00000000000E+00 0. -1.
         22    1    3    3    0    0 -0.37198211027E+01  0.25460050502E+02  0.76157098814E+02  0.80386285773E+02  0.00000000000E+00 0. -1.
</event>
<event>
 7    1  0.7961130E-006  0.1753343E+03  0.7818608E-02  0.1200489E+00
          2   -1    0    0  502    0  0.00000000000E+00  0.00000000000E+00  0.74611599921E+03  0.74611599921E+03  0.00000000000E+00 0. -1.
          1   -1    0    0  501    0 -0.00000000000E+00 -0.00000000000E+00 -0.55370755168E+03  0.55370755168E+03  0.00000000000E+00 0. -1.
         25    2    1    2    0    0 -0.25059664297E+03  0.73285411644E+01 -0.46118250949E+02  0.28390717326E+03  0.12499601983E+03 0.  0.
          2    1    1    2  501    0  0.14602217848E+03 -0.81666287995E+02 -0.36361360271E+03  0.40025830570E+03  0.00000000000E+00 0. -1.
          1    1    1    2  502    0  0.10457446448E+03  0.74337746831E+02  0.60214030119E+03  0.61565807194E+03  0.00000000000E+00 0. -1.
         22    1    3    3    0    0 -0.61942753125E+02  0.19135102139E+02  0.40013973090E+02  0.76185135302E+02  0.00000000000E+00 0. -1.
         22    1    3    3    0    0 -0.18865388984E+03 -0.11806560975E+02 -0.86132224038E+02  0.20772203796E+03  0.00000000000E+00 0. -1.
</event>
<event>
 7    1  0.7961130E-006  0.3474138E+03  0.7818608E-02  0.1173841E+00
          2   -1    0    0  502    0  0.00000000000E+00  0.00000000000E+00  0.14051060438E+04  0.14051060438E+04  0.00000000000E+00 0. -1.
          1   -1    0    0  501    0 -0.00000000000E+00 -0.00000000000E+00 -0.20747943668E+03  0.20747943668E+03  0.00000000000E+00 0. -1.
         25    2    1    2    0    0  0.60885005816E+02  0.36524968791E+03  0.34875063525E+03  0.52379977917E+03  0.12499953851E+03 0.  0.
          2    1    1    2  501    0  0.21559282431E+02 -0.33732039745E+03  0.12606521859E+03  0.36075239781E+03  0.00000000000E+00 0. -1.
          1    1    1    2  502    0 -0.82444288246E+02 -0.27929290462E+02  0.72281075325E+03  0.72803330345E+03  0.00000000000E+00 0. -1.
         22    1    3    3    0    0 -0.29879745314E+02  0.18960234795E+03  0.15161373765E+03  0.24459880411E+03  0.00000000000E+00 0. -1.
         22    1    3    3    0    0  0.90764751130E+02  0.17564733995E+03  0.19713689759E+03  0.27920097506E+03  0.00000000000E+00 0. -1.
</event>
<event>
 7    1  0.7961130E-006  0.1703220E+03  0.7818608E-02  0.1387770E+00
          2   -1    0    0  502    0  0.00000000000E+00  0.00000000000E+00  0.10778782572E+04  0.10778782572E+04  0.00000000000E+00 0. -1.
          1   -1    0    0  501    0 -0.00000000000E+00 -0.00000000000E+00 -0.61332311927E+02  0.61332311927E+02  0.00000000000E+00 0. -1.
         25    2    1    2    0    0  0.82318557072E+02 -0.15529847839E+03  0.21138395488E+03  0.30199559529E+03  0.12499680382E+03 0.  0.
          2    1    1    2  501    0  0.15483919729E+02  0.16883532546E+02  0.11451447943E+02  0.25611347122E+02  0.00000000000E+00 0. -1.
          1    1    1    2  502    0 -0.97802476801E+02  0.13841494584E+03  0.79371054247E+03  0.81160362674E+03  0.00000000000E+00 0. -1.
         22    1    3    3    0    0  0.36135288779E+02  0.71622914309E+01  0.81281889293E+01  0.37724328609E+02  0.00000000000E+00 0. -1.
         22    1    3    3    0    0  0.46183268293E+02 -0.16246076982E+03  0.20325576595E+03  0.26427126668E+03  0.00000000000E+00 0. -1.
</event>
<event>
 7    1  0.7961130E-006  0.5264279E+02  0.7818608E-02  0.1499345E+00
          2   -1    0    0  502    0  0.00000000000E+00  0.00000000000E+00  0.18647670593E+04  0.18647670593E+04  0.00000000000E+00 0. -1.
          1   -1    0    0  501    0 -0.00000000000E+00 -0.00000000000E+00 -0.69188348227E+02  0.69188348227E+02  0.00000000000E+00 0. -1.
         25    2    1    2    0    0  0.58766869127E+01 -0.37616422799E+02  0.43960191980E+02  0.13786470513E+03  0.12499859091E+03 0.  0.
          2    1    1    2  501    0 -0.36054724169E+02  0.49109718977E+02  0.19929545006E+02  0.64100658319E+02  0.00000000000E+00 0. -1.
          1    1    1    2  502    0  0.30178037256E+02 -0.11493296177E+02  0.17316889741E+04  0.17319900441E+04  0.00000000000E+00 0. -1.
         22    1    3    3    0    0  0.19104998069E+02 -0.67870221428E+02  0.67266793656E+02  0.97448393710E+02  0.00000000000E+00 0. -1.
         22    1    3    3    0    0 -0.13228311156E+02  0.30253798629E+02 -0.23306601675E+02  0.40416311425E+02  0.00000000000E+00 0. -1.
</event>
<event>
 7    1  0.7961130E-006  0.9137291E+02  0.7818608E-02  0.1300435E+00
          2   -1    0    0  502    0  0.00000000000E+00  0.00000000000E+00  0.13530389977E+04  0.13530389977E+04  0.00000000000E+00 0. -1.
          1   -1    0    0  501    0 -0.00000000000E+00 -0.00000000000E+00 -0.77785404078E+03  0.77785404078E+03  0.00000000000E+00 0. -1.
         25    2    1    2    0    0 -0.27914768084E+02 -0.23753365453E+02  0.93166685338E+02  0.16014985632E+03  0.12499795428E+03 0.  0.
          2    1    1    2  501    0  0.77196926375E+02 -0.52317805570E+02 -0.73975629561E+03  0.74561108838E+03  0.00000000000E+00 0. -1.
          1    1    1    2  502    0 -0.49282158291E+02  0.76071171023E+02  0.12217745672E+04  0.12251320937E+04  0.00000000000E+00 0. -1.
         22    1    3    3    0    0  0.22760300861E+02 -0.23960798199E+02 -0.18248684985E+02  0.37751366191E+02  0.00000000000E+00 0. -1.
         22    1    3    3    0    0 -0.50675068945E+02  0.20743274631E+00  0.11141537032E+03  0.12239849013E+03  0.00000000000E+00 0. -1.
</event>
<event>
 7    1  0.7961130E-006  0.9879611E+02  0.7818608E-02  0.1323716E+00
          2   -1    0    0  502    0  0.00000000000E+00  0.00000000000E+00  0.38985213471E+03  0.38985213471E+03  0.00000000000E+00 0. -1.
          1   -1    0    0  501    0 -0.00000000000E+00 -0.00000000000E+00 -0.82318255303E+02  0.82318255303E+02  0.00000000000E+00 0. -1.
         25    2    1    2    0    0 -0.29674030102E+02  0.24186729091E+02  0.15935878610E+03  0.20612106756E+03  0.12500050343E+03 0.  0.
          2    1    1    2  501    0  0.52664119228E+02  0.83589241349E+02  0.27339795764E+02  0.10250919547E+03  0.00000000000E+00 0. -1.
          1    1    1    2  502    0 -0.22990089127E+02 -0.10777597044E+03  0.12083529754E+03  0.16354012698E+03  0.00000000000E+00 0. -1.
         22    1    3    3    0    0 -0.71780675974E+02  0.42696676004E+02  0.11577351994E+03  0.14275496315E+03  0.00000000000E+00 0. -1.
         22    1    3    3    0    0  0.42106645872E+02 -0.18509946913E+02  0.43585266164E+02  0.63366104408E+02  0.00000000000E+00 0. -1.
</event>
<event>
 7    1  0.7961130E-006  0.1734630E+03  0.7818608E-02  0.1220166E+00
          2   -1    0    0  502    0  0.00000000000E+00  0.00000000000E+00  0.99539566874E+03  0.99539566874E+03  0.00000000000E+00 0. -1.
          1   -1    0    0  501    0 -0.00000000000E+00 -0.00000000000E+00 -0.35458144997E+03  0.35458144997E+03  0.00000000000E+00 0. -1.
         25    2    1    2    0    0  0.25712078640E+03  0.66349249934E+02  0.32902489090E+03  0.44090676620E+03  0.12501230295E+03 0.  0.
          2    1    1    2  501    0 -0.15211102779E+03 -0.71274075278E+02 -0.26992877575E+03  0.31792971323E+03  0.00000000000E+00 0. -1.
          1    1    1    2  502    0 -0.10500975862E+03  0.49248253438E+01  0.58171810362E+03  0.59114063926E+03  0.00000000000E+00 0. -1.
         22    1    3    3    0    0  0.15807420371E+03  0.60563703543E+02  0.28690394328E+03  0.33312053184E+03  0.00000000000E+00 0.  1.
         22    1    3    3    0    0  0.99046582693E+02  0.57855463908E+01  0.42120947620E+02  0.10778623436E+03  0.00000000000E+00 0.  1.
</event>
<event>
 7    1  0.7961130E-006  0.5450340E+02  0.7818608E-02  0.1535440E+00
          2   -1    0    0  502    0  0.00000000000E+00  0.00000000000E+00  0.55302415329E+02  0.55302415329E+02  0.00000000000E+00 0. -1.
          1   -1    0    0  501    0 -0.00000000000E+00 -0.00000000000E+00 -0.75870031061E+03  0.75870031061E+03  0.00000000000E+00 0. -1.
         25    2    1    2    0    0 -0.32194204734E+02  0.28271603862E+02 -0.35076836224E+03  0.37484096586E+03  0.12502621861E+03 0.  0.
          2    1    1    2  501    0  0.10002242758E+02  0.22343601542E+02 -0.37768743642E+03  0.37847996119E+03  0.00000000000E+00 0. -1.
          1    1    1    2  502    0  0.22191961976E+02 -0.50615205403E+02  0.25057903379E+02  0.60681798887E+02  0.00000000000E+00 0. -1.
         22    1    3    3    0    0 -0.28848858047E+02  0.34421482468E+02 -0.30031353003E+02  0.54027559903E+02  0.00000000000E+00 0. -1.
         22    1    3    3    0    0 -0.33453466867E+01 -0.61498786059E+01 -0.32073700923E+03  0.32081340596E+03  0.00000000000E+00 0. -1.
</event>
<event>
 7    1  0.7961130E-006  0.4264173E+02  0.7818608E-02  0.1554179E+00
          2   -1    0    0  502    0  0.00000000000E+00  0.00000000000E+00  0.34606520155E+03  0.34606520155E+03  0.00000000000E+00 0. -1.
          1   -1    0    0  501    0 -0.00000000000E+00 -0.00000000000E+00 -0.81112353678E+03  0.81112353678E+03  0.00000000000E+00 0. -1.
         25    2    1    2    0    0  0.25668157159E+02  0.32877965206E+00 -0.21921157098E+03  0.25364796301E+03  0.12499845559E+03 0.  0.
          2    1    1    2  501    0  0.81771573596E+01 -0.26484797876E+02 -0.57296636070E+03  0.57363643618E+03  0.00000000000E+00 0. -1.
          1    1    1    2  502    0 -0.33845314519E+02  0.26156018224E+02  0.32711959645E+03  0.32990433914E+03  0.00000000000E+00 0. -1.
         22    1    3    3    0    0 -0.27729827270E+02 -0.67145294079E+01 -0.64035103816E+00  0.28538364968E+02  0.00000000000E+00 0. -1.
         22    1    3    3    0    0  0.53397984429E+02  0.70433090599E+01 -0.21857121994E+03  0.22510959804E+03  0.00000000000E+00 0. -1.
</event>
<event>
 7    1  0.7961130E-006  0.1083137E+03  0.7818608E-02  0.1385920E+00
          2   -1    0    0  502    0  0.00000000000E+00  0.00000000000E+00  0.65426375526E+02  0.65426375526E+02  0.00000000000E+00 0. -1.
          1   -1    0    0  501    0 -0.00000000000E+00 -0.00000000000E+00 -0.27118908748E+04  0.27118908748E+04  0.00000000000E+00 0. -1.
         25    2    1    2    0    0  0.75910216353E+02  0.73385660388E+02 -0.61743561784E+03  0.63874818664E+03  0.12499875063E+03 0.  0.
          2    1    1    2  501    0 -0.99515665018E+02 -0.45460265227E+02 -0.20760907331E+04  0.20789715572E+04  0.00000000000E+00 0. -1.
          1    1    1    2  502    0  0.23605448665E+02 -0.27925395161E+02  0.47061851685E+02  0.59597506538E+02  0.00000000000E+00 0. -1.
         22    1    3    3    0    0  0.79134644464E+02  0.23662201095E+02 -0.17496882260E+03  0.19348457457E+03  0.00000000000E+00 0. -1.
         22    1    3    3    0    0 -0.32244281112E+01  0.49723459294E+02 -0.44246679524E+03  0.44526361206E+03  0.00000000000E+00 0. -1.
</event>
<event>
 7    1  0.7961130E-006  0.8826442E+02  0.7818608E-02  0.1489520E+00
          2   -1    0    0  502    0  0.00000000000E+00  0.00000000000E+00  0.36845900933E+02  0.36845900933E+02  0.00000000000E+00 0. -1.
          1   -1    0    0  501    0 -0.00000000000E+00 -0.00000000000E+00 -0.13638004760E+04  0.13638004760E+04  0.00000000000E+00 0. -1.
         25    2    1    2    0    0 -0.24363299948E+02  0.76908522203E+02 -0.28285161245E+03  0.31959107529E+03  0.12499971827E+03 0.  0.
          2    1    1    2  501    0  0.44978526363E+02 -0.77062426417E+02 -0.10542905687E+04  0.10580596810E+04  0.00000000000E+00 0. -1.
          1    1    1    2  502    0 -0.20615226414E+02  0.15390421336E+00  0.10187606119E+02  0.22995620563E+02  0.00000000000E+00 0. -1.
         22    1    3    3    0    0  0.41207258764E+02  0.31216176329E+02 -0.44545951201E+02  0.68240967226E+02  0.00000000000E+00 0. -1.
         22    1    3    3    0    0 -0.65570558712E+02  0.45692345874E+02 -0.23830566125E+03  0.25135010807E+03  0.00000000000E+00 0. -1.
</event>
<event>
 7    1  0.7961130E-006  0.1304291E+03  0.7818608E-02  0.1274688E+00
          2   -1    0    0  502    0  0.00000000000E+00  0.00000000000E+00  0.22308045655E+03  0.22308045655E+03  0.00000000000E+00 0. -1.
          1   -1    0    0  501    0 -0.00000000000E+00 -0.00000000000E+00 -0.44181332383E+03  0.44181332383E+03  0.00000000000E+00 0. -1.
         25    2    1    2    0    0  0.13062082004E+03 -0.12614314413E+03 -0.24408203524E+03  0.32889809366E+03  0.12499609853E+03 0.  0.
          2    1    1    2  501    0 -0.92753124435E+02  0.54664707983E+02 -0.12517939730E+03  0.16510982375E+03  0.00000000000E+00 0. -1.
          1    1    1    2  502    0 -0.37867695609E+02  0.71478436142E+02  0.15052856525E+03  0.17088586297E+03  0.00000000000E+00 0. -1.
         22    1    3    3    0    0  0.37847542880E+02 -0.10949525017E+03 -0.18297576138E+03  0.21656817764E+03  0.00000000000E+00 0.  1.
         22    1    3    3    0    0  0.92773277165E+02 -0.16647893953E+02 -0.61106273859E+02  0.11232991602E+03  0.00000000000E+00 0.  1.
</event>
<event>
 7    1  0.7961130E-006  0.9886753E+02  0.7818608E-02  0.1426985E+00
          2   -1    0    0  502    0  0.00000000000E+00  0.00000000000E+00  0.78646873708E+02  0.78646873708E+02  0.00000000000E+00 0. -1.
          1   -1    0    0  501    0 -0.00000000000E+00 -0.00000000000E+00 -0.92120436639E+03  0.92120436639E+03  0.00000000000E+00 0. -1.
         25    2    1    2    0    0 -0.82336472460E+02  0.20497439845E+02 -0.18558859248E+03  0.23930612927E+03  0.12499943244E+03 0.  0.
          2    1    1    2  501    0  0.10109515114E+03  0.16528303125E+01 -0.70075508815E+03  0.70801176190E+03  0.00000000000E+00 0. -1.
          1    1    1    2  502    0 -0.18758678681E+02 -0.22150270157E+02  0.43786187947E+02  0.52533348921E+02  0.00000000000E+00 0. -1.
         22    1    3    3    0    0 -0.33319004771E+02  0.32636376984E+01 -0.18431597556E+03  0.18733175454E+03  0.00000000000E+00 0. -1.
         22    1    3    3    0    0 -0.49017467689E+02  0.17233802146E+02 -0.12726169156E+01  0.51974374733E+02  0.00000000000E+00 0. -1.
</event>
<event>
 7    1  0.7961130E-006  0.7384229E+02  0.7818608E-02  0.1429854E+00
          2   -1    0    0  502    0  0.00000000000E+00  0.00000000000E+00  0.17575012997E+04  0.17575012997E+04  0.00000000000E+00 0. -1.
          1   -1    0    0  501    0 -0.00000000000E+00 -0.00000000000E+00 -0.51677271933E+03  0.51677271933E+03  0.00000000000E+00 0. -1.
         25    2    1    2    0    0  0.42913559727E+02  0.26145924783E+02 -0.65304529564E+02  0.14972179454E+03  0.12500700456E+03 0.  0.
          2    1    1    2  501    0 -0.53006219907E+01  0.37653827277E+02 -0.40757472223E+03  0.40934467323E+03  0.00000000000E+00 0. -1.
          1    1    1    2  502    0 -0.37612937737E+02 -0.63799752060E+02  0.17136078322E+04  0.17152075513E+04  0.00000000000E+00 0. -1.
         22    1    3    3    0    0  0.95366960186E+01 -0.49869783121E+02 -0.16342241263E+02  0.53338660360E+02  0.00000000000E+00 0.  1.
         22    1    3    3    0    0  0.33376863709E+02  0.76015707904E+02 -0.48962288301E+02  0.96383134183E+02  0.00000000000E+00 0.  1.
</event>
<event>
 7    1  0.7961130E-006  0.1428655E+03  0.7818608E-02  0.1298355E+00
          2   -1    0    0  502    0  0.00000000000E+00  0.00000000000E+00  0.42131980456E+03  0.42131980456E+03  0.00000000000E+00 0. -1.
          1   -1    0    0  501    0 -0.00000000000E+00 -0.00000000000E+00 -0.66773908715E+03  0.66773908715E+03  0.00000000000E+00 0. -1.
         25    2    1    2    0    0  0.67119353942E+02  0.17844165891E+03 -0.17901858757E+03  0.28986362451E+03  0.12500733103E+03 0.  0.
          2    1    1    2  501    0 -0.43330432277E+02 -0.40181754059E+02 -0.41769378864E+03  0.42185329296E+03  0.00000000000E+00 0. -1.
          1    1    1    2  502    0 -0.23788921665E+02 -0.13825990485E+03  0.35029309362E+03  0.37734197424E+03  0.00000000000E+00 0. -1.
         22    1    3    3    0    0  0.51460023878E+02  0.11938180559E+03 -0.36851760698E+02  0.13512291379E+03  0.00000000000E+00 0. -1.
         22    1    3    3    0    0  0.15659330064E+02  0.59059853317E+02 -0.14216682687E+03  0.15474071072E+03  0.00000000000E+00 0. -1.
</event>
<event>
 7    1  0.7961130E-006  0.6797807E+02  0.7818608E-02  0.1390042E+00
          2   -1    0    0  502    0  0.00000000000E+00  0.00000000000E+00  0.89378806360E+03  0.89378806360E+03  0.00000000000E+00 0. -1.
          1   -1    0    0  501    0 -0.00000000000E+00 -0.00000000000E+00 -0.46818395233E+03  0.46818395233E+03  0.00000000000E+00 0. -1.
         25    2    1    2    0    0  0.10296716841E+03  0.63285346675E+02  0.19451994457E+03  0.26090184073E+03  0.12499795514E+03 0.  0.
          2    1    1    2  501    0 -0.63235850948E+02 -0.23314002749E+02 -0.43117836817E+03  0.43641390989E+03  0.00000000000E+00 0. -1.
          1    1    1    2  502    0 -0.39731317460E+02 -0.39971343926E+02  0.66226253487E+03  0.66465626531E+03  0.00000000000E+00 0. -1.
         22    1    3    3    0    0  0.97501794982E+02  0.29259036754E+02  0.52068085744E+02  0.11434061750E+03  0.00000000000E+00 0.  1.
         22    1    3    3    0    0  0.54653734263E+01  0.34026309922E+02  0.14245185882E+03  0.14656122323E+03  0.00000000000E+00 0.  1.
</event>
<event>
 7    1  0.7961130E-006  0.8019762E+02  0.7818608E-02  0.1386453E+00
          2   -1    0    0  502    0  0.00000000000E+00  0.00000000000E+00  0.12322261989E+04  0.12322261989E+04  0.00000000000E+00 0. -1.
          1   -1    0    0  501    0 -0.00000000000E+00 -0.00000000000E+00 -0.62255394880E+02  0.62255394880E+02  0.00000000000E+00 0. -1.
         25    2    1    2    0    0  0.72948471471E+01 -0.35424430056E+02  0.18354508510E+03  0.22499365458E+03  0.12500096518E+03 0.  0.
          2    1    1    2  501    0 -0.79089265591E+01 -0.48532481017E+02 -0.24599470764E+02  0.54982604476E+02  0.00000000000E+00 0. -1.
          1    1    1    2  502    0  0.61407941201E+00  0.83956911074E+02  0.10110251897E+04  0.10145053347E+04  0.00000000000E+00 0. -1.
         22    1    3    3    0    0 -0.33350977803E+02 -0.22014622162E+02  0.37077757673E+01  0.40133264388E+02  0.00000000000E+00 0.  1.
         22    1    3    3    0    0  0.40645824950E+02 -0.13409807894E+02  0.17983730933E+03  0.18486039019E+03  0.00000000000E+00 0.  1.
</event>
<event>
 7    1  0.7961130E-006  0.5814510E+02  0.7818608E-02  0.1412048E+00
          2   -1    0    0  502    0  0.00000000000E+00  0.00000000000E+00  0.17531937663E+04  0.17531937663E+04  0.00000000000E+00 0. -1.
          1   -1    0    0  501    0 -0.00000000000E+00 -0.00000000000E+00 -0.13152541489E+03  0.13152541489E+03  0.00000000000E+00 0. -1.
         25    2    1    2    0    0  0.80161254176E+01 -0.12602693650E+02  0.18718250724E+03  0.22557946824E+03  0.12500287726E+03 0.  0.
          2    1    1    2  501    0  0.51036423153E+02  0.21467941724E+02 -0.10488979392E+03  0.11860631466E+03  0.00000000000E+00 0. -1.
          1    1    1    2  502    0 -0.59052548570E+02 -0.88652480737E+01  0.15393756381E+04  0.15405333983E+04  0.00000000000E+00 0. -1.
         22    1    3    3    0    0  0.51327677857E+02  0.32022787843E+02  0.11765815985E+03  0.13230053679E+03  0.00000000000E+00 0. -1.
         22    1    3    3    0    0 -0.43311552439E+02 -0.44625481493E+02  0.69524347389E+02  0.93278931454E+02  0.00000000000E+00 0. -1.
</event>
<event>
 7    1  0.7961130E-006  0.6021491E+02  0.7818608E-02  0.1425767E+00
          2   -1    0    0  502    0  0.00000000000E+00  0.00000000000E+00  0.10657742654E+04  0.10657742654E+04  0.00000000000E+00 0. -1.
          1   -1    0    0  501    0 -0.00000000000E+00 -0.00000000000E+00 -0.42957705612E+03  0.42957705612E+03  0.00000000000E+00 0. -1.
         25    2    1    2    0    0  0.15269541510E+02  0.11522134425E+02  0.72685554365E+02  0.14585436600E+03  0.12499755112E+03 0.  0.
          2    1    1    2  501    0 -0.61136580919E+02  0.29718900188E+01 -0.38999936137E+03  0.39477337236E+03  0.00000000000E+00 0. -1.
          1    1    1    2  502    0  0.45867039410E+02 -0.14494024444E+02  0.95351101631E+03  0.95472358318E+03  0.00000000000E+00 0. -1.
         22    1    3    3    0    0 -0.44206214863E+02 -0.19780265829E+02  0.22273210838E+01  0.48481020079E+02  0.00000000000E+00 0. -1.
         22    1    3    3    0    0  0.59475756372E+02  0.31302400254E+02  0.70458233281E+02  0.97373345916E+02  0.00000000000E+00 0. -1.
</event>
<event>
 7    1  0.7961130E-006  0.1719135E+03  0.7818608E-02  0.1263776E+00
          2   -1    0    0  502    0  0.00000000000E+00  0.00000000000E+00  0.95026753493E+03  0.95026753493E+03  0.00000000000E+00 0. -1.
          1   -1    0    0  501    0 -0.00000000000E+00 -0.00000000000E+00 -0.13618487232E+04  0.13618487232E+04  0.00000000000E+00 0. -1.
         25    2    1    2    0    0 -0.76685965559E+02 -0.17962285803E+03 -0.22459619246E+03  0.32281763542E+03  0.12499067016E+03 0.  0.
          2    1    1    2  501    0 -0.40833264889E+02  0.54635555597E+02 -0.10788898361E+04  0.10810437909E+04  0.00000000000E+00 0. -1.
          1    1    1    2  502    0  0.11751923045E+03  0.12498730243E+03  0.89190484030E+03  0.90825483177E+03  0.00000000000E+00 0. -1.
         22    1    3    3    0    0 -0.77889619259E+02 -0.13881726638E+03 -0.91498676293E+02  0.18360020152E+03  0.00000000000E+00 0.  1.
         22    1    3    3    0    0  0.12036536999E+01 -0.40805591652E+02 -0.13309751617E+03  0.13921743390E+03  0.00000000000E+00 0.  1.
</event>
<event>
 7    1  0.7961130E-006  0.9100225E+02  0.7818608E-02  0.1309375E+00
          2   -1    0    0  502    0  0.00000000000E+00  0.00000000000E+00  0.24894232260E+03  0.24894232260E+03  0.00000000000E+00 0. -1.
          1   -1    0    0  501    0 -0.00000000000E+00 -0.00000000000E+00 -0.81384777190E+03  0.81384777190E+03  0.00000000000E+00 0. -1.
         25    2    1    2    0    0 -0.19392093710E+01  0.28119495618E+02  0.55535759208E+02  0.13966390362E+03  0.12500927508E+03 0.  0.
          2    1    1    2  501    0  0.49432970492E+02  0.76405434767E+02 -0.74684337424E+03  0.75236722063E+03  0.00000000000E+00 0. -1.
          1    1    1    2  502    0 -0.47493761121E+02 -0.10452493039E+03  0.12640216574E+03  0.17075897025E+03  0.00000000000E+00 0. -1.
         22    1    3    3    0    0 -0.50706053002E+02  0.28609196338E+02 -0.88540299542E+01  0.58889589679E+02  0.00000000000E+00 0.  1.
         22    1    3    3    0    0  0.48766843631E+02 -0.48970071950E+00  0.64389789162E+02  0.80774313942E+02  0.00000000000E+00 0.  1.
</event>
<event>
 7    1  0.7961130E-006  0.5945709E+02  0.7818608E-02  0.1406927E+00
          2   -1    0    0  502    0  0.00000000000E+00  0.00000000000E+00  0.14925272583E+04  0.14925272583E+04  0.00000000000E+00 0. -1.
          1   -1    0    0  501    0 -0.00000000000E+00 -0.00000000000E+00 -0.81384120723E+03  0.81384120723E+03  0.00000000000E+00 0. -1.
         25    2    1    2    0    0  0.30430270252E+02 -0.23934737573E+02  0.18412785961E+03  0.22589034891E+03  0.12499803213E+03 0.  0.
          2    1    1    2  501    0 -0.43758331755E+02 -0.35511637179E+02 -0.79123654855E+03  0.79324091154E+03  0.00000000000E+00 0. -1.
          1    1    1    2  502    0  0.13328061502E+02  0.59446374752E+02  0.12857947400E+04  0.12872372051E+04  0.00000000000E+00 0. -1.
         22    1    3    3    0    0 -0.62651028593E+01  0.47488852118E+02  0.91673819826E+02  0.10343370742E+03  0.00000000000E+00 0. -1.
         22    1    3    3    0    0  0.36695373112E+02 -0.71423589691E+02  0.92454039779E+02  0.12245664148E+03  0.00000000000E+00 0. -1.
</event>
<event>
 7    1  0.7961130E-006  0.2993263E+02  0.7818608E-02  0.1663369E+00
          2   -1    0    0  502    0  0.00000000000E+00  0.00000000000E+00  0.19337918491E+03  0.19337918491E+03  0.00000000000E+00 0. -1.
          1   -1    0    0  501    0 -0.00000000000E+00 -0.00000000000E+00 -0.27425109250E+03  0.27425109250E+03  0.00000000000E+00 0. -1.
         25    2    1    2    0    0 -0.41292008185E+02  0.25674272300E+02 -0.59057481922E+02  0.14654724171E+03  0.12499643868E+03 0.  0.
          2    1    1    2  501    0  0.27547833571E+02 -0.10320057834E+02 -0.16946602193E+03  0.17200034685E+03  0.00000000000E+00 0. -1.
          1    1    1    2  502    0  0.13744174614E+02 -0.15354214466E+02  0.14765159626E+03  0.14908268886E+03  0.00000000000E+00 0. -1.
         22    1    3    3    0    0  0.29558044023E+02  0.46437061402E+02 -0.45645170819E+02  0.71509162051E+02  0.00000000000E+00 0.  1.
         22    1    3    3    0    0 -0.70850052208E+02 -0.20762789102E+02 -0.13412311103E+02  0.75038079655E+02  0.00000000000E+00 0.  1.
</event>
<event>
 7    1  0.7961130E-006  0.6447748E+02  0.7818608E-02  0.1420446E+00
          2   -1    0    0  502    0  0.00000000000E+00  0.00000000000E+00  0.26660228964E+03  0.26660228964E+03  0.00000000000E+00 0. -1.
          1   -1    0    0  501    0 -0.00000000000E+00 -0.00000000000E+00 -0.21362538363E+04  0.21362538363E+04  0.00000000000E+00 0. -1.
         25    2    1    2    0    0 -0.25674831750E+01  0.23996759681E+02 -0.21330393521E+03  0.24840972428E+03  0.12500554346E+03 0.  0.
          2    1    1    2  501    0 -0.27402862413E+02 -0.59929205931E+02 -0.19026238295E+04  0.19037646554E+04  0.00000000000E+00 0. -1.
          1    1    1    2  502    0  0.29970345588E+02  0.35932446250E+02  0.24627621807E+03  0.25068174624E+03  0.00000000000E+00 0. -1.
         22    1    3    3    0    0  0.35029284336E+02  0.28948292081E+02 -0.17066634178E+02  0.48541985720E+02  0.00000000000E+00 0.  1.
         22    1    3    3    0    0 -0.37596767511E+02 -0.49515323995E+01 -0.19623730103E+03  0.19986773856E+03  0.00000000000E+00 0.  1.
</event>
<event>
 7    1  0.7961130E-006  0.1638340E+03  0.7818608E-02  0.1260420E+00
          2   -1    0    0  502    0  0.00000000000E+00  0.00000000000E+00  0.11145892796E+04  0.11145892796E+04  0.00000000000E+00 0. -1.
          1   -1    0    0  501    0 -0.00000000000E+00 -0.00000000000E+00 -0.64839312770E+03  0.64839312770E+03  0.00000000000E+00 0. -1.
         25    2    1    2    0    0  0.50918817579E+02 -0.20040845277E+03 -0.17554563247E+03  0.29866005053E+03  0.12500113110E+03 0.  0.
          2    1    1    2  501    0 -0.80605238333E+02  0.13266362640E+03 -0.39527896249E+03  0.42466728200E+03  0.00000000000E+00 0. -1.
          1    1    1    2  502    0  0.29686420754E+02  0.67744826378E+02  0.10370207469E+04  0.10396550748E+04  0.00000000000E+00 0. -1.
         22    1    3    3    0    0  0.45403105603E+02 -0.16301363562E+03 -0.19329528715E+03  0.25690067231E+03  0.00000000000E+00 0. -1.
         22    1    3    3    0    0  0.55157119752E+01 -0.37394817151E+02  0.17749654679E+02  0.41759378223E+02  0.00000000000E+00 0. -1.
</event>
<event>
 7    1  0.7961130E-006  0.1613106E+03  0.7818608E-02  0.1276063E+00
          2   -1    0    0  502    0  0.00000000000E+00  0.00000000000E+00  0.17309494820E+04  0.17309494820E+04  0.00000000000E+00 0. -1.
          1   -1    0    0  501    0 -0.00000000000E+00 -0.00000000000E+00 -0.35049334435E+03  0.35049334435E+03  0.00000000000E+00 0. -1.
         25    2    1    2    0    0 -0.95837636576E+02  0.17449432030E+03  0.44981937526E+03  0.50753950432E+03  0.12500303071E+03 0.  0.
          2    1    1    2  501    0  0.60465375836E+02 -0.22590400498E+02 -0.31347587237E+03  0.32005235576E+03  0.00000000000E+00 0. -1.
          1    1    1    2  502    0  0.35372260740E+02 -0.15190391980E+03  0.12441126347E+04  0.12538509662E+04  0.00000000000E+00 0. -1.
         22    1    3    3    0    0 -0.11181784014E+03  0.76336433887E+02  0.24812783739E+03  0.28266217327E+03  0.00000000000E+00 0. -1.
         22    1    3    3    0    0  0.15980203562E+02  0.98157886415E+02  0.20169153787E+03  0.22487733105E+03  0.00000000000E+00 0. -1.
</event>
<event>
 7    1  0.7961130E-006  0.1562628E+03  0.7818608E-02  0.1297526E+00
          2   -1    0    0  502    0  0.00000000000E+00  0.00000000000E+00  0.23495381668E+03  0.23495381668E+03  0.00000000000E+00 0. -1.
          1   -1    0    0  501    0 -0.00000000000E+00 -0.00000000000E+00 -0.14952157789E+04  0.14952157789E+04  0.00000000000E+00 0. -1.
         25    2    1    2    0    0  0.10796158094E+03  0.27514372127E+01 -0.30826271494E+03  0.34973706658E+03  0.12500736359E+03 0.  0.
          2    1    1    2  501    0  0.51479087611E+02  0.17718723383E+02 -0.11353146567E+04  0.11366192939E+04  0.00000000000E+00 0. -1.
          1    1    1    2  502    0 -0.15944066855E+03 -0.20470160596E+02  0.18331540942E+03  0.24381323507E+03  0.00000000000E+00 0. -1.
         22    1    3    3    0    0 -0.23045435638E+02  0.10159459344E+02 -0.17298679920E+02  0.30554067567E+02  0.00000000000E+00 0. -1.
         22    1    3    3    0    0  0.13100701658E+03 -0.74080221315E+01 -0.29096403502E+03  0.31918299902E+03  0.00000000000E+00 0. -1.
</event>
<event>
 7    1  0.7961130E-006  0.5741732E+02  0.7818608E-02  0.1421633E+00
          2   -1    0    0  502    0  0.00000000000E+00  0.00000000000E+00  0.31088988667E+03  0.31088988667E+03  0.00000000000E+00 0. -1.
          1   -1    0    0  501    0 -0.00000000000E+00 -0.00000000000E+00 -0.65710996601E+03  0.65710996601E+03  0.00000000000E+00 0. -1.
         25    2    1    2    0    0 -0.89147958837E+02 -0.11569540884E+02  0.20168646839E+02  0.15528577303E+03  0.12500273656E+03 0.  0.
          2    1    1    2  501    0  0.45889017898E+02 -0.24600725980E+02 -0.58481421611E+03  0.58712746916E+03  0.00000000000E+00 0. -1.
          1    1    1    2  502    0  0.43258940939E+02  0.36170266864E+02  0.21842548994E+03  0.22558661048E+03  0.00000000000E+00 0. -1.
         22    1    3    3    0    0 -0.79975627434E+02 -0.28985268639E+02 -0.38522298393E+02  0.93382087442E+02  0.00000000000E+00 0.  1.
         22    1    3    3    0    0 -0.91723314024E+01  0.17415727755E+02  0.58690945232E+02  0.61903685583E+02  0.00000000000E+00 0.  1.
</event>
<event>
 7    1  0.7961130E-006  0.7044805E+02  0.7818608E-02  0.1434245E+00
          2   -1    0    0  502    0  0.00000000000E+00  0.00000000000E+00  0.72184745579E+03  0.72184745579E+03  0.00000000000E+00 0. -1.
          1   -1    0    0  501    0 -0.00000000000E+00 -0.00000000000E+00 -0.73957659403E+03  0.73957659403E+03  0.00000000000E+00 0. -1.
         25    2    1    2    0    0  0.35729851837E+02  0.17920794664E+01 -0.15929532698E+03  0.20561966298E+03  0.12499844297E+03 0.  0.
          2    1    1    2  501    0 -0.73607298377E+02 -0.89941401347E+01 -0.55411535497E+03  0.55905523479E+03  0.00000000000E+00 0. -1.
          1    1    1    2  502    0  0.37877446540E+02  0.72020606683E+01  0.69568154371E+03  0.69674915206E+03  0.00000000000E+00 0. -1.
         22    1    3    3    0    0  0.78431160229E+02 -0.21049690035E+02 -0.92032401384E+02  0.12273752177E+03  0.00000000000E+00 0. -1.
         22    1    3    3    0    0 -0.42701308392E+02  0.22841769502E+02 -0.67262925596E+02  0.82882141213E+02  0.00000000000E+00 0. -1.
</event>
<event>
 7    1  0.7961130E-006  0.4061782E+02  0.7818608E-02  0.1506787E+00
          2   -1    0    0  502    0  0.00000000000E+00  0.00000000000E+00  0.32565897916E+03  0.32565897916E+03  0.00000000000E+00 0. -1.
          1   -1    0    0  501    0 -0.00000000000E+00 -0.00000000000E+00 -0.94255130685E+02  0.94255130685E+02  0.00000000000E+00 0. -1.
         25    2    1    2    0    0  0.37096019171E+02 -0.52252041065E+02  0.55802320085E+02  0.15114698959E+03  0.12500049241E+03 0.  0.
          2    1    1    2  501    0 -0.37889644324E+02  0.12100873798E+02 -0.35843270584E+02  0.53542472298E+02  0.00000000000E+00 0. -1.
          1    1    1    2  502    0  0.79362515304E+00  0.40151167268E+02  0.21144479898E+03  0.21522464796E+03  0.00000000000E+00 0. -1.
         22    1    3    3    0    0 -0.35823785498E+02  0.16431275500E+02  0.23537251855E+02  0.45905692968E+02  0.00000000000E+00 0.  1.
         22    1    3    3    0    0  0.72919804669E+02 -0.68683316566E+02  0.32265068230E+02  0.10524129662E+03  0.00000000000E+00 0.  1.
</event>
<event>
 7    1  0.7961130E-006  0.2731785E+03  0.7818608E-02  0.1251869E+00
          2   -1    0    0  502    0  0.00000000000E+00  0.00000000000E+00  0.15488924571E+04  0.15488924571E+04  0.00000000000E+00 0. -1.
          1   -1    0    0  501    0 -0.00000000000E+00 -0.00000000000E+00 -0.82138911881E+03  0.82138911881E+03  0.00000000000E+00 0. -1.
         25    2    1    2    0    0 -0.23353169359E+03  0.21399107081E+03  0.10780028042E+04  0.11305082175E+04  0.12501821345E+03 0.  0.
          2    1    1    2  501    0  0.21207625433E+03 -0.17074827104E+03 -0.77040524749E+03  0.81710192453E+03  0.00000000000E+00 0. -1.
          1    1    1    2  502    0  0.21455439261E+02 -0.43242799775E+02  0.41990578161E+03  0.42267143391E+03  0.00000000000E+00 0. -1.
         22    1    3    3    0    0 -0.23138359638E+03  0.15682595051E+03  0.82318656361E+03  0.86934967990E+03  0.00000000000E+00 0.  1.
         22    1    3    3    0    0 -0.21480972121E+01  0.57165120298E+02  0.25481624056E+03  0.26115853758E+03  0.00000000000E+00 0.  1.
</event>
<event>
 7    1  0.7961130E-006  0.4783062E+03  0.7818608E-02  0.1222533E+00
          2   -1    0    0  502    0  0.00000000000E+00  0.00000000000E+00  0.60607348157E+03  0.60607348157E+03  0.00000000000E+00 0. -1.
          1   -1    0    0  501    0 -0.00000000000E+00 -0.00000000000E+00 -0.14149168721E+04  0.14149168721E+04  0.00000000000E+00 0. -1.
         25    2    1    2    0    0 -0.34739925256E+03  0.31066195476E+03 -0.32145603712E+03  0.57978275814E+03  0.12496788395E+03 0.  0.
          2    1    1    2  501    0 -0.33690742311E+02 -0.15751491098E+02 -0.84206019796E+03  0.84288110228E+03  0.00000000000E+00 0. -1.
          1    1    1    2  502    0  0.38108999488E+03 -0.29491046367E+03  0.35467284459E+03  0.59832649320E+03  0.00000000000E+00 0. -1.
         22    1    3    3    0    0 -0.10793544848E+01  0.20632865105E+02  0.63908788993E+01  0.21626915213E+02  0.00000000000E+00 0.  1.
         22    1    3    3    0    0 -0.34631989808E+03  0.29002908966E+03 -0.32784691602E+03  0.55815584293E+03  0.00000000000E+00 0.  1.
</event>
<event>
 7    1  0.7961130E-006  0.3572156E+02  0.7818608E-02  0.1626294E+00
          2   -1    0    0  502    0  0.00000000000E+00  0.00000000000E+00  0.43474914492E+03  0.43474914492E+03  0.00000000000E+00 0. -1.
          1   -1    0    0  501    0 -0.00000000000E+00 -0.00000000000E+00 -0.14585696024E+04  0.14585696024E+04  0.00000000000E+00 0. -1.
         25    2    1    2    0    0  0.40180606205E+02 -0.13733817413E+02 -0.23595535499E+03  0.27037580828E+03  0.12500019721E+03 0.  0.
          2    1    1    2  501    0 -0.35021368376E+02 -0.69507333543E+01 -0.12048672826E+04  0.12053961912E+04  0.00000000000E+00 0. -1.
          1    1    1    2  502    0 -0.51592378292E+01  0.20684550767E+02  0.41700218016E+03  0.41754674784E+03  0.00000000000E+00 0. -1.
         22    1    3    3    0    0 -0.23814634376E+02  0.14765972183E+02 -0.42867010116E+01  0.28346896665E+02  0.00000000000E+00 0. -1.
         22    1    3    3    0    0  0.63995240581E+02 -0.28499789596E+02 -0.23166865398E+03  0.24202891162E+03  0.00000000000E+00 0. -1.
</event>
<event>
 7    1  0.7961130E-006  0.1025009E+03  0.7818608E-02  0.1322607E+00
          2   -1    0    0  502    0  0.00000000000E+00  0.00000000000E+00  0.26790921514E+03  0.26790921514E+03  0.00000000000E+00 0. -1.
          1   -1    0    0  501    0 -0.00000000000E+00 -0.00000000000E+00 -0.65518986341E+03  0.65518986341E+03  0.00000000000E+00 0. -1.
         25    2    1    2    0    0 -0.24587147852E+01  0.56314021114E+02 -0.10759070716E+03  0.17429341677E+03  0.12500048244E+03 0.  0.
          2    1    1    2  501    0 -0.44643145696E+02 -0.10269491776E+03 -0.50331172306E+03  0.51561802447E+03  0.00000000000E+00 0. -1.
          1    1    1    2  502    0  0.47101860481E+02  0.46380896643E+02  0.22362178195E+03  0.23318763731E+03  0.00000000000E+00 0. -1.
         22    1    3    3    0    0 -0.51290531190E+02  0.68826965964E+02 -0.77106894663E+02  0.11538346085E+03  0.00000000000E+00 0. -1.
         22    1    3    3    0    0  0.48831816404E+02 -0.12512944850E+02 -0.30483812496E+02  0.58909955919E+02  0.00000000000E+00 0. -1.
</event>
<event>
 7    1  0.7961130E-006  0.7625867E+02  0.7818608E-02  0.1387174E+00
          2   -1    0    0  502    0  0.00000000000E+00  0.00000000000E+00  0.24380661760E+03  0.24380661760E+03  0.00000000000E+00 0. -1.
          1   -1    0    0  501    0 -0.00000000000E+00 -0.00000000000E+00 -0.30519294921E+04  0.30519294921E+04  0.00000000000E+00 0. -1.
         25    2    1    2    0    0 -0.32654672640E+02 -0.36439844442E+02  0.33662262676E+02  0.13839238434E+03  0.12500045683E+03 0.  0.
          2    1    1    2  501    0  0.40805985091E+00  0.76482359829E+02 -0.29948749967E+04  0.29958514589E+04  0.00000000000E+00 0. -1.
          1    1    1    2  502    0  0.32246612789E+02 -0.40042515387E+02  0.15308985946E+03  0.16149226652E+03  0.00000000000E+00 0. -1.
         22    1    3    3    0    0 -0.47242244459E+02 -0.46422237779E+02 -0.29716955897E+02  0.72594430156E+02  0.00000000000E+00 0.  1.
         22    1    3    3    0    0  0.14587571819E+02  0.99823933366E+01  0.63379218572E+02  0.65797954187E+02  0.00000000000E+00 0.  1.
</event>
<event>
 7    1  0.7961130E-006  0.7256619E+02  0.7818608E-02  0.1408034E+00
          2   -1    0    0  502    0  0.00000000000E+00  0.00000000000E+00  0.77926201878E+03  0.77926201878E+03  0.00000000000E+00 0. -1.
          1   -1    0    0  501    0 -0.00000000000E+00 -0.00000000000E+00 -0.95600079525E+02  0.95600079525E+02  0.00000000000E+00 0. -1.
         25    2    1    2    0    0 -0.93329210819E+02 -0.16589974876E+01  0.55664443152E+02  0.16563914505E+03  0.12499880911E+03 0.  0.
          2    1    1    2  501    0  0.30575940548E+02 -0.34066438713E+02 -0.25059349252E+02  0.52186026597E+02  0.00000000000E+00 0. -1.
          1    1    1    2  502    0  0.62753270270E+02  0.35725436201E+02  0.65305684536E+03  0.65703692665E+03  0.00000000000E+00 0. -1.
         22    1    3    3    0    0 -0.44933897948E+02 -0.28973513204E+01 -0.38835061318E+02  0.59461010898E+02  0.00000000000E+00 0.  1.
         22    1    3    3    0    0 -0.48395312871E+02  0.12383538328E+01  0.94499504469E+02  0.10617813416E+03  0.00000000000E+00 0.  1.
</event>
<event>
 7    1  0.7961130E-006  0.8523469E+02  0.7818608E-02  0.1482257E+00
          2   -1    0    0  502    0  0.00000000000E+00  0.00000000000E+00  0.11044303725E+04  0.11044303725E+04  0.00000000000E+00 0. -1.
          1   -1    0    0  501    0 -0.00000000000E+00 -0.00000000000E+00 -0.27831985431E+03  0.27831985431E+03  0.00000000000E+00 0. -1.
         25    2    1    2    0    0  0.79321207851E+02  0.69779435113E+02  0.17935922775E+03  0.24280946228E+03  0.12500271522E+03 0.  0.
          2    1    1    2  501    0 -0.58718971921E+02 -0.60827311164E+02 -0.23920160135E+03  0.25370314452E+03  0.00000000000E+00 0. -1.
          1    1    1    2  502    0 -0.20602235930E+02 -0.89521239492E+01  0.88595289177E+03  0.88623761999E+03  0.00000000000E+00 0. -1.
         22    1    3    3    0    0 -0.22305932219E+02  0.12436055133E+02 -0.36155685159E+01  0.25793069129E+02  0.00000000000E+00 0.  1.
         22    1    3    3    0    0  0.10162714007E+03  0.57343379979E+02  0.18297479627E+03  0.21701639315E+03  0.00000000000E+00 0.  1.
</event>
<event>
 7    1  0.1110337E-005  0.7736510E+02  0.7818608E-02  0.1364732E+00
          2   -1    0    0  502    0  0.00000000000E+00  0.00000000000E+00  0.19741758313E+04  0.19741758313E+04  0.00000000000E+00 0. -1.
          1   -1    0    0  501    0 -0.00000000000E+00 -0.00000000000E+00 -0.72088288392E+03  0.72088288392E+03  0.00000000000E+00 0. -1.
         25    2    1    2    0    0  0.49053212360E+02 -0.10279725601E+03 -0.27254046295E+03  0.32074359328E+03  0.12499862080E+03 0.  0.
          2    1    1    2  501    0 -0.60358489575E+02  0.42932348044E+02 -0.42052756822E+03  0.42700090094E+03  0.00000000000E+00 0. -1.
          1    1    1    2  502    0  0.11305277215E+02  0.59864907968E+02  0.19463609786E+04  0.19473142210E+04  0.00000000000E+00 0. -1.
         22    1    3    3    0    0  0.52333939608E+02 -0.39253995612E+02 -0.33732269363E+02  0.73604234951E+02  0.00000000000E+00 0. -1.
         22    1    3    3    0    0 -0.32807272477E+01 -0.63543260400E+02 -0.23880819358E+03  0.24713935833E+03  0.00000000000E+00 0. -1.
</event>
<event>
 7    1  0.7961130E-006  0.1613679E+03  0.7818608E-02  0.1233094E+00
          2   -1    0    0  502    0  0.00000000000E+00  0.00000000000E+00  0.39479025681E+03  0.39479025681E+03  0.00000000000E+00 0. -1.
          1   -1    0    0  501    0 -0.00000000000E+00 -0.00000000000E+00 -0.13334680851E+04  0.13334680851E+04  0.00000000000E+00 0. -1.
         25    2    1    2    0    0 -0.95886451704E+02  0.22922161685E+03 -0.15031458646E+03  0.31615850789E+03  0.12499986382E+03 0.  0.
          2    1    1    2  501    0  0.84079833848E+02 -0.13111982198E+03 -0.10867100363E+04  0.10978162548E+04  0.00000000000E+00 0. -1.
          1    1    1    2  502    0  0.11806617856E+02 -0.98101794868E+02  0.29834679451E+03  0.31428357924E+03  0.00000000000E+00 0. -1.
         22    1    3    3    0    0 -0.10794628101E+03  0.22385234174E+03 -0.10646463712E+03  0.27036454916E+03  0.00000000000E+00 0. -1.
         22    1    3    3    0    0  0.12059829308E+02  0.53692751115E+01 -0.43849949346E+02  0.45793958726E+02  0.00000000000E+00 0. -1.
</event>
<event>
 7    1  0.7961130E-006  0.1799634E+03  0.7818608E-02  0.1258596E+00
          2   -1    0    0  502    0  0.00000000000E+00  0.00000000000E+00  0.52374502138E+03  0.52374502138E+03  0.00000000000E+00 0. -1.
          1   -1    0    0  501    0 -0.00000000000E+00 -0.00000000000E+00 -0.11634402554E+04  0.11634402554E+04  0.00000000000E+00 0. -1.
         25    2    1    2    0    0  0.79289887053E+02 -0.99426830874E+02 -0.85835234485E+01  0.17852509087E+03  0.12499980124E+03 0.  0.
          2    1    1    2  501    0  0.60370796505E+02 -0.32480676959E+02 -0.10476847367E+04  0.10499252044E+04  0.00000000000E+00 0. -1.
          1    1    1    2  502    0 -0.13966068356E+03  0.13190750783E+03  0.41657302610E+03  0.45873498148E+03  0.00000000000E+00 0. -1.
         22    1    3    3    0    0  0.81148930374E+02 -0.49784403801E+01  0.11022526203E+02  0.82045291476E+02  0.00000000000E+00 0.  1.
         22    1    3    3    0    0 -0.18590433204E+01 -0.94448390494E+02 -0.19606049651E+02  0.96479799398E+02  0.00000000000E+00 0.  1.
</event>
<event>
 7    1  0.7961130E-006  0.9754118E+02  0.7818608E-02  0.1349371E+00
          2   -1    0    0  502    0  0.00000000000E+00  0.00000000000E+00  0.28796258436E+03  0.28796258436E+03  0.00000000000E+00 0. -1.
          1   -1    0    0  501    0 -0.00000000000E+00 -0.00000000000E+00 -0.70833543186E+03  0.70833543186E+03  0.00000000000E+00 0. -1.
         25    2    1    2    0    0  0.19635856874E+02 -0.43112269000E+02 -0.16691239592E+03  0.21384432670E+03  0.12500165413E+03 0.  0.
          2    1    1    2  501    0  0.41359068932E+02 -0.36272330989E+02 -0.50694244682E+03  0.50991852189E+03  0.00000000000E+00 0. -1.
          1    1    1    2  502    0 -0.60994925806E+02  0.79384599989E+02  0.25348199524E+03  0.27253516764E+03  0.00000000000E+00 0. -1.
         22    1    3    3    0    0  0.10635321199E+02 -0.25925365378E+02  0.14394094784E+02  0.31502771174E+02  0.00000000000E+00 0. -1.
         22    1    3    3    0    0  0.90005356751E+01 -0.17186903622E+02 -0.18130649071E+03  0.18234155552E+03  0.00000000000E+00 0. -1.
</event>
<event>
 7    1  0.7961130E-006  0.9825489E+02  0.7818608E-02  0.1310111E+00
          2   -1    0    0  502    0  0.00000000000E+00  0.00000000000E+00  0.14439566188E+04  0.14439566188E+04  0.00000000000E+00 0. -1.
          1   -1    0    0  501    0 -0.00000000000E+00 -0.00000000000E+00 -0.25962993179E+03  0.25962993179E+03  0.00000000000E+00 0. -1.
         25    2    1    2    0    0  0.37468513804E+02 -0.44325620988E+01  0.35794353594E+03  0.38101366332E+03  0.12499719830E+03 0.  0.
          2    1    1    2  501    0  0.73410343368E+02 -0.23745168894E+02 -0.23895873467E+03  0.25110593071E+03  0.00000000000E+00 0. -1.
          1    1    1    2  502    0 -0.11087885717E+03  0.28177730993E+02  0.10653418858E+04  0.10714669566E+04  0.00000000000E+00 0. -1.
         22    1    3    3    0    0  0.74893959705E+02  0.25481611806E+02  0.17775786951E+03  0.19456689830E+03  0.00000000000E+00 0. -1.
         22    1    3    3    0    0 -0.37425445902E+02 -0.29914173905E+02  0.18018566643E+03  0.18644676503E+03  0.00000000000E+00 0. -1.
</event>
<event>
 7    1  0.7961130E-006  0.4868459E+02  0.7818608E-02  0.1514153E+00
          2   -1    0    0  502    0  0.00000000000E+00  0.00000000000E+00  0.12252730021E+04  0.12252730021E+04  0.00000000000E+00 0. -1.
          1   -1    0    0  501    0 -0.00000000000E+00 -0.00000000000E+00 -0.29231210948E+03  0.29231210948E+03  0.00000000000E+00 0. -1.
         25    2    1    2    0    0  0.46041115202E+01  0.74553776559E+02 -0.12868315602E+03  0.19433120629E+03  0.12500319857E+03 0.  0.
          2    1    1    2  501    0  0.69211638325E+01 -0.45163306471E+02 -0.12659891211E+03  0.13459164650E+03  0.00000000000E+00 0. -1.
          1    1    1    2  502    0 -0.11525275353E+02 -0.29390470088E+02  0.11882429607E+04  0.11886622588E+04  0.00000000000E+00 0. -1.
         22    1    3    3    0    0 -0.56704604526E+02  0.56875582487E+02 -0.85382052118E+02  0.11721919161E+03  0.00000000000E+00 0.  1.
         22    1    3    3    0    0  0.61308716047E+02  0.17678194072E+02 -0.43301103898E+02  0.77112014678E+02  0.00000000000E+00 0.  1.
</event>
<event>
 7    1  0.7961130E-006  0.1513438E+03  0.7818608E-02  0.1271386E+00
          2   -1    0    0  502    0  0.00000000000E+00  0.00000000000E+00  0.90070353901E+03  0.90070353901E+03  0.00000000000E+00 0. -1.
          1   -1    0    0  501    0 -0.00000000000E+00 -0.00000000000E+00 -0.34500385341E+04  0.34500385341E+04  0.00000000000E+00 0. -1.
         25    2    1    2    0    0  0.84043608045E+02  0.40416768234E+02 -0.14012836978E+03  0.20965932365E+03  0.12499691503E+03 0.  0.
          2    1    1    2  501    0 -0.11181395372E+03 -0.10680462716E+03 -0.32718205476E+04  0.32754723758E+04  0.00000000000E+00 0. -1.
          1    1    1    2  502    0  0.27770345673E+02  0.66387858928E+02  0.86261392236E+03  0.86561037364E+03  0.00000000000E+00 0. -1.
         22    1    3    3    0    0  0.37109688917E+02  0.83505810376E+02 -0.71618254921E+02  0.11610135148E+03  0.00000000000E+00 0.  1.
         22    1    3    3    0    0  0.46933919127E+02 -0.43089042142E+02 -0.68510114863E+02  0.93557972166E+02  0.00000000000E+00 0.  1.
</event>
<event>
 7    1  0.7961130E-006  0.8315376E+02  0.7818608E-02  0.1499500E+00
          2   -1    0    0  502    0  0.00000000000E+00  0.00000000000E+00  0.22977855747E+03  0.22977855747E+03  0.00000000000E+00 0. -1.
          1   -1    0    0  501    0 -0.00000000000E+00 -0.00000000000E+00 -0.69968856095E+03  0.69968856095E+03  0.00000000000E+00 0. -1.
         25    2    1    2    0    0  0.85249026408E+02 -0.38927549504E+02 -0.14505152263E+03  0.21318530196E+03  0.12500111257E+03 0.  0.
          2    1    1    2  501    0 -0.18123151927E+02 -0.94131883365E+01 -0.51161652370E+03  0.51202394873E+03  0.00000000000E+00 0. -1.
          1    1    1    2  502    0 -0.67125874481E+02  0.48340737840E+02  0.18675804285E+03  0.20425786773E+03  0.00000000000E+00 0. -1.
         22    1    3    3    0    0  0.28294854794E+02 -0.63785080226E+02 -0.18484885200E+02  0.72186053003E+02  0.00000000000E+00 0. -1.
         22    1    3    3    0    0  0.56954171614E+02  0.24857530722E+02 -0.12656663743E+03  0.14099924896E+03  0.00000000000E+00 0. -1.
</event>
<event>
 7    1  0.7961130E-006  0.6537640E+02  0.7818608E-02  0.1395134E+00
          2   -1    0    0  502    0  0.00000000000E+00  0.00000000000E+00  0.27699619061E+04  0.27699619061E+04  0.00000000000E+00 0. -1.
          1   -1    0    0  501    0 -0.00000000000E+00 -0.00000000000E+00 -0.11647379135E+03  0.11647379135E+03  0.00000000000E+00 0. -1.
         25    2    1    2    0    0  0.10850858803E+03  0.19089666658E+01  0.25219251829E+03  0.30166677492E+03  0.12499607586E+03 0.  0.
          2    1    1    2  501    0 -0.49021726135E+02 -0.27606667023E+02 -0.82648264776E+02  0.99979964832E+02  0.00000000000E+00 0. -1.
          1    1    1    2  502    0 -0.59486861896E+02  0.25697700358E+02  0.24839438612E+04  0.24847889577E+04  0.00000000000E+00 0. -1.
         22    1    3    3    0    0  0.11020639863E+03 -0.43363580323E+02  0.16129546194E+03  0.20010516345E+03  0.00000000000E+00 0.  1.
         22    1    3    3    0    0 -0.16978105996E+01  0.45272546989E+02  0.90897056344E+02  0.10156161147E+03  0.00000000000E+00 0.  1.
</event>
<event>
 7    1  0.7961130E-006  0.2206499E+03  0.7818608E-02  0.1231782E+00
          2   -1    0    0  502    0  0.00000000000E+00  0.00000000000E+00  0.16786869304E+04  0.16786869304E+04  0.00000000000E+00 0. -1.
          1   -1    0    0  501    0 -0.00000000000E+00 -0.00000000000E+00 -0.45673899354E+03  0.45673899354E+03  0.00000000000E+00 0. -1.
         25    2    1    2    0    0 -0.16218269453E+03 -0.15072048743E+03  0.11968505211E+03  0.28101694092E+03  0.12500447052E+03 0.  0.
          2    1    1    2  501    0  0.20318342441E+03  0.90027807250E+02 -0.34223224732E+03  0.40805811001E+03  0.00000000000E+00 0. -1.
          1    1    1    2  502    0 -0.41000729885E+02  0.60692680180E+02  0.14444951321E+04  0.14463508731E+04  0.00000000000E+00 0. -1.
         22    1    3    3    0    0 -0.33120315497E+02  0.19949557455E+02  0.30299389034E+02  0.49122226305E+02  0.00000000000E+00 0.  1.
         22    1    3    3    0    0 -0.12906237903E+03 -0.17067004489E+03  0.89385663080E+02  0.23189471461E+03  0.00000000000E+00 0.  1.
</event>
<event>
 7    1  0.7961130E-006  0.5749119E+02  0.7818608E-02  0.1451752E+00
          2   -1    0    0  502    0  0.00000000000E+00  0.00000000000E+00  0.23942648096E+04  0.23942648096E+04  0.00000000000E+00 0. -1.
          1   -1    0    0  501    0 -0.00000000000E+00 -0.00000000000E+00 -0.19149033171E+03  0.19149033171E+03  0.00000000000E+00 0. -1.
         25    2    1    2    0    0  0.60241400080E+02  0.13007280461E+02  0.15250826427E+04  0.15314374101E+04  0.12500103291E+03 0.  0.
          2    1    1    2  501    0 -0.34824824260E+02 -0.45781992977E+02 -0.18340951597E+03  0.19221813081E+03  0.00000000000E+00 0. -1.
          1    1    1    2  502    0 -0.25416575821E+02  0.32774712517E+02  0.86110135116E+03  0.86209960044E+03  0.00000000000E+00 0. -1.
         22    1    3    3    0    0  0.95471909418E+02 -0.11707633930E+02  0.10854444393E+04  0.10896979329E+04  0.00000000000E+00 0.  1.
         22    1    3    3    0    0 -0.35230509337E+02  0.24714914391E+02  0.43963820342E+03  0.44173947716E+03  0.00000000000E+00 0.  1.
</event>
<event>
 7    1  0.7961130E-006  0.1170762E+03  0.7818608E-02  0.1342029E+00
          2   -1    0    0  502    0  0.00000000000E+00  0.00000000000E+00  0.56224553154E+03  0.56224553154E+03  0.00000000000E+00 0. -1.
          1   -1    0    0  501    0 -0.00000000000E+00 -0.00000000000E+00 -0.49243627416E+03  0.49243627416E+03  0.00000000000E+00 0. -1.
         25    2    1    2    0    0 -0.29948510777E+00 -0.10259537830E+03  0.10254921177E+03  0.19149067782E+03  0.12500574994E+03 0.  0.
          2    1    1    2  501    0  0.48840634102E+02  0.10775709694E+03 -0.43866623898E+03  0.45434025653E+03  0.00000000000E+00 0. -1.
          1    1    1    2  502    0 -0.48541148994E+02 -0.51617186397E+01  0.40592628459E+03  0.40885087136E+03  0.00000000000E+00 0. -1.
         22    1    3    3    0    0 -0.14998311645E+02 -0.48032178554E+02  0.12180658227E+03  0.13179105817E+03  0.00000000000E+00 0. -1.
         22    1    3    3    0    0  0.14698826537E+02 -0.54563199748E+02 -0.19257370502E+02  0.59699619655E+02  0.00000000000E+00 0. -1.
</event>
<event>
 7    1  0.7961130E-006  0.6902841E+02  0.7818608E-02  0.1464762E+00
          2   -1    0    0  502    0  0.00000000000E+00  0.00000000000E+00  0.71775827564E+03  0.71775827564E+03  0.00000000000E+00 0. -1.
          1   -1    0    0  501    0 -0.00000000000E+00 -0.00000000000E+00 -0.46168572351E+02  0.46168572351E+02  0.00000000000E+00 0. -1.
         25    2    1    2    0    0  0.57378553135E+02 -0.42609377016E+02  0.18455367305E+03  0.23407966919E+03  0.12500150368E+03 0.  0.
          2    1    1    2  501    0 -0.32540884937E+02  0.61853699786E+02  0.37694085859E+02  0.79408018981E+02  0.00000000000E+00 0. -1.
          1    1    1    2  502    0 -0.24837668198E+02 -0.19244322770E+02  0.44934194439E+03  0.45043915983E+03  0.00000000000E+00 0. -1.
         22    1    3    3    0    0  0.82780574363E+02  0.11822903310E+02  0.99864423808E+02  0.13025094118E+03  0.00000000000E+00 0.  1.
         22    1    3    3    0    0 -0.25402021228E+02 -0.54432280326E+02  0.84689249239E+02  0.10382872801E+03  0.00000000000E+00 0.  1.
</event>
<event>
 7    1  0.7961130E-006  0.1033312E+03  0.7818608E-02  0.1357870E+00
          2   -1    0    0  502    0  0.00000000000E+00  0.00000000000E+00  0.25359443451E+04  0.25359443451E+04  0.00000000000E+00 0. -1.
          1   -1    0    0  501    0 -0.00000000000E+00 -0.00000000000E+00 -0.15821760858E+03  0.15821760858E+03  0.00000000000E+00 0. -1.
         25    2    1    2    0    0  0.23154116459E+02  0.55122602538E+02  0.19717338812E+03  0.24099211388E+03  0.12500095820E+03 0.  0.
          2    1    1    2  501    0 -0.50270197218E+02 -0.95111732725E+02 -0.11478795331E+03  0.15732008345E+03  0.00000000000E+00 0. -1.
          1    1    1    2  502    0  0.27116080759E+02  0.39989130187E+02  0.22953413017E+04  0.22958497563E+04  0.00000000000E+00 0. -1.
         22    1    3    3    0    0 -0.13815469418E+02  0.24053723793E+02 -0.90594485434E+01  0.29180857278E+02  0.00000000000E+00 0. -1.
         22    1    3    3    0    0  0.36969585877E+02  0.31068878745E+02  0.20623283666E+03  0.21181125660E+03  0.00000000000E+00 0. -1.
</event>
<event>
 7    1  0.7961130E-006  0.1034238E+03  0.7818608E-02  0.1414385E+00
          2   -1    0    0  502    0  0.00000000000E+00  0.00000000000E+00  0.18491355963E+04  0.18491355963E+04  0.00000000000E+00 0. -1.
          1   -1    0    0  501    0 -0.00000000000E+00 -0.00000000000E+00 -0.66356579840E+03  0.66356579840E+03  0.00000000000E+00 0. -1.
         25    2    1    2    0    0  0.22348159945E+02  0.13125892138E+03  0.97688741668E+02  0.20712428773E+03  0.12501614147E+03 0.  0.
          2    1    1    2  501    0 -0.48741412614E+01 -0.30176795948E+02 -0.60691254616E+03  0.60768185340E+03  0.00000000000E+00 0. -1.
          1    1    1    2  502    0 -0.17474018683E+02 -0.10108212543E+03  0.16947936024E+04  0.16978952536E+04  0.00000000000E+00 0. -1.
         22    1    3    3    0    0  0.68041711042E+01 -0.22357606822E+02  0.31283690854E+02  0.39049054287E+02  0.00000000000E+00 0.  1.
         22    1    3    3    0    0  0.15543988840E+02  0.15361652820E+03  0.66405050814E+02  0.16807523345E+03  0.00000000000E+00 0.  1.
</event>
<event>
 7    1  0.7961130E-006  0.9102679E+02  0.7818608E-02  0.1394449E+00
          2   -1    0    0  502    0  0.00000000000E+00  0.00000000000E+00  0.52905028016E+02  0.52905028016E+02  0.00000000000E+00 0. -1.
          1   -1    0    0  501    0 -0.00000000000E+00 -0.00000000000E+00 -0.15541622599E+04  0.15541622599E+04  0.00000000000E+00 0. -1.
         25    2    1    2    0    0  0.77585851538E+02 -0.10352418404E+03 -0.27525042457E+03  0.32882366193E+03  0.12500153351E+03 0.  0.
          2    1    1    2  501    0 -0.52888789212E+02  0.71263583753E+02 -0.12337043775E+04  0.12368921592E+04  0.00000000000E+00 0. -1.
          1    1    1    2  502    0 -0.24697062326E+02  0.32260600290E+02  0.76975701941E+01  0.41351466787E+02  0.00000000000E+00 0. -1.
         22    1    3    3    0    0  0.34325845070E+02 -0.11853529133E+03 -0.14308288496E+03  0.18894864619E+03  0.00000000000E+00 0. -1.
         22    1    3    3    0    0  0.43260006468E+02  0.15011107286E+02 -0.13216753961E+03  0.13987501574E+03  0.00000000000E+00 0. -1.
</event>
<event>
 7    1  0.7961130E-006  0.3586600E+03  0.7818608E-02  0.1199857E+00
          2   -1    0    0  502    0  0.00000000000E+00  0.00000000000E+00  0.38010030814E+04  0.38010030814E+04  0.00000000000E+00 0. -1.
          1   -1    0    0  501    0 -0.00000000000E+00 -0.00000000000E+00 -0.49021053251E+03  0.49021053251E+03  0.00000000000E+00 0. -1.
         25    2    1    2    0    0 -0.13161941353E+03 -0.35917394875E+03  0.24043964775E+04  0.24378444601E+04  0.12503437502E+03 0.  0.
          2    1    1    2  501    0 -0.13936265529E+02  0.61597756995E+02 -0.45137466409E+03  0.45577142357E+03  0.00000000000E+00 0. -1.
          1    1    1    2  502    0  0.14555567906E+03  0.29757619176E+03  0.13577707355E+04  0.13975977303E+04  0.00000000000E+00 0. -1.
         22    1    3    3    0    0  0.70623783179E+01 -0.13665534099E+03  0.98140359426E+03  0.99089735807E+03  0.00000000000E+00 0. -1.
         22    1    3    3    0    0 -0.13868179185E+03 -0.22251860776E+03  0.14229928833E+04  0.14469471020E+04  0.00000000000E+00 0. -1.
</event>
<event>
 7    1  0.7961130E-006  0.5489407E+02  0.7818608E-02  0.1447987E+00
          2   -1    0    0  502    0  0.00000000000E+00  0.00000000000E+00  0.16885600614E+03  0.16885600614E+03  0.00000000000E+00 0. -1.
          1   -1    0    0  501    0 -0.00000000000E+00 -0.00000000000E+00 -0.99741790444E+03  0.99741790444E+03  0.00000000000E+00 0. -1.
         25    2    1    2    0    0 -0.10901959339E+02  0.48022585721E+02 -0.50748096340E+03  0.52496402705E+03  0.12500112011E+03 0.  0.
          2    1    1    2  501    0 -0.33755845871E+02 -0.48373545085E+02 -0.47622589709E+03  0.47986514986E+03  0.00000000000E+00 0. -1.
          1    1    1    2  502    0  0.44657805210E+02  0.35095936409E+00  0.15514496219E+03  0.16144473367E+03  0.00000000000E+00 0. -1.
         22    1    3    3    0    0 -0.64249925686E+02  0.45774672232E+02 -0.25610614288E+03  0.26798083885E+03  0.00000000000E+00 0. -1.
         22    1    3    3    0    0  0.53347966347E+02  0.22479134888E+01 -0.25137482051E+03  0.25698318820E+03  0.00000000000E+00 0. -1.
</event>
<event>
 7    1  0.7961130E-006  0.8619903E+02  0.7818608E-02  0.1394987E+00
          2   -1    0    0  502    0  0.00000000000E+00  0.00000000000E+00  0.30184358972E+03  0.30184358972E+03  0.00000000000E+00 0. -1.
          1   -1    0    0  501    0 -0.00000000000E+00 -0.00000000000E+00 -0.58864906618E+03  0.58864906618E+03  0.00000000000E+00 0. -1.
         25    2    1    2    0    0  0.77035637343E+02 -0.47747335976E+01  0.19815649015E+03  0.24667409514E+03  0.12499930849E+03 0.  0.
          2    1    1    2  501    0 -0.77717915085E+02 -0.37940020640E+02 -0.55504452548E+03  0.56174188446E+03  0.00000000000E+00 0. -1.
          1    1    1    2  502    0  0.68227774165E+00  0.42714754238E+02  0.70082558879E+02  0.82076676294E+02  0.00000000000E+00 0. -1.
         22    1    3    3    0    0  0.62177263932E+02 -0.61925619359E+02  0.11388152838E+03  0.14376994467E+03  0.00000000000E+00 0. -1.
         22    1    3    3    0    0  0.14858373412E+02  0.57150885762E+02  0.84274961771E+02  0.10290415048E+03  0.00000000000E+00 0. -1.
</event>
<event>
 7    1  0.7961130E-006  0.9421246E+02  0.7818608E-02  0.1357048E+00
          2   -1    0    0  502    0  0.00000000000E+00  0.00000000000E+00  0.19864531177E+04  0.19864531177E+04  0.00000000000E+00 0. -1.
          1   -1    0    0  501    0 -0.00000000000E+00 -0.00000000000E+00 -0.20278755688E+03  0.20278755688E+03  0.00000000000E+00 0. -1.
         25    2    1    2    0    0  0.51349483209E+02  0.13861670928E+02  0.81782110230E+02  0.15855994750E+03  0.12499611215E+03 0.  0.
          2    1    1    2  501    0  0.20616364252E+02  0.49217464166E+02 -0.15880634035E+03  0.16753162982E+03  0.00000000000E+00 0. -1.
          1    1    1    2  502    0 -0.71965847461E+02 -0.63079135094E+02  0.18606897909E+04  0.18631490972E+04  0.00000000000E+00 0. -1.
         22    1    3    3    0    0 -0.26272153631E+02 -0.22368093408E+02  0.61520193037E+02  0.70535748457E+02  0.00000000000E+00 0.  1.
         22    1    3    3    0    0  0.77621636840E+02  0.36229764336E+02  0.20261917194E+02  0.88024199047E+02  0.00000000000E+00 0.  1.
</event>
<event>
 7    1  0.7961130E-006  0.6365017E+02  0.7818608E-02  0.1388351E+00
          2   -1    0    0  502    0  0.00000000000E+00  0.00000000000E+00  0.54454043708E+03  0.54454043708E+03  0.00000000000E+00 0. -1.
          1   -1    0    0  501    0 -0.00000000000E+00 -0.00000000000E+00 -0.32319518703E+03  0.32319518703E+03  0.00000000000E+00 0. -1.
         25    2    1    2    0    0 -0.57868367429E+01  0.97767146132E+01 -0.83267672896E+02  0.15061718816E+03  0.12499184130E+03 0.  0.
          2    1    1    2  501    0 -0.21030831486E+02 -0.67501547753E+02 -0.19812759336E+03  0.21036467876E+03  0.00000000000E+00 0. -1.
          1    1    1    2  502    0  0.26817668228E+02  0.57724833140E+02  0.50274051631E+03  0.50675375719E+03  0.00000000000E+00 0. -1.
         22    1    3    3    0    0  0.33312717034E+02 -0.31163357342E+02 -0.82184083379E+02  0.93995295190E+02  0.00000000000E+00 0. -1.
         22    1    3    3    0    0 -0.39099553777E+02  0.40940071955E+02 -0.10835895170E+01  0.56621892970E+02  0.00000000000E+00 0. -1.
</event>
<event>
 7    1  0.7961130E-006  0.2312661E+03  0.7818608E-02  0.1197771E+00
          2   -1    0    0  502    0  0.00000000000E+00  0.00000000000E+00  0.19977447367E+04  0.19977447367E+04  0.00000000000E+00 0. -1.
          1   -1    0    0  501    0 -0.00000000000E+00 -0.00000000000E+00 -0.23369942046E+03  0.23369942046E+03  0.00000000000E+00 0. -1.
         25    2    1    2    0    0 -0.20460760227E+03  0.26607536713E+02 -0.33272716016E+02  0.24352295823E+03  0.12499650251E+03 0.  0.
          2    1    1    2  501    0  0.28713643209E+03  0.30203394313E+02  0.12837635380E+03  0.31597478361E+03  0.00000000000E+00 0. -1.
          1    1    1    2  502    0 -0.82528829826E+02 -0.56810931026E+02  0.16689416785E+04  0.16719464154E+04  0.00000000000E+00 0. -1.
         22    1    3    3    0    0 -0.52356505198E+02 -0.48590504710E+02 -0.97471655064E+01  0.72091941436E+02  0.00000000000E+00 0.  1.
         22    1    3    3    0    0 -0.15225109707E+03  0.75198041423E+02 -0.23525550509E+02  0.17143101679E+03  0.00000000000E+00 0.  1.
</event>
<event>
 7    1  0.7961130E-006  0.1069020E+03  0.7818608E-02  0.1286768E+00
          2   -1    0    0  502    0  0.00000000000E+00  0.00000000000E+00  0.81104037055E+03  0.81104037055E+03  0.00000000000E+00 0. -1.
          1   -1    0    0  501    0 -0.00000000000E+00 -0.00000000000E+00 -0.14518510301E+03  0.14518510301E+03  0.00000000000E+00 0. -1.
         25    2    1    2    0    0 -0.13171537914E+03  0.93728387179E+02  0.79448524064E+02  0.21925069733E+03  0.12499939456E+03 0.  0.
          2    1    1    2  501    0  0.27472075115E+02 -0.83587974229E+02 -0.43687115651E+02  0.98235576146E+02  0.00000000000E+00 0. -1.
          1    1    1    2  502    0  0.10424330402E+03 -0.10140412949E+02  0.63009385912E+03  0.63873920007E+03  0.00000000000E+00 0. -1.
         22    1    3    3    0    0  0.15645636445E+02  0.54330597918E+01  0.39566977703E+02  0.42893470400E+02  0.00000000000E+00 0.  1.
         22    1    3    3    0    0 -0.14736101558E+03  0.88295327387E+02  0.39881546361E+02  0.17635722693E+03  0.00000000000E+00 0.  1.
</event>
<event>
 7    1  0.7961130E-006  0.2556560E+03  0.7818608E-02  0.1193194E+00
          2   -1    0    0  502    0  0.00000000000E+00  0.00000000000E+00  0.32188516535E+03  0.32188516535E+03  0.00000000000E+00 0. -1.
          1   -1    0    0  501    0 -0.00000000000E+00 -0.00000000000E+00 -0.12520717058E+04  0.12520717058E+04  0.00000000000E+00 0. -1.
         25    2    1    2    0    0  0.16127644886E+03  0.17538546996E+03  0.60734566622E+02  0.27583286251E+03  0.12499969771E+03 0.  0.
          2    1    1    2  501    0 -0.44417410528E+02  0.84303796489E+02 -0.10083288868E+04  0.10128213961E+04  0.00000000000E+00 0. -1.
          1    1    1    2  502    0 -0.11685903833E+03 -0.25968926645E+03  0.17407779680E+02  0.28530261257E+03  0.00000000000E+00 0. -1.
         22    1    3    3    0    0  0.54903055906E+02  0.12120049520E+03 -0.15855235934E+02  0.13399736599E+03  0.00000000000E+00 0. -1.
         22    1    3    3    0    0  0.10637339296E+03  0.54184974757E+02  0.76589802556E+02  0.14183549652E+03  0.00000000000E+00 0. -1.
</event>
<event>
 7    1  0.7961130E-006  0.5934334E+02  0.7818608E-02  0.1462070E+00
          2   -1    0    0  502    0  0.00000000000E+00  0.00000000000E+00  0.14651148950E+03  0.14651148950E+03  0.00000000000E+00 0. -1.
          1   -1    0    0  501    0 -0.00000000000E+00 -0.00000000000E+00 -0.30942072388E+03  0.30942072388E+03  0.00000000000E+00 0. -1.
         25    2    1    2    0    0  0.27390603427E+02 -0.79383289260E+02 -0.23161991653E+03  0.27626850082E+03  0.12499818815E+03 0.  0.
          2    1    1    2  501    0 -0.21149376288E+02  0.42642667566E+02 -0.41607527164E+02  0.63220878918E+02  0.00000000000E+00 0. -1.
          1    1    1    2  502    0 -0.62412271396E+01  0.36740621695E+02  0.11031820932E+03  0.11644283364E+03  0.00000000000E+00 0. -1.
         22    1    3    3    0    0 -0.18995653192E+02  0.20231711715E+02 -0.11104377294E+02  0.29890871420E+02  0.00000000000E+00 0.  1.
         22    1    3    3    0    0  0.46386256620E+02 -0.99615000976E+02 -0.22051553924E+03  0.24637762940E+03  0.00000000000E+00 0.  1.
</event>
<event>
 7    1  0.7961130E-006  0.6397396E+02  0.7818608E-02  0.1541225E+00
          2   -1    0    0  502    0  0.00000000000E+00  0.00000000000E+00  0.38915563548E+02  0.38915563548E+02  0.00000000000E+00 0. -1.
          1   -1    0    0  501    0 -0.00000000000E+00 -0.00000000000E+00 -0.67049678605E+03  0.67049678605E+03  0.00000000000E+00 0. -1.
         25    2    1    2    0    0 -0.46736516442E+02  0.13263344077E+02 -0.45738867280E+03  0.47664469051E+03  0.12500217884E+03 0.  0.
          2    1    1    2  501    0 -0.18336014799E+02 -0.81945101851E+01 -0.16574065118E+03  0.16695305595E+03  0.00000000000E+00 0. -1.
          1    1    1    2  502    0  0.65072531241E+02 -0.50688338921E+01 -0.84518985221E+01  0.65814603149E+02  0.00000000000E+00 0. -1.
         22    1    3    3    0    0 -0.66247930488E+02  0.22001527719E+02 -0.44781010160E+03  0.45321820640E+03  0.00000000000E+00 0. -1.
         22    1    3    3    0    0  0.19511414046E+02 -0.87381836421E+01 -0.95785712065E+01  0.23426484111E+02  0.00000000000E+00 0. -1.
</event>
<event>
 7    1  0.7961130E-006  0.7494872E+02  0.7818608E-02  0.1351439E+00
          2   -1    0    0  502    0  0.00000000000E+00  0.00000000000E+00  0.86812437084E+03  0.86812437084E+03  0.00000000000E+00 0. -1.
          1   -1    0    0  501    0 -0.00000000000E+00 -0.00000000000E+00 -0.82720194576E+02  0.82720194576E+02  0.00000000000E+00 0. -1.
         25    2    1    2    0    0  0.86160932558E+01 -0.11724045509E+00  0.61251218701E+02  0.13946501337E+03  0.12499810940E+03 0.  0.
          2    1    1    2  501    0  0.66568330762E+02  0.22731647028E+02 -0.11735495567E+02  0.71314741066E+02  0.00000000000E+00 0. -1.
          1    1    1    2  502    0 -0.75184424018E+02 -0.22614406573E+02  0.73588845313E+03  0.74006481098E+03  0.00000000000E+00 0. -1.
         22    1    3    3    0    0  0.34275463723E+02 -0.60317153648E+01  0.92365053706E+02  0.98704063492E+02  0.00000000000E+00 0.  1.
         22    1    3    3    0    0 -0.25659370468E+02  0.59144749097E+01 -0.31113835006E+02  0.40760949879E+02  0.00000000000E+00 0.  1.
</event>
<event>
 7    1  0.7961130E-006  0.3363616E+02  0.7818608E-02  0.1579705E+00
          2   -1    0    0  502    0  0.00000000000E+00  0.00000000000E+00  0.10664204868E+04  0.10664204868E+04  0.00000000000E+00 0. -1.
          1   -1    0    0  501    0 -0.00000000000E+00 -0.00000000000E+00 -0.53387026227E+03  0.53387026227E+03  0.00000000000E+00 0. -1.
         25    2    1    2    0    0 -0.18108748387E+02  0.13157452750E+02  0.26466259539E+03  0.29354992035E+03  0.12499688398E+03 0.  0.
          2    1    1    2  501    0  0.30615049222E+02  0.14039008992E+02 -0.51859559909E+03  0.51968814727E+03  0.00000000000E+00 0. -1.
          1    1    1    2  502    0 -0.12506300835E+02 -0.27196461742E+02  0.78648322821E+03  0.78705268143E+03  0.00000000000E+00 0. -1.
         22    1    3    3    0    0 -0.64515239869E+02 -0.50817382173E+01  0.20914272276E+03  0.21892628605E+03  0.00000000000E+00 0. -1.
         22    1    3    3    0    0  0.46406491482E+02  0.18239190967E+02  0.55519872629E+02  0.74623634296E+02  0.00000000000E+00 0. -1.
</event>
<event>
 7    1  0.7961130E-006  0.4969696E+02  0.7818608E-02  0.1490209E+00
          2   -1    0    0  502    0  0.00000000000E+00  0.00000000000E+00  0.92061951605E+02  0.92061951605E+02  0.00000000000E+00 0. -1.
          1   -1    0    0  501    0 -0.00000000000E+00 -0.00000000000E+00 -0.28496787274E+03  0.28496787274E+03  0.00000000000E+00 0. -1.
         25    2    1    2    0    0 -0.41001617676E+02  0.15201148976E+02 -0.64456042307E+02  0.14728291107E+03  0.12500186767E+03 0.  0.
          2    1    1    2  501    0  0.18309087456E+02  0.31505787326E+02 -0.16322988101E+03  0.16724781426E+03  0.00000000000E+00 0. -1.
          1    1    1    2  502    0  0.22692530220E+02 -0.46706936303E+02  0.34780002184E+02  0.62499099022E+02  0.00000000000E+00 0. -1.
         22    1    3    3    0    0  0.40275865716E+02  0.17918337943E+02 -0.46357281208E+02  0.63970381543E+02  0.00000000000E+00 0.  1.
         22    1    3    3    0    0 -0.81277483392E+02 -0.27171889664E+01 -0.18098761100E+02  0.83312529524E+02  0.00000000000E+00 0.  1.
</event>
<event>
 7    1  0.7961130E-006  0.1263197E+03  0.7818608E-02  0.1369009E+00
          2   -1    0    0  502    0  0.00000000000E+00  0.00000000000E+00  0.10193853151E+03  0.10193853151E+03  0.00000000000E+00 0. -1.
          1   -1    0    0  501    0 -0.00000000000E+00 -0.00000000000E+00 -0.17816494265E+04  0.17816494265E+04  0.00000000000E+00 0. -1.
         25    2    1    2    0    0  0.51550197275E+02 -0.86089134221E+02 -0.57832098009E+03  0.60012324585E+03  0.12499596928E+03 0.  0.
          2    1    1    2  501    0 -0.62171172190E+02  0.12049592981E+03 -0.11848421720E+04  0.11925751533E+04  0.00000000000E+00 0. -1.
          1    1    1    2  502    0  0.10620974916E+02 -0.34406795593E+02  0.83452257103E+02  0.90889558843E+02  0.00000000000E+00 0. -1.
         22    1    3    3    0    0  0.56262342535E+02 -0.84066029623E+02 -0.22418481373E+03  0.24594995269E+03  0.00000000000E+00 0.  1.
         22    1    3    3    0    0 -0.47121452601E+01 -0.20231045978E+01 -0.35413616636E+03  0.35417329316E+03  0.00000000000E+00 0.  1.
</event>
<event>
 7    1  0.9106716E-006  0.9876110E+02  0.7818608E-02  0.1295446E+00
          2   -1    0    0  502    0  0.00000000000E+00  0.00000000000E+00  0.17166802253E+04  0.17166802253E+04  0.00000000000E+00 0. -1.
          1   -1    0    0  501    0 -0.00000000000E+00 -0.00000000000E+00 -0.86552027662E+03  0.86552027662E+03  0.00000000000E+00 0. -1.
         25    2    1    2    0    0 -0.70771592801E+01  0.49193802531E+02 -0.39758299813E+03  0.41972357409E+03  0.12500208739E+03 0.  0.
          2    1    1    2  501    0 -0.86305115920E+02 -0.16234916934E+02 -0.45119254059E+03  0.45965949816E+03  0.00000000000E+00 0. -1.
          1    1    1    2  502    0  0.93382275200E+02 -0.32958885597E+02  0.16999354874E+04  0.17028174297E+04  0.00000000000E+00 0. -1.
         22    1    3    3    0    0  0.41755919937E+02 -0.24906627766E+01 -0.51187244588E+02  0.66105175738E+02  0.00000000000E+00 0.  1.
         22    1    3    3    0    0 -0.48833079217E+02  0.51684465307E+02 -0.34639575355E+03  0.35361839835E+03  0.00000000000E+00 0.  1.
</event>
<event>
 7    1  0.7961130E-006  0.5911003E+02  0.7818608E-02  0.1455008E+00
          2   -1    0    0  502    0  0.00000000000E+00  0.00000000000E+00  0.21593575480E+04  0.21593575480E+04  0.00000000000E+00 0. -1.
          1   -1    0    0  501    0 -0.00000000000E+00 -0.00000000000E+00 -0.60343307734E+02  0.60343307734E+02  0.00000000000E+00 0. -1.
         25    2    1    2    0    0 -0.68848127807E+02 -0.65889202895E+02  0.74750014150E+03  0.76384690289E+03  0.12499671096E+03 0.  0.
          2    1    1    2  501    0  0.48818764902E+02  0.31974564917E+02 -0.35482465788E+02  0.68298242925E+02  0.00000000000E+00 0. -1.
          1    1    1    2  502    0  0.20029362905E+02  0.33914637978E+02  0.13869965645E+04  0.13875557099E+04  0.00000000000E+00 0. -1.
         22    1    3    3    0    0  0.97891851250E+01 -0.62972344030E+01  0.45509691864E+03  0.45524574535E+03  0.00000000000E+00 0.  1.
         22    1    3    3    0    0 -0.78637312932E+02 -0.59591968492E+02  0.29240322286E+03  0.30860115754E+03  0.00000000000E+00 0.  1.
</event>
<event>
 7    1  0.7961130E-006  0.5514014E+02  0.7818608E-02  0.1450913E+00
          2   -1    0    0  502    0  0.00000000000E+00  0.00000000000E+00  0.20586752772E+04  0.20586752772E+04  0.00000000000E+00 0. -1.
          1   -1    0    0  501    0 -0.00000000000E+00 -0.00000000000E+00 -0.73220357307E+02  0.73220357307E+02  0.00000000000E+00 0. -1.
         25    2    1    2    0    0 -0.39039389747E+02  0.27638125744E+02  0.73737471608E+03  0.74942266623E+03  0.12499968319E+03 0.  0.
          2    1    1    2  501    0  0.54063781709E+01 -0.55242867340E+02 -0.55308406013E+02  0.78358299449E+02  0.00000000000E+00 0. -1.
          1    1    1    2  502    0  0.33633011576E+02  0.27604741596E+02  0.13033886098E+04  0.13041146688E+04  0.00000000000E+00 0. -1.
         22    1    3    3    0    0  0.61653519600E+01  0.71334095970E+01  0.64051723297E+03  0.64058662398E+03  0.00000000000E+00 0.  1.
         22    1    3    3    0    0 -0.45204741707E+02  0.20504716147E+02  0.96857483112E+02  0.10883604225E+03  0.00000000000E+00 0.  1.
</event>
<event>
 7    1  0.7961130E-006  0.1589288E+03  0.7818608E-02  0.1337388E+00
          2   -1    0    0  502    0  0.00000000000E+00  0.00000000000E+00  0.11079738669E+04  0.11079738669E+04  0.00000000000E+00 0. -1.
          1   -1    0    0  501    0 -0.00000000000E+00 -0.00000000000E+00 -0.13990955018E+04  0.13990955018E+04  0.00000000000E+00 0. -1.
         25    2    1    2    0    0 -0.20551822858E+02  0.13324773857E+03  0.37398909513E+03  0.41673806304E+03  0.12500173062E+03 0.  0.
          2    1    1    2  501    0 -0.17730965995E+02  0.32970209309E+02 -0.13672543140E+04  0.13677667129E+04  0.00000000000E+00 0. -1.
          1    1    1    2  502    0  0.38282788853E+02 -0.16621794788E+03  0.70214358397E+03  0.72256459270E+03  0.00000000000E+00 0. -1.
         22    1    3    3    0    0  0.15839247712E+02  0.86380103943E+02  0.86778950383E+02  0.12346250587E+03  0.00000000000E+00 0. -1.
         22    1    3    3    0    0 -0.36391070570E+02  0.46867634631E+02  0.28721014474E+03  0.29327555718E+03  0.00000000000E+00 0. -1.
</event>
<event>
 7    1  0.7961130E-006  0.6835695E+02  0.7818608E-02  0.1370937E+00
          2   -1    0    0  502    0  0.00000000000E+00  0.00000000000E+00  0.40886572653E+03  0.40886572653E+03  0.00000000000E+00 0. -1.
          1   -1    0    0  501    0 -0.00000000000E+00 -0.00000000000E+00 -0.27101588232E+03  0.27101588232E+03  0.00000000000E+00 0. -1.
         25    2    1    2    0    0 -0.44759258313E+02  0.43707035219E+02  0.20890671153E+03  0.25135704775E+03  0.12499862079E+03 0.  0.
          2    1    1    2  501    0 -0.16387727382E+02 -0.67154748843E+02 -0.23871930842E+03  0.24852610751E+03  0.00000000000E+00 0. -1.
          1    1    1    2  502    0  0.61146985695E+02  0.23447713623E+02  0.16766244110E+03  0.17999845358E+03  0.00000000000E+00 0. -1.
         22    1    3    3    0    0  0.27065620499E+02 -0.17933480292E+02  0.15382787638E+02  0.35927533786E+02  0.00000000000E+00 0. -1.
         22    1    3    3    0    0 -0.71824878813E+02  0.61640515512E+02  0.19352392389E+03  0.21542951397E+03  0.00000000000E+00 0. -1.
</event>
<event>
 7    1  0.7961130E-006  0.4640946E+02  0.7818608E-02  0.1570372E+00
          2   -1    0    0  502    0  0.00000000000E+00  0.00000000000E+00  0.43282329710E+02  0.43282329710E+02  0.00000000000E+00 0. -1.
          1   -1    0    0  501    0 -0.00000000000E+00 -0.00000000000E+00 -0.10799743995E+04  0.10799743995E+04  0.00000000000E+00 0. -1.
         25    2    1    2    0    0 -0.88911835096E+01  0.31388002144E+02 -0.54938751546E+03  0.56436968184E+03  0.12498894274E+03 0.  0.
          2    1    1    2  501    0  0.30950669981E+02 -0.37865544089E+02 -0.51812950168E+03  0.52043243934E+03  0.00000000000E+00 0. -1.
          1    1    1    2  502    0 -0.22059486471E+02  0.64775419450E+01  0.30824947403E+02  0.38454607987E+02  0.00000000000E+00 0. -1.
         22    1    3    3    0    0 -0.61878351567E+02  0.22590867176E+02 -0.19240739903E+03  0.20337129806E+03  0.00000000000E+00 0.  1.
         22    1    3    3    0    0  0.52987168057E+02  0.87971349683E+01 -0.35698011643E+03  0.36099838378E+03  0.00000000000E+00 0.  1.
</event>
<event>
 7    1  0.7961130E-006  0.1770748E+03  0.7818608E-02  0.1193850E+00
          2   -1    0    0  502    0  0.00000000000E+00  0.00000000000E+00  0.89230076332E+03  0.89230076332E+03  0.00000000000E+00 0. -1.
          1   -1    0    0  501    0 -0.00000000000E+00 -0.00000000000E+00 -0.38215091757E+03  0.38215091757E+03  0.00000000000E+00 0. -1.
         25    2    1    2    0    0  0.15351236860E+03 -0.48394775777E+02  0.65121568544E+03  0.68236415912E+03  0.12502349797E+03 0.  0.
          2    1    1    2  501    0  0.13222894019E+03  0.34230808920E+02 -0.25087329604E+03  0.28564602495E+03  0.00000000000E+00 0. -1.
          1    1    1    2  502    0 -0.28574130879E+03  0.14163966857E+02  0.10980745635E+03  0.30644149683E+03  0.00000000000E+00 0. -1.
         22    1    3    3    0    0  0.91300480351E+02  0.16826904160E+01  0.15608920795E+03  0.18083818733E+03  0.00000000000E+00 0. -1.
         22    1    3    3    0    0  0.62211888251E+02 -0.50077466193E+02  0.49512647749E+03  0.50152597178E+03  0.00000000000E+00 0. -1.
</event>
<event>
 7    1  0.1019573E-005  0.5750783E+02  0.7818608E-02  0.1453189E+00
          2   -1    0    0  502    0  0.00000000000E+00  0.00000000000E+00  0.13927729301E+04  0.13927729301E+04  0.00000000000E+00 0. -1.
          1   -1    0    0  501    0 -0.00000000000E+00 -0.00000000000E+00 -0.13170877463E+04  0.13170877463E+04  0.00000000000E+00 0. -1.
         25    2    1    2    0    0  0.59184919532E+02 -0.45467420518E+01 -0.26446828492E+03  0.29848250633E+03  0.12499922116E+03 0.  0.
          2    1    1    2  501    0 -0.40878200559E+02  0.41263841138E+02 -0.10344916186E+04  0.10361209586E+04  0.00000000000E+00 0. -1.
          1    1    1    2  502    0 -0.18306718973E+02 -0.36717099087E+02  0.13746450873E+04  0.13752572114E+04  0.00000000000E+00 0. -1.
         22    1    3    3    0    0  0.28440374669E+02  0.19009690386E+02 -0.31987869557E+01  0.34357757171E+02  0.00000000000E+00 0. -1.
         22    1    3    3    0    0  0.30744544863E+02 -0.23556432437E+02 -0.26126949797E+03  0.26412474916E+03  0.00000000000E+00 0. -1.
</event>
<event>
 7    1  0.7961130E-006  0.6023483E+02  0.7818608E-02  0.1481195E+00
          2   -1    0    0  502    0  0.00000000000E+00  0.00000000000E+00  0.11468816026E+03  0.11468816026E+03  0.00000000000E+00 0. -1.
          1   -1    0    0  501    0 -0.00000000000E+00 -0.00000000000E+00 -0.28343386321E+03  0.28343386321E+03  0.00000000000E+00 0. -1.
         25    2    1    2    0    0 -0.12862063996E+02  0.54225220292E+02 -0.39205401906E+02  0.14236261798E+03  0.12499697698E+03 0.  0.
          2    1    1    2  501    0 -0.18886931395E+02 -0.58420646511E+02 -0.18323042569E+03  0.19324356915E+03  0.00000000000E+00 0. -1.
          1    1    1    2  502    0  0.31748995392E+02  0.41954262186E+01  0.53690124643E+02  0.62515836344E+02  0.00000000000E+00 0. -1.
         22    1    3    3    0    0  0.41727622791E+02  0.68578701309E+02 -0.26144064258E+02  0.84425972739E+02  0.00000000000E+00 0.  1.
         22    1    3    3    0    0 -0.54589686787E+02 -0.14353481017E+02 -0.13061337648E+02  0.57936645243E+02  0.00000000000E+00 0.  1.
</event>
<event>
 7    1  0.7961130E-006  0.1284071E+03  0.7818608E-02  0.1276739E+00
          2   -1    0    0  502    0  0.00000000000E+00  0.00000000000E+00  0.53005797113E+03  0.53005797113E+03  0.00000000000E+00 0. -1.
          1   -1    0    0  501    0 -0.00000000000E+00 -0.00000000000E+00 -0.15037055400E+03  0.15037055400E+03  0.00000000000E+00 0. -1.
         25    2    1    2    0    0  0.17896788568E+03 -0.15834940108E+02  0.13689696454E+03  0.25816174417E+03  0.12500583113E+03 0.  0.
          2    1    1    2  501    0 -0.63398969093E+02  0.49711288846E+02 -0.57332628176E+02  0.98882110487E+02  0.00000000000E+00 0. -1.
          1    1    1    2  502    0 -0.11556891659E+03 -0.33876348738E+02  0.30012308077E+03  0.32338467047E+03  0.00000000000E+00 0. -1.
         22    1    3    3    0    0  0.10716117412E+03  0.20810188461E+02  0.13994694669E+03  0.17748726453E+03  0.00000000000E+00 0.  1.
         22    1    3    3    0    0  0.71806711565E+02 -0.36645128569E+02 -0.30499821519E+01  0.80674479637E+02  0.00000000000E+00 0.  1.
</event>
<event>
 7    1  0.7961130E-006  0.9823834E+02  0.7818608E-02  0.1433479E+00
          2   -1    0    0  502    0  0.00000000000E+00  0.00000000000E+00  0.21814538883E+04  0.21814538883E+04  0.00000000000E+00 0. -1.
          1   -1    0    0  501    0 -0.00000000000E+00 -0.00000000000E+00 -0.36270984955E+03  0.36270984955E+03  0.00000000000E+00 0. -1.
         25    2    1    2    0    0 -0.89209979591E+02 -0.84920508428E+01  0.18262037824E+03  0.23875834278E+03  0.12499923325E+03 0.  0.
          2    1    1    2  501    0 -0.78691301980E+01  0.26672619455E+02 -0.33282316093E+03  0.33398294611E+03  0.00000000000E+00 0. -1.
          1    1    1    2  502    0  0.97079109789E+02 -0.18180568612E+02  0.19689468214E+04  0.19714224490E+04  0.00000000000E+00 0. -1.
         22    1    3    3    0    0 -0.15662099209E+01 -0.24417500432E+02  0.13606490722E+03  0.13824733747E+03  0.00000000000E+00 0.  1.
         22    1    3    3    0    0 -0.87643769670E+02  0.15925449590E+02  0.46555471012E+02  0.10051100531E+03  0.00000000000E+00 0.  1.
</event>
<event>
 7    1  0.7961130E-006  0.1058422E+03  0.7818608E-02  0.1270162E+00
          2   -1    0    0  502    0  0.00000000000E+00  0.00000000000E+00  0.33533401714E+03  0.33533401714E+03  0.00000000000E+00 0. -1.
          1   -1    0    0  501    0 -0.00000000000E+00 -0.00000000000E+00 -0.23071288538E+04  0.23071288538E+04  0.00000000000E+00 0. -1.
         25    2    1    2    0    0 -0.19658728385E+02  0.11161907195E+03 -0.62882462493E+03  0.65106781050E+03  0.12499440838E+03 0.  0.
          2    1    1    2  501    0  0.96815936934E+02 -0.38314885199E+02 -0.16567700396E+04  0.16600386502E+04  0.00000000000E+00 0. -1.
          1    1    1    2  502    0 -0.77157208549E+02 -0.73304186754E+02  0.31379982788E+03  0.33135641023E+03  0.00000000000E+00 0. -1.
         22    1    3    3    0    0  0.24461185706E+01 -0.23659042631E+02 -0.40337213331E+02  0.46827604824E+02  0.00000000000E+00 0.  1.
         22    1    3    3    0    0 -0.22104846956E+02  0.13527811458E+03 -0.58848741160E+03  0.60424020568E+03  0.00000000000E+00 0.  1.
</event>
<event>
 7    1  0.7961130E-006  0.1149848E+03  0.7818608E-02  0.1374281E+00
          2   -1    0    0  502    0  0.00000000000E+00  0.00000000000E+00  0.65055811612E+03  0.65055811612E+03  0.00000000000E+00 0. -1.
          1   -1    0    0  501    0 -0.00000000000E+00 -0.00000000000E+00 -0.91457988433E+03  0.91457988433E+03  0.00000000000E+00 0. -1.
         25    2    1    2    0    0  0.13226515721E+03  0.45866039531E+01 -0.41646360070E+03  0.45451322084E+03  0.12500091384E+03 0.  0.
          2    1    1    2  501    0 -0.10754861157E+03  0.24109532498E+02 -0.47217122828E+03  0.48486456070E+03  0.00000000000E+00 0. -1.
          1    1    1    2  502    0 -0.24716545634E+02 -0.28696136451E+02  0.62461306078E+03  0.62576021891E+03  0.00000000000E+00 0. -1.
         22    1    3    3    0    0  0.99040084730E+02 -0.63038039062E+01 -0.40609298636E+03  0.41804328711E+03  0.00000000000E+00 0.  1.
         22    1    3    3    0    0  0.33225072478E+02  0.10890407859E+02 -0.10370614345E+02  0.36469933732E+02  0.00000000000E+00 0.  1.
</event>
<event>
 7    1  0.7961130E-006  0.5069479E+02  0.7818608E-02  0.1442293E+00
          2   -1    0    0  502    0  0.00000000000E+00  0.00000000000E+00  0.55803913954E+03  0.55803913954E+03  0.00000000000E+00 0. -1.
          1   -1    0    0  501    0 -0.00000000000E+00 -0.00000000000E+00 -0.93052310826E+02  0.93052310826E+02  0.00000000000E+00 0. -1.
         25    2    1    2    0    0  0.14451556717E+02  0.35520086368E+02  0.36426171645E+03  0.38701634751E+03  0.12499812457E+03 0.  0.
          2    1    1    2  501    0  0.46505482970E+02 -0.19542608634E+02 -0.67596431493E+02  0.84344241351E+02  0.00000000000E+00 0. -1.
          1    1    1    2  502    0 -0.60957039688E+02 -0.15977477733E+02  0.16832154376E+03  0.17973086150E+03  0.00000000000E+00 0. -1.
         22    1    3    3    0    0 -0.27895214022E+02 -0.75124748626E+01  0.28942116393E+03  0.29085939967E+03  0.00000000000E+00 0.  1.
         22    1    3    3    0    0  0.42346770739E+02  0.43032561230E+02  0.74840552514E+02  0.96156947844E+02  0.00000000000E+00 0.  1.
</event>
<event>
 7    1  0.7961130E-006  0.1308994E+03  0.7818608E-02  0.1363410E+00
          2   -1    0    0  502    0  0.00000000000E+00  0.00000000000E+00  0.18013170319E+03  0.18013170319E+03  0.00000000000E+00 0. -1.
          1   -1    0    0  501    0 -0.00000000000E+00 -0.00000000000E+00 -0.37164772057E+03  0.37164772057E+03  0.00000000000E+00 0. -1.
         25    2    1    2    0    0 -0.14248348924E+03 -0.79992887716E+01 -0.77782250779E+02  0.20503746996E+03  0.12499900889E+03 0.  0.
          2    1    1    2  501    0  0.19658274661E+02 -0.30643608738E+02 -0.19242527889E+03  0.19583913418E+03  0.00000000000E+00 0. -1.
          1    1    1    2  502    0  0.12282521458E+03  0.38642897509E+02  0.78691512286E+02  0.15090281962E+03  0.00000000000E+00 0. -1.
         22    1    3    3    0    0 -0.12908172319E+03  0.13472671328E+02 -0.10568089839E+03  0.16736802687E+03  0.00000000000E+00 0. -1.
         22    1    3    3    0    0 -0.13401766044E+02 -0.21471960100E+02  0.27898647611E+02  0.37669443083E+02  0.00000000000E+00 0. -1.
</event>
<event>
 7    1  0.7961130E-006  0.1076982E+03  0.7818608E-02  0.1446716E+00
          2   -1    0    0  502    0  0.00000000000E+00  0.00000000000E+00  0.70849802283E+03  0.70849802283E+03  0.00000000000E+00 0. -1.
          1   -1    0    0  501    0 -0.00000000000E+00 -0.00000000000E+00 -0.18484546539E+04  0.18484546539E+04  0.00000000000E+00 0. -1.
         25    2    1    2    0    0 -0.10112702609E+03  0.42727930429E+02 -0.36909625520E+03  0.40485636824E+03  0.12499712738E+03 0.  0.
          2    1    1    2  501    0  0.12886794333E+02  0.19024072852E+02 -0.14571882037E+04  0.14573693581E+04  0.00000000000E+00 0. -1.
          1    1    1    2  502    0  0.88240231754E+02 -0.61752003281E+02  0.68632782783E+03  0.69472695044E+03  0.00000000000E+00 0. -1.
         22    1    3    3    0    0  0.76722599697E+00  0.60171773939E+02 -0.17321071212E+03  0.18336625046E+03  0.00000000000E+00 0.  1.
         22    1    3    3    0    0 -0.10189425208E+03 -0.17443843510E+02 -0.19588554308E+03  0.22149011778E+03  0.00000000000E+00 0.  1.
</event>
<event>
 7    1  0.7961130E-006  0.6760710E+02  0.7818608E-02  0.1429648E+00
          2   -1    0    0  502    0  0.00000000000E+00  0.00000000000E+00  0.32395250389E+03  0.32395250389E+03  0.00000000000E+00 0. -1.
          1   -1    0    0  501    0 -0.00000000000E+00 -0.00000000000E+00 -0.89482125793E+03  0.89482125793E+03  0.00000000000E+00 0. -1.
         25    2    1    2    0    0 -0.63897251424E+02  0.26808147782E+02  0.57653515435E+01  0.14303178677E+03  0.12499326871E+03 0.  0.
          2    1    1    2  501    0  0.66192010177E+02  0.14725650880E+02 -0.82305054519E+03  0.82583922584E+03  0.00000000000E+00 0. -1.
          1    1    1    2  502    0 -0.22947587524E+01 -0.41533798661E+02  0.24641643961E+03  0.24990274920E+03  0.00000000000E+00 0. -1.
         22    1    3    3    0    0 -0.97021336202E+02  0.18938979695E+02  0.27541226616E+02  0.10261746340E+03  0.00000000000E+00 0. -1.
         22    1    3    3    0    0  0.33124084778E+02  0.78691680862E+01 -0.21775875072E+02  0.40414323376E+02  0.00000000000E+00 0. -1.
</event>
<event>
 7    1  0.7961130E-006  0.5294551E+02  0.7818608E-02  0.1461370E+00
          2   -1    0    0  502    0  0.00000000000E+00  0.00000000000E+00  0.15130011401E+04  0.15130011401E+04  0.00000000000E+00 0. -1.
          1   -1    0    0  501    0 -0.00000000000E+00 -0.00000000000E+00 -0.11336204210E+04  0.11336204210E+04  0.00000000000E+00 0. -1.
         25    2    1    2    0    0  0.36835851649E+02  0.30230451778E+02  0.24215375875E+03  0.27665180378E+03  0.12500806965E+03 0.  0.
          2    1    1    2  501    0  0.16125753737E+02 -0.38762008093E+02 -0.11154024214E+04  0.11161922303E+04  0.00000000000E+00 0. -1.
          1    1    1    2  502    0 -0.52961605386E+02  0.85315563148E+01  0.12526293818E+04  0.12537775270E+04  0.00000000000E+00 0. -1.
         22    1    3    3    0    0 -0.32136796125E+02 -0.25483403595E+02  0.47504769321E+02  0.62760502167E+02  0.00000000000E+00 0. -1.
         22    1    3    3    0    0  0.68972647774E+02  0.55713855373E+02  0.19464898943E+03  0.21389130162E+03  0.00000000000E+00 0. -1.
</event>
<event>
 7    1  0.7961130E-006  0.7731895E+02  0.7818608E-02  0.1341742E+00
          2   -1    0    0  502    0  0.00000000000E+00  0.00000000000E+00  0.11509867857E+04  0.11509867857E+04  0.00000000000E+00 0. -1.
          1   -1    0    0  501    0 -0.00000000000E+00 -0.00000000000E+00 -0.53215772728E+03  0.53215772728E+03  0.00000000000E+00 0. -1.
         25    2    1    2    0    0  0.26091811229E+02 -0.89155549310E+02  0.28923976234E+03  0.32850365097E+03  0.12500205596E+03 0.  0.
          2    1    1    2  501    0 -0.70144206961E+02  0.23884590120E+02 -0.50799108134E+03  0.51336694687E+03  0.00000000000E+00 0. -1.
          1    1    1    2  502    0  0.44052395733E+02  0.65270959191E+02  0.83758037739E+03  0.84127391512E+03  0.00000000000E+00 0. -1.
         22    1    3    3    0    0 -0.19433184510E+02 -0.62761811171E+02  0.47426103447E+02  0.81030419533E+02  0.00000000000E+00 0. -1.
         22    1    3    3    0    0  0.45524995739E+02 -0.26393738140E+02  0.24181365889E+03  0.24747323143E+03  0.00000000000E+00 0. -1.
</event>
<event>
 7    1  0.7961130E-006  0.1289004E+03  0.7818608E-02  0.1241750E+00
          2   -1    0    0  502    0  0.00000000000E+00  0.00000000000E+00  0.60976503810E+03  0.60976503810E+03  0.00000000000E+00 0. -1.
          1   -1    0    0  501    0 -0.00000000000E+00 -0.00000000000E+00 -0.24173694731E+04  0.24173694731E+04  0.00000000000E+00 0. -1.
         25    2    1    2    0    0  0.19984375229E+03 -0.10790500959E+03 -0.18719097971E+03  0.31975996974E+03  0.12499983576E+03 0.  0.
          2    1    1    2  501    0 -0.75751447237E+02  0.84181782708E+02 -0.21550447647E+04  0.21580182558E+04  0.00000000000E+00 0. -1.
          1    1    1    2  502    0 -0.12409230505E+03  0.23723226887E+02  0.53463130940E+03  0.54935628572E+03  0.00000000000E+00 0. -1.
         22    1    3    3    0    0  0.17650468292E+03 -0.39091125605E+02 -0.10120340585E+03  0.20718143871E+03  0.00000000000E+00 0.  1.
         22    1    3    3    0    0  0.23339069370E+02 -0.68813883989E+02 -0.85987573866E+02  0.11257853103E+03  0.00000000000E+00 0.  1.
</event>
<event>
 7    1  0.7961130E-006  0.7125295E+02  0.7818608E-02  0.1395219E+00
          2   -1    0    0  502    0  0.00000000000E+00  0.00000000000E+00  0.14367916048E+04  0.14367916048E+04  0.00000000000E+00 0. -1.
          1   -1    0    0  501    0 -0.00000000000E+00 -0.00000000000E+00 -0.10333442368E+04  0.10333442368E+04  0.00000000000E+00 0. -1.
         25    2    1    2    0    0 -0.29477004964E+02 -0.59275587461E+02  0.85408905528E+02  0.16523807707E+03  0.12500580738E+03 0.  0.
          2    1    1    2  501    0  0.67280588799E+02  0.24176111132E+02 -0.99163498146E+03  0.99420878011E+03  0.00000000000E+00 0. -1.
          1    1    1    2  502    0 -0.37803583834E+02  0.35099476329E+02  0.13096734439E+04  0.13106889844E+04  0.00000000000E+00 0. -1.
         22    1    3    3    0    0  0.15035968586E+02  0.23897134121E+02 -0.11048859029E+02  0.30318816869E+02  0.00000000000E+00 0. -1.
         22    1    3    3    0    0 -0.44512973550E+02 -0.83172721582E+02  0.96457764557E+02  0.13491926020E+03  0.00000000000E+00 0. -1.
</event>
<event>
 7    1  0.7961130E-006  0.3497933E+02  0.7818608E-02  0.1605859E+00
          2   -1    0    0  502    0  0.00000000000E+00  0.00000000000E+00  0.11317734554E+04  0.11317734554E+04  0.00000000000E+00 0. -1.
          1   -1    0    0  501    0 -0.00000000000E+00 -0.00000000000E+00 -0.52061110301E+02  0.52061110301E+02  0.00000000000E+00 0. -1.
         25    2    1    2    0    0  0.31331076611E+02 -0.14189089086E+02  0.77910558952E+03  0.78981689619E+03  0.12498897257E+03 0.  0.
          2    1    1    2  501    0 -0.14389883051E+02  0.31967029823E+02 -0.39621731948E+02  0.52904077088E+02  0.00000000000E+00 0. -1.
          1    1    1    2  502    0 -0.16941193560E+02 -0.17777940737E+02  0.34022848753E+03  0.34111359243E+03  0.00000000000E+00 0. -1.
         22    1    3    3    0    0 -0.37672888260E+02  0.26855465028E+02  0.37233601432E+03  0.37519937376E+03  0.00000000000E+00 0. -1.
         22    1    3    3    0    0  0.69003964871E+02 -0.41044554114E+02  0.40676957520E+03  0.41461752242E+03  0.00000000000E+00 0. -1.
</event>
<event>
 7    1  0.7961130E-006  0.7132468E+02  0.7818608E-02  0.1434898E+00
          2   -1    0    0  502    0  0.00000000000E+00  0.00000000000E+00  0.23522356421E+04  0.23522356421E+04  0.00000000000E+00 0. -1.
          1   -1    0    0  501    0 -0.00000000000E+00 -0.00000000000E+00 -0.78733147628E+01  0.78733147628E+01  0.00000000000E+00 0. -1.
         25    2    1    2    0    0  0.26485265096E+02 -0.32015667076E+02  0.77999929068E+03  0.79104457527E+03  0.12500461750E+03 0.  0.
          2    1    1    2  501    0  0.11620083623E+02 -0.36069845870E+02  0.31574273899E+03  0.31800870640E+03  0.00000000000E+00 0. -1.
          1    1    1    2  502    0 -0.38105348719E+02  0.68085512946E+02  0.12486202977E+04  0.12510556752E+04  0.00000000000E+00 0. -1.
         22    1    3    3    0    0  0.18885053464E+02  0.33018462207E+02  0.56541491511E+03  0.56669294183E+03  0.00000000000E+00 0. -1.
         22    1    3    3    0    0  0.76002116319E+01 -0.65034129282E+02  0.21458437557E+03  0.22435163344E+03  0.00000000000E+00 0. -1.
</event>
<event>
 7    1  0.7961130E-006  0.1590881E+03  0.7818608E-02  0.1269892E+00
          2   -1    0    0  502    0  0.00000000000E+00  0.00000000000E+00  0.20320559726E+04  0.20320559726E+04  0.00000000000E+00 0. -1.
          1   -1    0    0  501    0 -0.00000000000E+00 -0.00000000000E+00 -0.68254720612E+03  0.68254720612E+03  0.00000000000E+00 0. -1.
         25    2    1    2    0    0 -0.67959188077E+02 -0.66447002342E+02  0.81218845516E+02  0.17679160315E+03  0.12500045886E+03 0.  0.
          2    1    1    2  501    0  0.12120770284E+03  0.11103898341E+03 -0.62347068279E+03  0.64477643828E+03  0.00000000000E+00 0. -1.
          1    1    1    2  502    0 -0.53248514758E+02 -0.44591981064E+02  0.18917606038E+04  0.18930351373E+04  0.00000000000E+00 0. -1.
         22    1    3    3    0    0 -0.85756313758E+02 -0.91188297457E+02  0.55570605623E+02  0.13695818030E+03  0.00000000000E+00 0. -1.
         22    1    3    3    0    0  0.17797125681E+02  0.24741295115E+02  0.25648239892E+02  0.39833422851E+02  0.00000000000E+00 0. -1.
</event>
<event>
 7    1  0.7961130E-006  0.4391475E+02  0.7818608E-02  0.1523660E+00
          2   -1    0    0  502    0  0.00000000000E+00  0.00000000000E+00  0.17195268117E+04  0.17195268117E+04  0.00000000000E+00 0. -1.
          1   -1    0    0  501    0 -0.00000000000E+00 -0.00000000000E+00 -0.19676211260E+04  0.19676211260E+04  0.00000000000E+00 0. -1.
         25    2    1    2    0    0  0.40293196460E+01 -0.12912469487E+02  0.34035824758E+03  0.36284079561E+03  0.12500695569E+03 0.  0.
          2    1    1    2  501    0 -0.32020668231E+02  0.30085925613E+02 -0.19559360061E+04  0.19564294380E+04  0.00000000000E+00 0. -1.
          1    1    1    2  502    0  0.27991348585E+02 -0.17173456127E+02  0.13674834442E+04  0.13678777041E+04  0.00000000000E+00 0. -1.
         22    1    3    3    0    0  0.30719168540E+02  0.36922381739E+02  0.60084355347E+02  0.76922424212E+02  0.00000000000E+00 0.  1.
         22    1    3    3    0    0 -0.26689848894E+02 -0.49834851226E+02  0.28027389224E+03  0.28591837139E+03  0.00000000000E+00 0.  1.
</event>
<event>
 7    1  0.7961130E-006  0.1211447E+03  0.7818608E-02  0.1410757E+00
          2   -1    0    0  502    0  0.00000000000E+00  0.00000000000E+00  0.17183423200E+04  0.17183423200E+04  0.00000000000E+00 0. -1.
          1   -1    0    0  501    0 -0.00000000000E+00 -0.00000000000E+00 -0.18749646465E+03  0.18749646465E+03  0.00000000000E+00 0. -1.
         25    2    1    2    0    0 -0.70918253012E+02 -0.76073361086E+02  0.26202646045E+03  0.30838439387E+03  0.12500605398E+03 0.  0.
          2    1    1    2  501    0  0.28640816464E+01 -0.26689719291E+02 -0.16055111906E+03  0.16277962376E+03  0.00000000000E+00 0. -1.
          1    1    1    2  502    0  0.68054171366E+02  0.10276308038E+03  0.14293705139E+04  0.14346747670E+04  0.00000000000E+00 0. -1.
         22    1    3    3    0    0  0.29638042062E+02 -0.20615790214E+02  0.12233314324E+03  0.12754929352E+03  0.00000000000E+00 0.  1.
         22    1    3    3    0    0 -0.10055629507E+03 -0.55457570872E+02  0.13969331721E+03  0.18083510035E+03  0.00000000000E+00 0.  1.
</event>
<event>
 7    1  0.7961130E-006  0.2391593E+02  0.7818608E-02  0.1706033E+00
          2   -1    0    0  502    0  0.00000000000E+00  0.00000000000E+00  0.21344334404E+04  0.21344334404E+04  0.00000000000E+00 0. -1.
          1   -1    0    0  501    0 -0.00000000000E+00 -0.00000000000E+00 -0.10374822300E+04  0.10374822300E+04  0.00000000000E+00 0. -1.
         25    2    1    2    0    0  0.70298662121E+01 -0.27472283779E+02  0.60858269372E+03  0.62193490151E+03  0.12500392484E+03 0.  0.
          2    1    1    2  501    0  0.12239084219E+02  0.20547959831E+02 -0.10305983896E+04  0.10308758676E+04  0.00000000000E+00 0. -1.
          1    1    1    2  502    0 -0.19268950431E+02  0.69243239481E+01  0.15189669063E+04  0.15191049013E+04  0.00000000000E+00 0. -1.
         22    1    3    3    0    0 -0.11216174516E+02  0.47016986779E+02  0.30547650159E+03  0.30927704836E+03  0.00000000000E+00 0. -1.
         22    1    3    3    0    0  0.18246040728E+02 -0.74489270559E+02  0.30310619213E+03  0.31265785315E+03  0.00000000000E+00 0. -1.
</event>
<event>
 7    1  0.7961130E-006  0.4289621E+02  0.7818608E-02  0.1588722E+00
          2   -1    0    0  502    0  0.00000000000E+00  0.00000000000E+00  0.74796821571E+02  0.74796821571E+02  0.00000000000E+00 0. -1.
          1   -1    0    0  501    0 -0.00000000000E+00 -0.00000000000E+00 -0.18713097891E+04  0.18713097891E+04  0.00000000000E+00 0. -1.
         25    2    1    2    0    0  0.19657299618E+02 -0.72826505758E+01 -0.12006487229E+03  0.17458821376E+03  0.12500409752E+03 0.  0.
          2    1    1    2  501    0 -0.41164283366E+02  0.12817642703E+02 -0.17211046753E+04  0.17216445898E+04  0.00000000000E+00 0. -1.
          1    1    1    2  502    0  0.21506983749E+02 -0.55349921270E+01  0.44656580099E+02  0.49873807093E+02  0.00000000000E+00 0. -1.
         22    1    3    3    0    0  0.14004897232E+02 -0.62679845114E+02 -0.92082639252E+02  0.11226803900E+03  0.00000000000E+00 0.  1.
         22    1    3    3    0    0  0.56524023856E+01  0.55397194538E+02 -0.27982233035E+02  0.62320174752E+02  0.00000000000E+00 0.  1.
</event>
<event>
 7    1  0.7961130E-006  0.1078013E+03  0.7818608E-02  0.1303590E+00
          2   -1    0    0  502    0  0.00000000000E+00  0.00000000000E+00  0.56869436192E+03  0.56869436192E+03  0.00000000000E+00 0. -1.
          1   -1    0    0  501    0 -0.00000000000E+00 -0.00000000000E+00 -0.45584895072E+03  0.45584895072E+03  0.00000000000E+00 0. -1.
         25    2    1    2    0    0 -0.22753741012E+02 -0.14948523943E+03  0.10637664988E+03  0.22317340699E+03  0.12500723344E+03 0.  0.
          2    1    1    2  501    0  0.62523532823E+02  0.86333440101E+02 -0.38672967829E+03  0.40115146654E+03  0.00000000000E+00 0. -1.
          1    1    1    2  502    0 -0.39769791811E+02  0.63151799329E+02  0.39319843960E+03  0.40021843911E+03  0.00000000000E+00 0. -1.
         22    1    3    3    0    0  0.32250556421E+02 -0.61491500779E+02  0.96568397480E+02  0.11894014650E+03  0.00000000000E+00 0. -1.
         22    1    3    3    0    0 -0.55004297433E+02 -0.87993738651E+02  0.98082524014E+01  0.10423326049E+03  0.00000000000E+00 0. -1.
</event>
<event>
 7    1  0.7961130E-006  0.5274354E+02  0.7818608E-02  0.1478751E+00
          2   -1    0    0  502    0  0.00000000000E+00  0.00000000000E+00  0.35174923537E+02  0.35174923537E+02  0.00000000000E+00 0. -1.
          1   -1    0    0  501    0 -0.00000000000E+00 -0.00000000000E+00 -0.10581749286E+04  0.10581749286E+04  0.00000000000E+00 0. -1.
         25    2    1    2    0    0 -0.27762283649E+02  0.81719665376E+01 -0.41168311288E+03  0.43121431793E+03  0.12500110849E+03 0.  0.
          2    1    1    2  501    0 -0.22908368516E+02 -0.29322851914E+02 -0.60581054034E+03  0.60695225000E+03  0.00000000000E+00 0. -1.
          1    1    1    2  502    0  0.50670652165E+02  0.21150885377E+02 -0.55063518160E+01  0.55183284184E+02  0.00000000000E+00 0. -1.
         22    1    3    3    0    0 -0.26463086484E+02  0.55504827376E+02 -0.33856173668E+03  0.34410046549E+03  0.00000000000E+00 0. -1.
         22    1    3    3    0    0 -0.12991971652E+01 -0.47332860838E+02 -0.73121376202E+02  0.87113852435E+02  0.00000000000E+00 0. -1.
</event>
<event>
 7    1  0.7961130E-006  0.1246474E+03  0.7818608E-02  0.1254474E+00
          2   -1    0    0  502    0  0.00000000000E+00  0.00000000000E+00  0.62468879184E+03  0.62468879184E+03  0.00000000000E+00 0. -1.
          1   -1    0    0  501    0 -0.00000000000E+00 -0.00000000000E+00 -0.16054635968E+04  0.16054635968E+04  0.00000000000E+00 0. -1.
         25    2    1    2    0    0 -0.41764959902E+02 -0.14204731189E+03  0.25088387477E+03  0.31699852465E+03  0.12499438116E+03 0.  0.
          2    1    1    2  501    0 -0.67506202336E+02  0.77916360355E+02 -0.15588667816E+04  0.15622719639E+04  0.00000000000E+00 0. -1.
          1    1    1    2  502    0  0.10927116224E+03  0.64130951535E+02  0.32720810188E+03  0.35088190004E+03  0.00000000000E+00 0. -1.
         22    1    3    3    0    0 -0.84236372979E+02 -0.10943996935E+03  0.20060851591E+03  0.24355009768E+03  0.00000000000E+00 0.  1.
         22    1    3    3    0    0  0.42471413077E+02 -0.32607342539E+02  0.50275358861E+02  0.73448426973E+02  0.00000000000E+00 0.  1.
</event>
<event>
 7    1  0.7961130E-006  0.1184224E+03  0.7818608E-02  0.1264997E+00
          2   -1    0    0  502    0  0.00000000000E+00  0.00000000000E+00  0.73695329634E+02  0.73695329634E+02  0.00000000000E+00 0. -1.
          1   -1    0    0  501    0 -0.00000000000E+00 -0.00000000000E+00 -0.20401262447E+04  0.20401262447E+04  0.00000000000E+00 0. -1.
         25    2    1    2    0    0 -0.22113609122E+02  0.37198253989E+02 -0.38443934469E+03  0.40656005380E+03  0.12499898315E+03 0.  0.
          2    1    1    2  501    0  0.97966186853E+02 -0.99006120935E+02 -0.16014534003E+04  0.16074988582E+04  0.00000000000E+00 0. -1.
          1    1    1    2  502    0 -0.75852577731E+02  0.61807866946E+02  0.19461829967E+02  0.99762662307E+02  0.00000000000E+00 0. -1.
         22    1    3    3    0    0 -0.46629911919E+02 -0.33027268437E+02 -0.14581277671E+03  0.15660943457E+03  0.00000000000E+00 0.  1.
         22    1    3    3    0    0  0.24516302797E+02  0.70225522425E+02 -0.23862656799E+03  0.24995061923E+03  0.00000000000E+00 0.  1.
</event>
<event>
 7    1  0.7961130E-006  0.1197034E+03  0.7818608E-02  0.1295827E+00
          2   -1    0    0  502    0  0.00000000000E+00  0.00000000000E+00  0.30106147452E+03  0.30106147452E+03  0.00000000000E+00 0. -1.
          1   -1    0    0  501    0 -0.00000000000E+00 -0.00000000000E+00 -0.82833954055E+03  0.82833954055E+03  0.00000000000E+00 0. -1.
         25    2    1    2    0    0 -0.25767304884E+02  0.10288503406E+03 -0.65012346661E+02  0.17635335143E+03  0.12499846042E+03 0.  0.
          2    1    1    2  501    0 -0.68550822952E+02 -0.22659523135E+02 -0.69003244495E+03  0.69379928250E+03  0.00000000000E+00 0. -1.
          1    1    1    2  502    0  0.94318127836E+02 -0.80225510921E+02  0.22776672558E+03  0.25924838114E+03  0.00000000000E+00 0. -1.
         22    1    3    3    0    0  0.45937640780E+02  0.57307708358E+02 -0.52935857716E+02  0.90535326308E+02  0.00000000000E+00 0. -1.
         22    1    3    3    0    0 -0.71704945664E+02  0.45577325698E+02 -0.12076488945E+02  0.85818025122E+02  0.00000000000E+00 0. -1.
</event>
<event>
 7    1  0.7961130E-006  0.6747396E+02  0.7818608E-02  0.1495844E+00
          2   -1    0    0  502    0  0.00000000000E+00  0.00000000000E+00  0.90649493667E+02  0.90649493667E+02  0.00000000000E+00 0. -1.
          1   -1    0    0  501    0 -0.00000000000E+00 -0.00000000000E+00 -0.55496818317E+03  0.55496818317E+03  0.00000000000E+00 0. -1.
         25    2    1    2    0    0  0.60248284526E+02  0.48391552108E+01 -0.29978033088E+03  0.33037268310E+03  0.12499835898E+03 0.  0.
          2    1    1    2  501    0 -0.68167014861E+02  0.19726123276E+02 -0.23221373955E+03  0.24281491448E+03  0.00000000000E+00 0. -1.
          1    1    1    2  502    0  0.79187303349E+01 -0.24565278486E+02  0.67675380929E+02  0.72430079256E+02  0.00000000000E+00 0. -1.
         22    1    3    3    0    0  0.10087557406E+02  0.49776319616E+02 -0.48506663089E+02  0.70230599976E+02  0.00000000000E+00 0. -1.
         22    1    3    3    0    0  0.50160727120E+02 -0.44937164405E+02 -0.25127366779E+03  0.26014208313E+03  0.00000000000E+00 0. -1.
</event>
<event>
 7    1  0.7961130E-006  0.5178933E+02  0.7818608E-02  0.1463349E+00
          2   -1    0    0  502    0  0.00000000000E+00  0.00000000000E+00  0.38612235455E+04  0.38612235455E+04  0.00000000000E+00 0. -1.
          1   -1    0    0  501    0 -0.00000000000E+00 -0.00000000000E+00 -0.24805927707E+03  0.24805927707E+03  0.00000000000E+00 0. -1.
         25    2    1    2    0    0 -0.83979701685E+01  0.73039848964E+02  0.72846092109E+03  0.74275493228E+03  0.12499692166E+03 0.  0.
          2    1    1    2  501    0  0.33792989241E+02 -0.39199685644E+02 -0.23798768933E+03  0.24355024481E+03  0.00000000000E+00 0. -1.
          1    1    1    2  502    0 -0.25395019073E+02 -0.33840163320E+02  0.31226910367E+04  0.31229776455E+04  0.00000000000E+00 0. -1.
         22    1    3    3    0    0  0.15673555358E+02  0.90487102353E+02  0.31201116507E+03  0.32524535840E+03  0.00000000000E+00 0. -1.
         22    1    3    3    0    0 -0.24071525527E+02 -0.17447253389E+02  0.41644975602E+03  0.41750957388E+03  0.00000000000E+00 0. -1.
</event>
<event>
 7    1  0.7961130E-006  0.1204976E+03  0.7818608E-02  0.1273138E+00
          2   -1    0    0  502    0  0.00000000000E+00  0.00000000000E+00  0.36851834415E+03  0.36851834415E+03  0.00000000000E+00 0. -1.
          1   -1    0    0  501    0 -0.00000000000E+00 -0.00000000000E+00 -0.57445839520E+03  0.57445839520E+03  0.00000000000E+00 0. -1.
         25    2    1    2    0    0 -0.14842521920E+03 -0.10310780716E+03 -0.18064578015E+03  0.28446249712E+03  0.12499899517E+03 0.  0.
          2    1    1    2  501    0  0.88866776040E+02  0.84213410949E+00 -0.32466082559E+03  0.33660461189E+03  0.00000000000E+00 0. -1.
          1    1    1    2  502    0  0.59558443156E+02  0.10226567305E+03  0.29936655469E+03  0.32190963033E+03  0.00000000000E+00 0. -1.
         22    1    3    3    0    0 -0.25137296798E+02 -0.92660170883E+02 -0.78380973457E+02  0.12394098579E+03  0.00000000000E+00 0.  1.
         22    1    3    3    0    0 -0.12328792240E+03 -0.10447636275E+02 -0.10226480669E+03  0.16052151133E+03  0.00000000000E+00 0.  1.
</event>
<event>
 7    1  0.7961130E-006  0.7386605E+02  0.7818608E-02  0.1375048E+00
          2   -1    0    0  502    0  0.00000000000E+00  0.00000000000E+00  0.26499000576E+03  0.26499000576E+03  0.00000000000E+00 0. -1.
          1   -1    0    0  501    0 -0.00000000000E+00 -0.00000000000E+00 -0.10150992791E+04  0.10150992791E+04  0.00000000000E+00 0. -1.
         25    2    1    2    0    0  0.24618150691E+02 -0.17489412522E+02  0.98444339480E+02  0.16194432120E+03  0.12499096888E+03 0.  0.
          2    1    1    2  501    0 -0.88713961779E+01  0.73918806505E+02 -0.97549754807E+03  0.97833437940E+03  0.00000000000E+00 0. -1.
          1    1    1    2  502    0 -0.15746754513E+02 -0.56429393983E+02  0.12694393523E+03  0.13981058428E+03  0.00000000000E+00 0. -1.
         22    1    3    3    0    0  0.41777011902E+02 -0.51985733641E+02  0.10345828531E+03  0.12309123456E+03  0.00000000000E+00 0. -1.
         22    1    3    3    0    0 -0.17158861211E+02  0.34496321119E+02 -0.50139458337E+01  0.38853086642E+02  0.00000000000E+00 0. -1.
</event>
<event>
 7    1  0.7961130E-006  0.4048172E+03  0.7818608E-02  0.1086655E+00
          2   -1    0    0  502    0  0.00000000000E+00  0.00000000000E+00  0.18716714296E+04  0.18716714296E+04  0.00000000000E+00 0. -1.
          1   -1    0    0  501    0 -0.00000000000E+00 -0.00000000000E+00 -0.64684985883E+03  0.64684985883E+03  0.00000000000E+00 0. -1.
         25    2    1    2    0    0  0.12104479671E+03  0.39567405661E+03  0.55006145104E+03  0.69957289087E+03  0.12499931135E+03 0.  0.
          2    1    1    2  501    0  0.18741670529E+03 -0.11168955693E+03 -0.51401484942E+03  0.55840025428E+03  0.00000000000E+00 0. -1.
          1    1    1    2  502    0 -0.30846150200E+03 -0.28398449967E+03  0.11887749692E+04  0.12605481433E+04  0.00000000000E+00 0. -1.
         22    1    3    3    0    0 -0.17967935156E+01 -0.79970595991E+01  0.30819422451E+01  0.87567001303E+01  0.00000000000E+00 0. -1.
         22    1    3    3    0    0  0.12284159023E+03  0.40367111620E+03  0.54697950880E+03  0.69081619074E+03  0.00000000000E+00 0. -1.
</event>
<event>
 7    1  0.7961130E-006  0.1107865E+03  0.7818608E-02  0.1320279E+00
          2   -1    0    0  502    0  0.00000000000E+00  0.00000000000E+00  0.16166001889E+04  0.16166001889E+04  0.00000000000E+00 0. -1.
          1   -1    0    0  501    0 -0.00000000000E+00 -0.00000000000E+00 -0.78914206536E+02  0.78914206536E+02  0.00000000000E+00 0. -1.
         25    2    1    2    0    0 -0.10166818378E+03  0.11969805739E+03  0.45225183709E+03  0.49478800979E+03  0.12497762176E+03 0.  0.
          2    1    1    2  501    0  0.13456198795E+02 -0.60975718493E+02 -0.37477019758E+02  0.72826056750E+02  0.00000000000E+00 0. -1.
          1    1    1    2  502    0  0.88211984983E+02 -0.58722338896E+02  0.11229111650E+04  0.11279003289E+04  0.00000000000E+00 0. -1.
         22    1    3    3    0    0 -0.10712550780E+02  0.49566649342E+02  0.29902435109E+03  0.30329387401E+03  0.00000000000E+00 0.  1.
         22    1    3    3    0    0 -0.90955632998E+02  0.70131408047E+02  0.15322748601E+03  0.19149413578E+03  0.00000000000E+00 0.  1.
</event>
<event>
 7    1  0.7961130E-006  0.4117801E+02  0.7818608E-02  0.1517947E+00
          2   -1    0    0  502    0  0.00000000000E+00  0.00000000000E+00  0.30458841830E+04  0.30458841830E+04  0.00000000000E+00 0. -1.
          1   -1    0    0  501    0 -0.00000000000E+00 -0.00000000000E+00 -0.26154042778E+02  0.26154042778E+02  0.00000000000E+00 0. -1.
         25    2    1    2    0    0 -0.29485976444E+02  0.12578760471E+02  0.37261379928E+03  0.39432704906E+03  0.12500052076E+03 0.  0.
          2    1    1    2  501    0  0.82951930171E+01 -0.42155571902E+02  0.15245249533E+02  0.45588596193E+02  0.00000000000E+00 0. -1.
          1    1    1    2  502    0  0.21190783427E+02  0.29576811431E+02  0.26318710914E+04  0.26321225805E+04  0.00000000000E+00 0. -1.
         22    1    3    3    0    0  0.42687698878E+02 -0.22643456751E+02  0.12497601257E+03  0.13399242325E+03  0.00000000000E+00 0. -1.
         22    1    3    3    0    0 -0.72173675322E+02  0.35222217223E+02  0.24763778670E+03  0.26033462582E+03  0.00000000000E+00 0. -1.
</event>
<event>
 7    1  0.7961130E-006  0.6670094E+02  0.7818608E-02  0.1395589E+00
          2   -1    0    0  502    0  0.00000000000E+00  0.00000000000E+00  0.21853967235E+04  0.21853967235E+04  0.00000000000E+00 0. -1.
          1   -1    0    0  501    0 -0.00000000000E+00 -0.00000000000E+00 -0.11900847550E+04  0.11900847550E+04  0.00000000000E+00 0. -1.
         25    2    1    2    0    0 -0.16333115641E+02  0.33639433898E+02  0.52526532523E+00  0.13050163060E+03  0.12502806688E+03 0.  0.
          2    1    1    2  501    0  0.48942251427E+02  0.24969612855E+02 -0.11238947972E+04  0.11252370154E+04  0.00000000000E+00 0. -1.
          1    1    1    2  502    0 -0.32609135786E+02 -0.58609046754E+02  0.21186815004E+04  0.21197428326E+04  0.00000000000E+00 0. -1.
         22    1    3    3    0    0  0.45676269637E+02  0.30379602222E+02 -0.28657470458E+02  0.61890972300E+02  0.00000000000E+00 0. -1.
         22    1    3    3    0    0 -0.62009385278E+02  0.32598316769E+01  0.29182735784E+02  0.68610658305E+02  0.00000000000E+00 0. -1.
</event>
<event>
 7    1  0.7961130E-006  0.7861361E+02  0.7818608E-02  0.1381206E+00
          2   -1    0    0  502    0  0.00000000000E+00  0.00000000000E+00  0.87390841961E+02  0.87390841961E+02  0.00000000000E+00 0. -1.
          1   -1    0    0  501    0 -0.00000000000E+00 -0.00000000000E+00 -0.22018523322E+04  0.22018523322E+04  0.00000000000E+00 0. -1.
         25    2    1    2    0    0  0.30220529821E+02  0.11803998115E+03 -0.47913538671E+03  0.50994285671E+03  0.12499712293E+03 0.  0.
          2    1    1    2  501    0 -0.38045413366E+02 -0.66284256013E+02 -0.16968228008E+04  0.16985431032E+04  0.00000000000E+00 0. -1.
          1    1    1    2  502    0  0.78248835451E+01 -0.51755725137E+02  0.61496697246E+02  0.80757214285E+02  0.00000000000E+00 0. -1.
         22    1    3    3    0    0  0.16411015450E+02 -0.46830715222E+01 -0.21165673504E+01  0.17196873098E+02  0.00000000000E+00 0.  1.
         22    1    3    3    0    0  0.13809514371E+02  0.12272305267E+03 -0.47701881936E+03  0.49274598361E+03  0.00000000000E+00 0.  1.
</event>
<event>
 7    1  0.7961130E-006  0.9465983E+02  0.7818608E-02  0.1383020E+00
          2   -1    0    0  502    0  0.00000000000E+00  0.00000000000E+00  0.18347689376E+04  0.18347689376E+04  0.00000000000E+00 0. -1.
          1   -1    0    0  501    0 -0.00000000000E+00 -0.00000000000E+00 -0.92954035737E+02  0.92954035737E+02  0.00000000000E+00 0. -1.
         25    2    1    2    0    0  0.65024766474E+02  0.95907139091E+02  0.47924668798E+03  0.50865238863E+03  0.12499385959E+03 0.  0.
          2    1    1    2  501    0 -0.76317986132E+02 -0.54588153796E+02 -0.49647201192E+02  0.10615623452E+03  0.00000000000E+00 0. -1.
          1    1    1    2  502    0  0.11293219658E+02 -0.41318985295E+02  0.13122154151E+04  0.13129143502E+04  0.00000000000E+00 0. -1.
         22    1    3    3    0    0  0.19869156894E+02  0.10770911939E+03  0.41520578022E+03  0.42940875366E+03  0.00000000000E+00 0.  1.
         22    1    3    3    0    0  0.45155609580E+02 -0.11801980302E+02  0.64040907759E+02  0.79243634964E+02  0.00000000000E+00 0.  1.
</event>
<event>
 7    1  0.7961130E-006  0.6132145E+02  0.7818608E-02  0.1443302E+00
          2   -1    0    0  502    0  0.00000000000E+00  0.00000000000E+00  0.47019155194E+03  0.47019155194E+03  0.00000000000E+00 0. -1.
          1   -1    0    0  501    0 -0.00000000000E+00 -0.00000000000E+00 -0.83909779108E+03  0.83909779108E+03  0.00000000000E+00 0. -1.
         25    2    1    2    0    0 -0.16244047873E+02 -0.43829577119E+02  0.26964898469E+03  0.30086569907E+03  0.12499877203E+03 0.  0.
          2    1    1    2  501    0  0.33416663648E+02 -0.24424322780E+02 -0.81624971436E+03  0.81729848718E+03  0.00000000000E+00 0. -1.
          1    1    1    2  502    0 -0.17172615775E+02  0.68253899899E+02  0.17769449053E+03  0.19112515677E+03  0.00000000000E+00 0. -1.
         22    1    3    3    0    0  0.33888470194E+02 -0.33166196915E+02  0.30715196378E+02  0.56496445185E+02  0.00000000000E+00 0.  1.
         22    1    3    3    0    0 -0.50132518068E+02 -0.10663380204E+02  0.23893378832E+03  0.24436925389E+03  0.00000000000E+00 0.  1.
</event>
<event>
 7    1  0.7961130E-006  0.8227911E+02  0.7818608E-02  0.1385834E+00
          2   -1    0    0  502    0  0.00000000000E+00  0.00000000000E+00  0.24251768122E+04  0.24251768122E+04  0.00000000000E+00 0. -1.
          1   -1    0    0  501    0 -0.00000000000E+00 -0.00000000000E+00 -0.55472415015E+03  0.55472415015E+03  0.00000000000E+00 0. -1.
         25    2    1    2    0    0 -0.51892409445E+02 -0.45464608632E+02 -0.25355280585E+03  0.29098873506E+03  0.12500226311E+03 0.  0.
          2    1    1    2  501    0  0.89278200196E+02  0.15090981417E+02 -0.27494902793E+03  0.28947418315E+03  0.00000000000E+00 0. -1.
          1    1    1    2  502    0 -0.37385790751E+02  0.30373627214E+02  0.23989544959E+04  0.23994380442E+04  0.00000000000E+00 0. -1.
         22    1    3    3    0    0  0.13273069353E+02 -0.33059861180E+02 -0.78377399644E+01  0.36476827700E+02  0.00000000000E+00 0. -1.
         22    1    3    3    0    0 -0.65165478798E+02 -0.12404747452E+02 -0.24571506589E+03  0.25451190736E+03  0.00000000000E+00 0. -1.
</event>
<event>
 7    1  0.7961130E-006  0.2387917E+03  0.7818608E-02  0.1211707E+00
          2   -1    0    0  502    0  0.00000000000E+00  0.00000000000E+00  0.14570083298E+04  0.14570083298E+04  0.00000000000E+00 0. -1.
          1   -1    0    0  501    0 -0.00000000000E+00 -0.00000000000E+00 -0.49770242886E+03  0.49770242886E+03  0.00000000000E+00 0. -1.
         25    2    1    2    0    0 -0.15302270778E+03 -0.27515147172E+03  0.10418938384E+03  0.35440801629E+03  0.12500133127E+03 0.  0.
          2    1    1    2  501    0  0.48882880679E+02  0.67705342598E+02 -0.35675680583E+03  0.36640001084E+03  0.00000000000E+00 0. -1.
          1    1    1    2  502    0  0.10413982710E+03  0.20744612912E+03  0.12118733229E+04  0.12339027315E+04  0.00000000000E+00 0. -1.
         22    1    3    3    0    0 -0.72319086924E+02 -0.85454949773E+02  0.97009142432E+02  0.14813295545E+03  0.00000000000E+00 0. -1.
         22    1    3    3    0    0 -0.80703620854E+02 -0.18969652195E+03  0.71802414078E+01  0.20627506084E+03  0.00000000000E+00 0. -1.
</event>
<event>
 7    1  0.7961130E-006  0.6923472E+02  0.7818608E-02  0.1395391E+00
          2   -1    0    0  502    0  0.00000000000E+00  0.00000000000E+00  0.66250859666E+03  0.66250859666E+03  0.00000000000E+00 0. -1.
          1   -1    0    0  501    0 -0.00000000000E+00 -0.00000000000E+00 -0.50294651231E+03  0.50294651231E+03  0.00000000000E+00 0. -1.
         25    2    1    2    0    0  0.51688901703E+02  0.69944270341E+02  0.12589211893E+03  0.19757791976E+03  0.12499706099E+03 0.  0.
          2    1    1    2  501    0  0.13231398047E+01 -0.69221648557E+02 -0.46311988149E+03  0.46826638996E+03  0.00000000000E+00 0. -1.
          1    1    1    2  502    0 -0.53012041508E+02 -0.72262178340E+00  0.49678984691E+03  0.49961079924E+03  0.00000000000E+00 0. -1.
         22    1    3    3    0    0 -0.17794665835E+01  0.73587302577E+02  0.16019617751E+02  0.75331837590E+02  0.00000000000E+00 0.  1.
         22    1    3    3    0    0  0.53468368287E+02 -0.36430322358E+01  0.10987250118E+03  0.12224608217E+03  0.00000000000E+00 0.  1.
</event>
<event>
 7    1  0.7961130E-006  0.6725106E+02  0.7818608E-02  0.1390488E+00
          2   -1    0    0  502    0  0.00000000000E+00  0.00000000000E+00  0.28845236727E+04  0.28845236727E+04  0.00000000000E+00 0. -1.
          1   -1    0    0  501    0 -0.00000000000E+00 -0.00000000000E+00 -0.43354887539E+02  0.43354887539E+02  0.00000000000E+00 0. -1.
         25    2    1    2    0    0  0.16443707478E+02 -0.28050630101E+01  0.35124022726E+03  0.37319367878E+03  0.12500224293E+03 0.  0.
          2    1    1    2  501    0  0.33066316079E+02 -0.46138866071E+02 -0.66351385633E+01  0.57150689279E+02  0.00000000000E+00 0. -1.
          1    1    1    2  502    0 -0.49510023557E+02  0.48943929081E+02  0.24965636965E+04  0.24975341922E+04  0.00000000000E+00 0. -1.
         22    1    3    3    0    0  0.52437674444E+02  0.19638807709E+02  0.30637859175E+03  0.31145342180E+03  0.00000000000E+00 0.  1.
         22    1    3    3    0    0 -0.35993966966E+02 -0.22443870719E+02  0.44861635515E+02  0.61740256980E+02  0.00000000000E+00 0.  1.
</event>
<event>
 7    1  0.7961130E-006  0.1257604E+03  0.7818608E-02  0.1311231E+00
          2   -1    0    0  502    0  0.00000000000E+00  0.00000000000E+00  0.30291462531E+04  0.30291462531E+04  0.00000000000E+00 0. -1.
          1   -1    0    0  501    0 -0.00000000000E+00 -0.00000000000E+00 -0.69999300192E+03  0.69999300192E+03  0.00000000000E+00 0. -1.
         25    2    1    2    0    0 -0.15205696990E+03  0.98363349353E+02 -0.21271702221E+02  0.22107548552E+03  0.12500085756E+03 0.  0.
          2    1    1    2  501    0  0.10668599502E+03 -0.59605592825E+02 -0.57206093678E+03  0.58496875440E+03  0.00000000000E+00 0. -1.
          1    1    1    2  502    0  0.45370974882E+02 -0.38757756528E+02  0.29224858901E+04  0.29230950151E+04  0.00000000000E+00 0. -1.
         22    1    3    3    0    0 -0.16316779259E+03  0.60398526529E+02 -0.38062059958E+02  0.17810230474E+03  0.00000000000E+00 0. -1.
         22    1    3    3    0    0  0.11110822692E+02  0.37964822823E+02  0.16790357737E+02  0.42973180774E+02  0.00000000000E+00 0. -1.
</event>
<event>
 7    1  0.7961130E-006  0.5430415E+02  0.7818608E-02  0.1448837E+00
          2   -1    0    0  502    0  0.00000000000E+00  0.00000000000E+00  0.27879831823E+04  0.27879831823E+04  0.00000000000E+00 0. -1.
          1   -1    0    0  501    0 -0.00000000000E+00 -0.00000000000E+00 -0.10553979167E+04  0.10553979167E+04  0.00000000000E+00 0. -1.
         25    2    1    2    0    0  0.38791630267E+01  0.14239250098E+02  0.38524639007E+02  0.13161738971E+03  0.12498474033E+03 0.  0.
          2    1    1    2  501    0 -0.46095745757E+02 -0.29415938770E+02 -0.10079242349E+04  0.10094064487E+04  0.00000000000E+00 0. -1.
          1    1    1    2  502    0  0.42216582731E+02  0.15176688671E+02  0.27019848616E+04  0.27023572606E+04  0.00000000000E+00 0. -1.
         22    1    3    3    0    0  0.34294888091E+02  0.54217297006E+02  0.48475120227E+02  0.80408282688E+02  0.00000000000E+00 0. -1.
         22    1    3    3    0    0 -0.30415725064E+02 -0.39978046908E+02 -0.99504812196E+01  0.51209107024E+02  0.00000000000E+00 0. -1.
</event>
<event>
 7    1  0.7961130E-006  0.1160549E+03  0.7818608E-02  0.1275976E+00
          2   -1    0    0  502    0  0.00000000000E+00  0.00000000000E+00  0.91530782769E+03  0.91530782769E+03  0.00000000000E+00 0. -1.
          1   -1    0    0  501    0 -0.00000000000E+00 -0.00000000000E+00 -0.46707045913E+03  0.46707045913E+03  0.00000000000E+00 0. -1.
         25    2    1    2    0    0  0.63364424898E+02  0.11792277514E+03  0.13356252197E+03  0.22668015843E+03  0.12499646279E+03 0.  0.
          2    1    1    2  501    0 -0.89720122092E+02 -0.36229595669E+01 -0.41095405795E+03  0.42064957374E+03  0.00000000000E+00 0. -1.
          1    1    1    2  502    0  0.26355697194E+02 -0.11429981557E+03  0.72562890453E+03  0.73504855466E+03  0.00000000000E+00 0. -1.
         22    1    3    3    0    0  0.83797440512E+02  0.65505445742E+02  0.13315352564E+03  0.17041958763E+03  0.00000000000E+00 0.  1.
         22    1    3    3    0    0 -0.20433015614E+02  0.52417329399E+02  0.40899633129E+00  0.56260570797E+02  0.00000000000E+00 0.  1.
</event>
<event>
 7    1  0.7961130E-006  0.5543023E+02  0.7818608E-02  0.1423815E+00
          2   -1    0    0  502    0  0.00000000000E+00  0.00000000000E+00  0.22937189495E+03  0.22937189495E+03  0.00000000000E+00 0. -1.
          1   -1    0    0  501    0 -0.00000000000E+00 -0.00000000000E+00 -0.11334275057E+04  0.11334275057E+04  0.00000000000E+00 0. -1.
         25    2    1    2    0    0  0.42978256813E+02  0.32094987485E+02  0.14221242257E+03  0.19678901150E+03  0.12499729250E+03 0.  0.
          2    1    1    2  501    0  0.46949008166E+01 -0.55343743690E+02 -0.10935474310E+04  0.10949570566E+04  0.00000000000E+00 0. -1.
          1    1    1    2  502    0 -0.47673157630E+02  0.23248756204E+02  0.47279397644E+02  0.71053332540E+02  0.00000000000E+00 0. -1.
         22    1    3    3    0    0  0.24258114436E+01  0.65770829351E+02  0.12512114166E+03  0.14137533959E+03  0.00000000000E+00 0. -1.
         22    1    3    3    0    0  0.40552445370E+02 -0.33675841865E+02  0.17091280910E+02  0.55413671904E+02  0.00000000000E+00 0. -1.
</event>
<event>
 7    1  0.7961130E-006  0.8876631E+02  0.7818608E-02  0.1371778E+00
          2   -1    0    0  502    0  0.00000000000E+00  0.00000000000E+00  0.22052623726E+04  0.22052623726E+04  0.00000000000E+00 0. -1.
          1   -1    0    0  501    0 -0.00000000000E+00 -0.00000000000E+00 -0.80447792709E+03  0.80447792709E+03  0.00000000000E+00 0. -1.
         25    2    1    2    0    0  0.30099580920E+02 -0.24884939984E+02  0.32473200903E+03  0.35014389570E+03  0.12499849997E+03 0.  0.
          2    1    1    2  501    0 -0.68855694706E+02  0.56605027873E+02 -0.78892606691E+03  0.79394557428E+03  0.00000000000E+00 0. -1.
          1    1    1    2  502    0  0.38756113786E+02 -0.31720087889E+02  0.18649785034E+04  0.18656508297E+04  0.00000000000E+00 0. -1.
         22    1    3    3    0    0 -0.43610011313E+01 -0.43253069273E+01 -0.10690629691E+02  0.12329483934E+02  0.00000000000E+00 0. -1.
         22    1    3    3    0    0  0.34460582051E+02 -0.20559633057E+02  0.33542263872E+03  0.33781441176E+03  0.00000000000E+00 0. -1.
</event>
<event>
 7    1  0.7961130E-006  0.1265444E+03  0.7818608E-02  0.1413869E+00
          2   -1    0    0  502    0  0.00000000000E+00  0.00000000000E+00  0.22864958161E+04  0.22864958161E+04  0.00000000000E+00 0. -1.
          1   -1    0    0  501    0 -0.00000000000E+00 -0.00000000000E+00 -0.35374397987E+03  0.35374397987E+03  0.00000000000E+00 0. -1.
         25    2    1    2    0    0 -0.14525778097E+03 -0.33804206629E+02  0.88035231523E+03  0.90160324446E+03  0.12500265666E+03 0.  0.
          2    1    1    2  501    0  0.12048448665E+03  0.37733853526E+02 -0.33138668836E+03  0.35462302865E+03  0.00000000000E+00 0. -1.
          1    1    1    2  502    0  0.24773294321E+02 -0.39296468971E+01  0.13837862094E+04  0.13840135229E+04  0.00000000000E+00 0. -1.
         22    1    3    3    0    0 -0.38633057862E+02 -0.23184475432E+02  0.59650714218E+03  0.59820632204E+03  0.00000000000E+00 0.  1.
         22    1    3    3    0    0 -0.10662472311E+03 -0.10619731197E+02  0.28384517305E+03  0.30339692241E+03  0.00000000000E+00 0.  1.
</event>
<event>
 7    1  0.7961130E-006  0.8773366E+02  0.7818608E-02  0.1348641E+00
          2   -1    0    0  502    0  0.00000000000E+00  0.00000000000E+00  0.33328279796E+03  0.33328279796E+03  0.00000000000E+00 0. -1.
          1   -1    0    0  501    0 -0.00000000000E+00 -0.00000000000E+00 -0.39129410676E+03  0.39129410676E+03  0.00000000000E+00 0. -1.
         25    2    1    2    0    0  0.10335574507E+03 -0.95283285951E+02  0.18381012643E+02  0.18901441987E+03  0.12500909836E+03 0.  0.
          2    1    1    2  501    0 -0.55057802478E+02  0.27500213226E+02 -0.29515440492E+03  0.30150248106E+03  0.00000000000E+00 0. -1.
          1    1    1    2  502    0 -0.48297942589E+02  0.67783072725E+02  0.21876208348E+03  0.23406000379E+03  0.00000000000E+00 0. -1.
         22    1    3    3    0    0  0.12667876193E+03 -0.54073793124E+02  0.28350842839E+02  0.14062451464E+03  0.00000000000E+00 0.  1.
         22    1    3    3    0    0 -0.23323016863E+02 -0.41209492827E+02 -0.99698301967E+01  0.48389905236E+02  0.00000000000E+00 0.  1.
</event>
<event>
 7    1  0.7961130E-006  0.2289780E+03  0.7818608E-02  0.1246465E+00
          2   -1    0    0  502    0  0.00000000000E+00  0.00000000000E+00  0.16138474204E+03  0.16138474204E+03  0.00000000000E+00 0. -1.
          1   -1    0    0  501    0 -0.00000000000E+00 -0.00000000000E+00 -0.78649487401E+03  0.78649487401E+03  0.00000000000E+00 0. -1.
         25    2    1    2    0    0 -0.18696667555E+03  0.17888696000E+03 -0.20954069012E+03  0.35565266037E+03  0.12499772713E+03 0.  0.
          2    1    1    2  501    0  0.60678662870E+02 -0.36804224217E+01 -0.36550195133E+03  0.37052276862E+03  0.00000000000E+00 0. -1.
          1    1    1    2  502    0  0.12628801268E+03 -0.17520653758E+03 -0.50067490518E+02  0.22170418707E+03  0.00000000000E+00 0. -1.
         22    1    3    3    0    0 -0.96171293315E+02  0.13772738791E+03 -0.65109471152E+02  0.18015824786E+03  0.00000000000E+00 0. -1.
         22    1    3    3    0    0 -0.90795382236E+02  0.41159572092E+02 -0.14443121897E+03  0.17549441251E+03  0.00000000000E+00 0. -1.
</event>
<event>
 7    1  0.7961130E-006  0.1971871E+03  0.7818608E-02  0.1203062E+00
          2   -1    0    0  502    0  0.00000000000E+00  0.00000000000E+00  0.85268114297E+03  0.85268114297E+03  0.00000000000E+00 0. -1.
          1   -1    0    0  501    0 -0.00000000000E+00 -0.00000000000E+00 -0.53734902240E+03  0.53734902240E+03  0.00000000000E+00 0. -1.
         25    2    1    2    0    0  0.27458529398E+02  0.13779723268E+03 -0.27783761274E+03  0.33549729695E+03  0.12499059580E+03 0.  0.
          2    1    1    2  501    0 -0.99471385630E+02  0.49147592018E+02 -0.20419246349E+03  0.23238890789E+03  0.00000000000E+00 0. -1.
          1    1    1    2  502    0  0.72012856232E+02 -0.18694482470E+03  0.79736219680E+03  0.82214396053E+03  0.00000000000E+00 0. -1.
         22    1    3    3    0    0 -0.15805924311E+02  0.89442613671E+02 -0.24794565450E+03  0.26405843287E+03  0.00000000000E+00 0.  1.
         22    1    3    3    0    0  0.43264453709E+02  0.48354619008E+02 -0.29891958239E+02  0.71438864083E+02  0.00000000000E+00 0.  1.
</event>
<event>
 7    1  0.7961130E-006  0.7205971E+02  0.7818608E-02  0.1505593E+00
          2   -1    0    0  502    0  0.00000000000E+00  0.00000000000E+00  0.63471801149E+03  0.63471801149E+03  0.00000000000E+00 0. -1.
          1   -1    0    0  501    0 -0.00000000000E+00 -0.00000000000E+00 -0.14815842581E+04  0.14815842581E+04  0.00000000000E+00 0. -1.
         25    2    1    2    0    0 -0.47094985728E+02  0.16234338396E+02 -0.11091942606E+03  0.17438408640E+03  0.12500079636E+03 0.  0.
          2    1    1    2  501    0 -0.20979890545E+02  0.84109124446E+01 -0.13366634329E+04  0.13368545291E+04  0.00000000000E+00 0. -1.
          1    1    1    2  502    0  0.68074876273E+02 -0.24645250841E+02  0.60071661231E+03  0.60506365407E+03  0.00000000000E+00 0. -1.
         22    1    3    3    0    0  0.35306034690E+01  0.63995507989E+02 -0.43320647411E+02  0.77359994156E+02  0.00000000000E+00 0. -1.
         22    1    3    3    0    0 -0.50625589197E+02 -0.47761169593E+02 -0.67598778644E+02  0.97024092248E+02  0.00000000000E+00 0. -1.
</event>
<event>
 7    1  0.7961130E-006  0.1041072E+03  0.7818608E-02  0.1302527E+00
          2   -1    0    0  502    0  0.00000000000E+00  0.00000000000E+00  0.21730797437E+04  0.21730797437E+04  0.00000000000E+00 0. -1.
          1   -1    0    0  501    0 -0.00000000000E+00 -0.00000000000E+00 -0.16736300352E+04  0.16736300352E+04  0.00000000000E+00 0. -1.
         25    2    1    2    0    0  0.11460304856E+03  0.84363387921E+02  0.13363268294E+03  0.23180473120E+03  0.12499879799E+03 0.  0.
          2    1    1    2  501    0 -0.37584198120E+02 -0.96927679748E+02 -0.16221145137E+04  0.16254424144E+04  0.00000000000E+00 0. -1.
          1    1    1    2  502    0 -0.77018850436E+02  0.12564291827E+02  0.19879315393E+04  0.19894626334E+04  0.00000000000E+00 0. -1.
         22    1    3    3    0    0 -0.13152626541E+01  0.55386385309E+02  0.87825572165E+02  0.10383984168E+03  0.00000000000E+00 0.  1.
         22    1    3    3    0    0  0.11591831121E+03  0.28977002613E+02  0.45807110771E+02  0.12796488953E+03  0.00000000000E+00 0.  1.
</event>
<event>
 7    1  0.7961130E-006  0.7721939E+02  0.7818608E-02  0.1374478E+00
          2   -1    0    0  502    0  0.00000000000E+00  0.00000000000E+00  0.50532104352E+03  0.50532104352E+03  0.00000000000E+00 0. -1.
          1   -1    0    0  501    0 -0.00000000000E+00 -0.00000000000E+00 -0.59869745277E+03  0.59869745277E+03  0.00000000000E+00 0. -1.
         25    2    1    2    0    0  0.15242909182E+02 -0.13108150377E+03  0.13105954388E+03  0.22408924542E+03  0.12499871583E+03 0.  0.
          2    1    1    2  501    0 -0.18801439523E+01  0.76385714532E+02 -0.54708966868E+03  0.55239969035E+03  0.00000000000E+00 0. -1.
          1    1    1    2  502    0 -0.13362765230E+02  0.54695789241E+02  0.32265371555E+03  0.32752956052E+03  0.00000000000E+00 0. -1.
         22    1    3    3    0    0  0.48393518089E+02 -0.27279053770E+02  0.25652823149E+01  0.55611689787E+02  0.00000000000E+00 0. -1.
         22    1    3    3    0    0 -0.33150608907E+02 -0.10380245000E+03  0.12849426156E+03  0.16847755563E+03  0.00000000000E+00 0. -1.
</event>
<event>
 7    1  0.7961130E-006  0.6137420E+02  0.7818608E-02  0.1548160E+00
          2   -1    0    0  502    0  0.00000000000E+00  0.00000000000E+00  0.35653965978E+03  0.35653965978E+03  0.00000000000E+00 0. -1.
          1   -1    0    0  501    0 -0.00000000000E+00 -0.00000000000E+00 -0.11379799136E+04  0.11379799136E+04  0.00000000000E+00 0. -1.
         25    2    1    2    0    0  0.42634459756E+02 -0.32782585290E+02 -0.31812636386E+03  0.34600806376E+03  0.12499920697E+03 0.  0.
          2    1    1    2  501    0  0.15457726537E+02  0.12716424765E+02 -0.80303058853E+03  0.80328001027E+03  0.00000000000E+00 0. -1.
          1    1    1    2  502    0 -0.58092186294E+02  0.20066160525E+02  0.33971669854E+03  0.34523149939E+03  0.00000000000E+00 0. -1.
         22    1    3    3    0    0  0.77037700148E+01 -0.78095040742E+02 -0.17090873291E+03  0.18806376165E+03  0.00000000000E+00 0.  1.
         22    1    3    3    0    0  0.34930689742E+02  0.45312455451E+02 -0.14721763095E+03  0.15794430211E+03  0.00000000000E+00 0.  1.
</event>
<event>
 7    1  0.7961130E-006  0.4246800E+02  0.7818608E-02  0.1583267E+00
          2   -1    0    0  502    0  0.00000000000E+00  0.00000000000E+00  0.35424368848E+03  0.35424368848E+03  0.00000000000E+00 0. -1.
          1   -1    0    0  501    0 -0.00000000000E+00 -0.00000000000E+00 -0.12595846091E+03  0.12595846091E+03  0.00000000000E+00 0. -1.
         25    2    1    2    0    0 -0.67601037054E+01  0.34148475068E+02 -0.66506151020E+02  0.14580732335E+03  0.12499956026E+03 0.  0.
          2    1    1    2  501    0  0.28822031371E+02 -0.41306701768E+02  0.13496150330E+02  0.52144982281E+02  0.00000000000E+00 0. -1.
          1    1    1    2  502    0 -0.22061927666E+02  0.71582267003E+01  0.28129522826E+03  0.28224984377E+03  0.00000000000E+00 0. -1.
         22    1    3    3    0    0  0.23170376188E+02 -0.17906912383E+02  0.23543098166E+02  0.37573944630E+02  0.00000000000E+00 0. -1.
         22    1    3    3    0    0 -0.29930479894E+02  0.52055387450E+02 -0.90049249186E+02  0.10823337872E+03  0.00000000000E+00 0. -1.
</event>
<event>
 7    1  0.7961130E-006  0.1138874E+03  0.7818608E-02  0.1338341E+00
          2   -1    0    0  502    0  0.00000000000E+00  0.00000000000E+00  0.23294693924E+04  0.23294693924E+04  0.00000000000E+00 0. -1.
          1   -1    0    0  501    0 -0.00000000000E+00 -0.00000000000E+00 -0.51960784714E+03  0.51960784714E+03  0.00000000000E+00 0. -1.
         25    2    1    2    0    0  0.97760455696E+02 -0.10071588839E+03  0.69681661547E+03  0.72171984018E+03  0.12500134097E+03 0.  0.
          2    1    1    2  501    0 -0.51809891072E+02 -0.21731702408E+00 -0.50392873320E+03  0.50658511642E+03  0.00000000000E+00 0. -1.
          1    1    1    2  502    0 -0.45950564624E+02  0.10093320541E+03  0.16169736629E+04  0.16207722829E+04  0.00000000000E+00 0. -1.
         22    1    3    3    0    0  0.68575431186E+02 -0.79754488861E+02  0.66637742075E+03  0.67462747880E+03  0.00000000000E+00 0. -1.
         22    1    3    3    0    0  0.29185024510E+02 -0.20961399528E+02  0.30439194713E+02  0.47092361382E+02  0.00000000000E+00 0. -1.
</event>
<event>
 7    1  0.7961130E-006  0.5071182E+02  0.7818608E-02  0.1445925E+00
          2   -1    0    0  502    0  0.00000000000E+00  0.00000000000E+00  0.61150823616E+03  0.61150823616E+03  0.00000000000E+00 0. -1.
          1   -1    0    0  501    0 -0.00000000000E+00 -0.00000000000E+00 -0.89904995257E+03  0.89904995257E+03  0.00000000000E+00 0. -1.
         25    2    1    2    0    0  0.21313683949E+02  0.28704587035E+02  0.51237090299E+02  0.13974091596E+03  0.12499623087E+03 0.  0.
          2    1    1    2  501    0  0.29331177517E+02 -0.39358117028E+02 -0.85279290056E+03  0.85420437285E+03  0.00000000000E+00 0. -1.
          1    1    1    2  502    0 -0.50644861466E+02  0.10653529993E+02  0.51401409385E+03  0.51661289992E+03  0.00000000000E+00 0. -1.
         22    1    3    3    0    0  0.58084866677E+02 -0.26014791761E+02  0.19443389238E+02  0.66548226966E+02  0.00000000000E+00 0. -1.
         22    1    3    3    0    0 -0.36771182728E+02  0.54719378795E+02  0.31793701061E+02  0.73192688993E+02  0.00000000000E+00 0. -1.
</event>
<event>
 7    1  0.7961130E-006  0.4217151E+02  0.7818608E-02  0.1508616E+00
          2   -1    0    0  502    0  0.00000000000E+00  0.00000000000E+00  0.77471922970E+02  0.77471922970E+02  0.00000000000E+00 0. -1.
          1   -1    0    0  501    0 -0.00000000000E+00 -0.00000000000E+00 -0.26739565872E+04  0.26739565872E+04  0.00000000000E+00 0. -1.
         25    2    1    2    0    0 -0.17228504808E+02 -0.90943318669E+01 -0.20062079216E+03  0.23717731049E+03  0.12499938447E+03 0.  0.
          2    1    1    2  501    0 -0.19196192486E+02  0.32604927332E+02 -0.24469536669E+04  0.24472461714E+04  0.00000000000E+00 0. -1.
          1    1    1    2  502    0  0.36424697294E+02 -0.23510595466E+02  0.51089794900E+02  0.67005028282E+02  0.00000000000E+00 0. -1.
         22    1    3    3    0    0  0.43809532433E+02 -0.38885160496E+02 -0.91360265284E+02  0.10852662766E+03  0.00000000000E+00 0.  1.
         22    1    3    3    0    0 -0.61038037241E+02  0.29790828629E+02 -0.10926052687E+03  0.12865068283E+03  0.00000000000E+00 0.  1.
</event>
<event>
 7    1  0.7961130E-006  0.8114778E+02  0.7818608E-02  0.1359545E+00
          2   -1    0    0  502    0  0.00000000000E+00  0.00000000000E+00  0.12916307486E+04  0.12916307486E+04  0.00000000000E+00 0. -1.
          1   -1    0    0  501    0 -0.00000000000E+00 -0.00000000000E+00 -0.48429928530E+03  0.48429928530E+03  0.00000000000E+00 0. -1.
         25    2    1    2    0    0 -0.44944126448E+02 -0.21986119143E+02 -0.43359916742E+02  0.14145193601E+03  0.12500081553E+03 0.  0.
          2    1    1    2  501    0  0.21944263726E+02 -0.56554263408E+02 -0.38818763729E+03  0.39289894014E+03  0.00000000000E+00 0. -1.
          1    1    1    2  502    0  0.22999862722E+02  0.78540382551E+02  0.12388790173E+04  0.12415791577E+04  0.00000000000E+00 0. -1.
         22    1    3    3    0    0  0.18007039639E+02 -0.58438121885E+02 -0.27247783550E+02  0.66945569490E+02  0.00000000000E+00 0.  1.
         22    1    3    3    0    0 -0.62951166087E+02  0.36452002742E+02 -0.16112133192E+02  0.74506366517E+02  0.00000000000E+00 0.  1.
</event>
<event>
 7    1  0.7961130E-006  0.1166697E+03  0.7818608E-02  0.1261529E+00
          2   -1    0    0  502    0  0.00000000000E+00  0.00000000000E+00  0.62310141889E+03  0.62310141889E+03  0.00000000000E+00 0. -1.
          1   -1    0    0  501    0 -0.00000000000E+00 -0.00000000000E+00 -0.18147396643E+04  0.18147396643E+04  0.00000000000E+00 0. -1.
         25    2    1    2    0    0 -0.44102203981E+02  0.48358568233E+02 -0.58122510752E+03  0.59810418850E+03  0.12498975625E+03 0.  0.
          2    1    1    2  501    0  0.14580229193E+03 -0.33773864364E+02 -0.12161623345E+04  0.12253366093E+04  0.00000000000E+00 0. -1.
          1    1    1    2  502    0 -0.10170008795E+03 -0.14584703868E+02  0.60574919661E+03  0.61440028538E+03  0.00000000000E+00 0. -1.
         22    1    3    3    0    0 -0.41769600908E+00  0.53888073419E+01 -0.47822319214E+03  0.47825373518E+03  0.00000000000E+00 0. -1.
         22    1    3    3    0    0 -0.43684507972E+02  0.42969760891E+02 -0.10300191539E+03  0.11985045332E+03  0.00000000000E+00 0. -1.
</event>
<event>
 7    1  0.7961130E-006  0.1369670E+03  0.7818608E-02  0.1259417E+00
          2   -1    0    0  502    0  0.00000000000E+00  0.00000000000E+00  0.49821070051E+03  0.49821070051E+03  0.00000000000E+00 0. -1.
          1   -1    0    0  501    0 -0.00000000000E+00 -0.00000000000E+00 -0.32499153159E+03  0.32499153159E+03  0.00000000000E+00 0. -1.
         25    2    1    2    0    0 -0.58475983740E+02 -0.96882859107E+02 -0.64509229603E+02  0.18053459578E+03  0.12500228200E+03 0.  0.
          2    1    1    2  501    0 -0.74072542165E+01  0.15723746653E+03 -0.16623683498E+03  0.22893923560E+03  0.00000000000E+00 0. -1.
          1    1    1    2  502    0  0.65883237957E+02 -0.60354607419E+02  0.40396523350E+03  0.41372840071E+03  0.00000000000E+00 0. -1.
         22    1    3    3    0    0 -0.89814783474E+02 -0.89672877465E+02 -0.74115577132E+02  0.14697291947E+03  0.00000000000E+00 0.  1.
         22    1    3    3    0    0  0.31338799734E+02 -0.72099816429E+01  0.96063475294E+01  0.33561676312E+02  0.00000000000E+00 0.  1.
</event>
<event>
 7    1  0.7961130E-006  0.5107079E+02  0.7818608E-02  0.1453144E+00
          2   -1    0    0  502    0  0.00000000000E+00  0.00000000000E+00  0.31428388867E+04  0.31428388867E+04  0.00000000000E+00 0. -1.
          1   -1    0    0  501    0 -0.00000000000E+00 -0.00000000000E+00 -0.11755992118E+03  0.11755992118E+03  0.00000000000E+00 0. -1.
         25    2    1    2    0    0 -0.29140493551E+02 -0.67427117426E+02  0.22686676194E+04  0.22732948356E+04  0.12498423002E+03 0.  0.
          2    1    1    2  501    0 -0.13359995580E+02  0.49275673374E+02 -0.10894509761E+03  0.12031465314E+03  0.00000000000E+00 0. -1.
          1    1    1    2  502    0  0.42500489131E+02  0.18151444052E+02  0.86555644369E+03  0.86678931911E+03  0.00000000000E+00 0. -1.
         22    1    3    3    0    0 -0.74597224609E+02 -0.65807812675E+02  0.15690917577E+04  0.15722418256E+04  0.00000000000E+00 0. -1.
         22    1    3    3    0    0  0.45456731058E+02 -0.16193047514E+01  0.69957586176E+03  0.70105301005E+03  0.00000000000E+00 0. -1.
</event>
<event>
 7    1  0.7961130E-006  0.1464256E+03  0.7818608E-02  0.1335626E+00
          2   -1    0    0  502    0  0.00000000000E+00  0.00000000000E+00  0.43855643722E+03  0.43855643722E+03  0.00000000000E+00 0. -1.
          1   -1    0    0  501    0 -0.00000000000E+00 -0.00000000000E+00 -0.38366143790E+03  0.38366143790E+03  0.00000000000E+00 0. -1.
         25    2    1    2    0    0  0.82875158202E+02  0.12210794469E+03 -0.13375886416E+03  0.23514862137E+03  0.12499919354E+03 0.  0.
          2    1    1    2  501    0  0.29997711027E+02 -0.28329578327E+02 -0.18294706088E+03  0.18754214129E+03  0.00000000000E+00 0. -1.
          1    1    1    2  502    0 -0.11287286923E+03 -0.93778366367E+02  0.37160092437E+03  0.39952711247E+03  0.00000000000E+00 0. -1.
         22    1    3    3    0    0  0.17107819014E+02 -0.13888058980E+02  0.12118233325E+02  0.25147708297E+02  0.00000000000E+00 0.  1.
         22    1    3    3    0    0  0.65767339187E+02  0.13599600367E+03 -0.14587709749E+03  0.21000091307E+03  0.00000000000E+00 0.  1.
</event>
<event>
 7    1  0.7961130E-006  0.1228644E+03  0.7818608E-02  0.1244755E+00
          2   -1    0    0  502    0  0.00000000000E+00  0.00000000000E+00  0.13680220537E+04  0.13680220537E+04  0.00000000000E+00 0. -1.
          1   -1    0    0  501    0 -0.00000000000E+00 -0.00000000000E+00 -0.72456606237E+03  0.72456606237E+03  0.00000000000E+00 0. -1.
         25    2    1    2    0    0 -0.11139086786E+03  0.61776862072E+02 -0.26076628414E+03  0.31598767994E+03  0.12499941118E+03 0.  0.
          2    1    1    2  501    0  0.12475672977E+03  0.52703599634E+02 -0.42311857703E+03  0.44426483235E+03  0.00000000000E+00 0. -1.
          1    1    1    2  502    0 -0.13365861912E+02 -0.11448046171E+03  0.13273408525E+04  0.13323356038E+04  0.00000000000E+00 0. -1.
         22    1    3    3    0    0 -0.12679459370E+03  0.45957008263E+02 -0.14456331896E+03  0.19770551027E+03  0.00000000000E+00 0.  1.
         22    1    3    3    0    0  0.15403725843E+02  0.15819853809E+02 -0.11620296519E+03  0.11828216967E+03  0.00000000000E+00 0.  1.
</event>
<event>
 7    1  0.7961130E-006  0.6372408E+02  0.7818608E-02  0.1406835E+00
          2   -1    0    0  502    0  0.00000000000E+00  0.00000000000E+00  0.68960800496E+03  0.68960800496E+03  0.00000000000E+00 0. -1.
          1   -1    0    0  501    0 -0.00000000000E+00 -0.00000000000E+00 -0.85847625338E+02  0.85847625338E+02  0.00000000000E+00 0. -1.
         25    2    1    2    0    0 -0.32722396467E+02 -0.74370649728E+02  0.40178494476E+03  0.42855279420E+03  0.12499842724E+03 0.  0.
          2    1    1    2  501    0  0.50694674907E+02  0.14101253931E+02 -0.58650986159E+02  0.78795517663E+02  0.00000000000E+00 0. -1.
          1    1    1    2  502    0 -0.17972278440E+02  0.60269395797E+02  0.26062642103E+03  0.26810731844E+03  0.00000000000E+00 0. -1.
         22    1    3    3    0    0 -0.62607281260E+02  0.64279637270E+01  0.17010759986E+03  0.18137691671E+03  0.00000000000E+00 0.  1.
         22    1    3    3    0    0  0.29884884793E+02 -0.80798613455E+02  0.23167734490E+03  0.24717587749E+03  0.00000000000E+00 0.  1.
</event>
<event>
 7    1  0.7961130E-006  0.6136746E+02  0.7818608E-02  0.1452631E+00
          2   -1    0    0  502    0  0.00000000000E+00  0.00000000000E+00  0.11590283143E+03  0.11590283143E+03  0.00000000000E+00 0. -1.
          1   -1    0    0  501    0 -0.00000000000E+00 -0.00000000000E+00 -0.17708672536E+04  0.17708672536E+04  0.00000000000E+00 0. -1.
         25    2    1    2    0    0  0.42848999792E+02  0.59114852925E+02 -0.21214014214E+03  0.25682360737E+03  0.12499729108E+03 0.  0.
          2    1    1    2  501    0 -0.38550399923E+02  0.20542449132E+01 -0.15260677104E+04  0.15265559308E+04  0.00000000000E+00 0. -1.
          1    1    1    2  502    0 -0.42985998687E+01 -0.61169097838E+02  0.83243430321E+02  0.10339054687E+03  0.00000000000E+00 0. -1.
         22    1    3    3    0    0 -0.36315981716E+02  0.41604647480E+02 -0.13078036030E+03  0.14196231845E+03  0.00000000000E+00 0.  1.
         22    1    3    3    0    0  0.79164981507E+02  0.17510205445E+02 -0.81359781835E+02  0.11486128892E+03  0.00000000000E+00 0.  1.
</event>
<event>
 7    1  0.7961130E-006  0.6364545E+02  0.7818608E-02  0.1388602E+00
          2   -1    0    0  502    0  0.00000000000E+00  0.00000000000E+00  0.75113219604E+03  0.75113219604E+03  0.00000000000E+00 0. -1.
          1   -1    0    0  501    0 -0.00000000000E+00 -0.00000000000E+00 -0.10729172280E+04  0.10729172280E+04  0.00000000000E+00 0. -1.
         25    2    1    2    0    0 -0.37030866278E+02  0.19220762748E+02  0.23152823056E+03  0.26640392266E+03  0.12500002272E+03 0.  0.
          2    1    1    2  501    0  0.49412389775E+02  0.40403849805E+02 -0.10526629494E+04  0.10545962926E+04  0.00000000000E+00 0. -1.
          1    1    1    2  502    0 -0.12381523498E+02 -0.59624612554E+02  0.49934968694E+03  0.50304920872E+03  0.00000000000E+00 0. -1.
         22    1    3    3    0    0  0.24416342266E+02 -0.39723890561E+02  0.81056572901E+02  0.93511032833E+02  0.00000000000E+00 0. -1.
         22    1    3    3    0    0 -0.61447208544E+02  0.58944653309E+02  0.15047165766E+03  0.17289288982E+03  0.00000000000E+00 0. -1.
</event>
<event>
 7    1  0.7961130E-006  0.1396349E+03  0.7818608E-02  0.1338729E+00
          2   -1    0    0  502    0  0.00000000000E+00  0.00000000000E+00  0.15157387837E+04  0.15157387837E+04  0.00000000000E+00 0. -1.
          1   -1    0    0  501    0 -0.00000000000E+00 -0.00000000000E+00 -0.61777895425E+03  0.61777895425E+03  0.00000000000E+00 0. -1.
         25    2    1    2    0    0 -0.11641306269E+03 -0.10362608208E+02 -0.74966798937E+02  0.18682784304E+03  0.12500094872E+03 0.  0.
          2    1    1    2  501    0 -0.14786495908E+02 -0.39433667286E+02 -0.48258990439E+03  0.48442406051E+03  0.00000000000E+00 0. -1.
          1    1    1    2  502    0  0.13119955860E+03  0.49796275494E+02  0.14555165327E+04  0.14622658343E+04  0.00000000000E+00 0. -1.
         22    1    3    3    0    0  0.13600879599E+02  0.31685980186E+02 -0.15406429991E+02  0.37766961107E+02  0.00000000000E+00 0.  1.
         22    1    3    3    0    0 -0.13001394229E+03 -0.42048588394E+02 -0.59560368946E+02  0.14906088194E+03  0.00000000000E+00 0.  1.
</event>
<event>
 7    1  0.7961130E-006  0.9083561E+02  0.7818608E-02  0.1403504E+00
          2   -1    0    0  502    0  0.00000000000E+00  0.00000000000E+00  0.41546970104E+03  0.41546970104E+03  0.00000000000E+00 0. -1.
          1   -1    0    0  501    0 -0.00000000000E+00 -0.00000000000E+00 -0.20172548300E+04  0.20172548300E+04  0.00000000000E+00 0. -1.
         25    2    1    2    0    0  0.10032780735E+02  0.73743524606E+02 -0.18859760199E+02  0.14669777300E+03  0.12500312771E+03 0.  0.
          2    1    1    2  501    0  0.25211046853E+02 -0.87663747515E+02 -0.19323759455E+04  0.19345276747E+04  0.00000000000E+00 0. -1.
          1    1    1    2  502    0 -0.35243827588E+02  0.13920222909E+02  0.34945057674E+03  0.35149908332E+03  0.00000000000E+00 0. -1.
         22    1    3    3    0    0 -0.52869720148E+02  0.29304833918E+02  0.15439923310E+02  0.62388875862E+02  0.00000000000E+00 0.  1.
         22    1    3    3    0    0  0.62902500883E+02  0.44438690688E+02 -0.34299683509E+02  0.84308897136E+02  0.00000000000E+00 0.  1.
</event>
<event>
 7    1  0.7961130E-006  0.8257082E+02  0.7818608E-02  0.1430344E+00
          2   -1    0    0  502    0  0.00000000000E+00  0.00000000000E+00  0.41520836959E+03  0.41520836959E+03  0.00000000000E+00 0. -1.
          1   -1    0    0  501    0 -0.00000000000E+00 -0.00000000000E+00 -0.48151898518E+03  0.48151898518E+03  0.00000000000E+00 0. -1.
         25    2    1    2    0    0 -0.27709776858E+02  0.48779880614E+02 -0.71836788570E+02  0.15470378846E+03  0.12500171793E+03 0.  0.
          2    1    1    2  501    0  0.58455988937E+02 -0.63009886786E+02 -0.36244469942E+03  0.37249632027E+03  0.00000000000E+00 0. -1.
          1    1    1    2  502    0 -0.30746212079E+02  0.14230006172E+02  0.36797087240E+03  0.36952724604E+03  0.00000000000E+00 0. -1.
         22    1    3    3    0    0  0.19206531596E+02 -0.34924974700E+02 -0.30657929968E+02  0.50284723163E+02  0.00000000000E+00 0.  1.
         22    1    3    3    0    0 -0.46916308454E+02  0.83704855313E+02 -0.41178858603E+02  0.10441906530E+03  0.00000000000E+00 0.  1.
</event>
<event>
 7    1  0.7961130E-006  0.2044679E+03  0.7818608E-02  0.1180289E+00
          2   -1    0    0  502    0  0.00000000000E+00  0.00000000000E+00  0.73652067103E+03  0.73652067103E+03  0.00000000000E+00 0. -1.
          1   -1    0    0  501    0 -0.00000000000E+00 -0.00000000000E+00 -0.18966499045E+04  0.18966499045E+04  0.00000000000E+00 0. -1.
         25    2    1    2    0    0  0.34984385474E+02 -0.60629142080E+02  0.26939132013E+03  0.30511761472E+03  0.12500110142E+03 0.  0.
          2    1    1    2  501    0 -0.88623061797E+02  0.18724751986E+03 -0.18623850284E+04  0.18738713069E+04  0.00000000000E+00 0. -1.
          1    1    1    2  502    0  0.53638676323E+02 -0.12661837778E+03  0.43286447481E+03  0.45418165391E+03  0.00000000000E+00 0. -1.
         22    1    3    3    0    0 -0.28435933447E+02 -0.67936576360E+02  0.18633378481E+03  0.20036032562E+03  0.00000000000E+00 0.  1.
         22    1    3    3    0    0  0.63420318920E+02  0.73074342797E+01  0.83057535316E+02  0.10475728910E+03  0.00000000000E+00 0.  1.
</event>
<event>
 7    1  0.7961130E-006  0.1033232E+03  0.7818608E-02  0.1395856E+00
          2   -1    0    0  502    0  0.00000000000E+00  0.00000000000E+00  0.75808101882E+03  0.75808101882E+03  0.00000000000E+00 0. -1.
          1   -1    0    0  501    0 -0.00000000000E+00 -0.00000000000E+00 -0.29648198287E+03  0.29648198287E+03  0.00000000000E+00 0. -1.
         25    2    1    2    0    0 -0.40048511690E+02  0.83407843369E+02  0.11663382666E+03  0.19439521720E+03  0.12500119730E+03 0.  0.
          2    1    1    2  501    0  0.28413748080E+02  0.21104596589E+02 -0.25176600581E+03  0.25424174865E+03  0.00000000000E+00 0. -1.
          1    1    1    2  502    0  0.11634763610E+02 -0.10451243996E+03  0.59673121510E+03  0.60592603583E+03  0.00000000000E+00 0. -1.
         22    1    3    3    0    0 -0.54845179987E+02 -0.42375384674E+01  0.82549415543E+02  0.99198571092E+02  0.00000000000E+00 0. -1.
         22    1    3    3    0    0  0.14796668297E+02  0.87645381836E+02  0.34084411114E+02  0.95196646111E+02  0.00000000000E+00 0. -1.
</event>
<event>
 7    1  0.7961130E-006  0.9237734E+02  0.7818608E-02  0.1417039E+00
          2   -1    0    0  502    0  0.00000000000E+00  0.00000000000E+00  0.11651904453E+04  0.11651904453E+04  0.00000000000E+00 0. -1.
          1   -1    0    0  501    0 -0.00000000000E+00 -0.00000000000E+00 -0.39753443030E+03  0.39753443030E+03  0.00000000000E+00 0. -1.
         25    2    1    2    0    0 -0.11068908360E+03 -0.54221258274E+02 -0.96556815349E+02  0.20035516064E+03  0.12500781467E+03 0.  0.
          2    1    1    2  501    0  0.24016088958E+02  0.23394861885E+02 -0.24603923742E+03  0.24831310566E+03  0.00000000000E+00 0. -1.
          1    1    1    2  502    0  0.86672994642E+02  0.30826396389E+02  0.11102520678E+04  0.11140566093E+04  0.00000000000E+00 0. -1.
         22    1    3    3    0    0 -0.51623215883E+02  0.34972377342E+02 -0.62005913612E+02  0.87936095649E+02  0.00000000000E+00 0.  1.
         22    1    3    3    0    0 -0.59065867717E+02 -0.89193635616E+02 -0.34550901737E+02  0.11241906500E+03  0.00000000000E+00 0.  1.
</event>
<event>
 7    1  0.7961130E-006  0.1224461E+03  0.7818608E-02  0.1253184E+00
          2   -1    0    0  502    0  0.00000000000E+00  0.00000000000E+00  0.82564843335E+03  0.82564843335E+03  0.00000000000E+00 0. -1.
          1   -1    0    0  501    0 -0.00000000000E+00 -0.00000000000E+00 -0.34929432779E+03  0.34929432779E+03  0.00000000000E+00 0. -1.
         25    2    1    2    0    0  0.90668291717E+02 -0.15690559777E+03 -0.10077184423E+03  0.24211590913E+03  0.12500017252E+03 0.  0.
          2    1    1    2  501    0  0.59334972534E+01  0.11255249010E+03 -0.15576610167E+03  0.19226634611E+03  0.00000000000E+00 0. -1.
          1    1    1    2  502    0 -0.96601788971E+02  0.44353107667E+02  0.73289205146E+03  0.74056050589E+03  0.00000000000E+00 0. -1.
         22    1    3    3    0    0  0.73214898906E+02 -0.12049956306E+02 -0.31668950984E+02  0.80675555934E+02  0.00000000000E+00 0.  1.
         22    1    3    3    0    0  0.17453392811E+02 -0.14485564146E+03 -0.69102893244E+02  0.16144035319E+03  0.00000000000E+00 0.  1.
</event>
<event>
 7    1  0.7961130E-006  0.6828522E+02  0.7818608E-02  0.1470136E+00
          2   -1    0    0  502    0  0.00000000000E+00  0.00000000000E+00  0.11239580996E+04  0.11239580996E+04  0.00000000000E+00 0. -1.
          1   -1    0    0  501    0 -0.00000000000E+00 -0.00000000000E+00 -0.11653591274E+03  0.11653591274E+03  0.00000000000E+00 0. -1.
         25    2    1    2    0    0  0.26404467509E+02  0.28003266322E+02  0.45893464676E+03  0.47720753625E+03  0.12499857528E+03 0.  0.
          2    1    1    2  501    0 -0.45530516161E+02 -0.51837037673E+02 -0.95919519375E+02  0.11815523930E+03  0.00000000000E+00 0. -1.
          1    1    1    2  502    0  0.19126048652E+02  0.23833771351E+02  0.64440705952E+03  0.64513123684E+03  0.00000000000E+00 0. -1.
         22    1    3    3    0    0  0.33344306246E+02 -0.41222043907E+02  0.11976919482E+03  0.13097999729E+03  0.00000000000E+00 0. -1.
         22    1    3    3    0    0 -0.69398387366E+01  0.69225310229E+02  0.33916545195E+03  0.34622753896E+03  0.00000000000E+00 0. -1.
</event>
<event>
 7    1  0.7961130E-006  0.7441543E+02  0.7818608E-02  0.1364214E+00
          2   -1    0    0  502    0  0.00000000000E+00  0.00000000000E+00  0.10625327280E+04  0.10625327280E+04  0.00000000000E+00 0. -1.
          1   -1    0    0  501    0 -0.00000000000E+00 -0.00000000000E+00 -0.45533548449E+03  0.45533548449E+03  0.00000000000E+00 0. -1.
         25    2    1    2    0    0 -0.11235886299E+03  0.51973360659E+02  0.59745785806E+03  0.62282191134E+03  0.12500198710E+03 0.  0.
          2    1    1    2  501    0  0.74209044787E+02 -0.10699272963E+01 -0.43727492883E+03  0.44352845507E+03  0.00000000000E+00 0. -1.
          1    1    1    2  502    0  0.38149818206E+02 -0.50903433362E+02  0.44701431425E+03  0.45151784605E+03  0.00000000000E+00 0. -1.
         22    1    3    3    0    0 -0.61855769958E+02 -0.18385112522E+02  0.10839170803E+03  0.12614638722E+03  0.00000000000E+00 0.  1.
         22    1    3    3    0    0 -0.50503093035E+02  0.70358473180E+02  0.48906615003E+03  0.49667552412E+03  0.00000000000E+00 0.  1.
</event>
<event>
 7    1  0.7961130E-006  0.1604234E+03  0.7818608E-02  0.1363993E+00
          2   -1    0    0  502    0  0.00000000000E+00  0.00000000000E+00  0.22899827435E+04  0.22899827435E+04  0.00000000000E+00 0. -1.
          1   -1    0    0  501    0 -0.00000000000E+00 -0.00000000000E+00 -0.69884496087E+03  0.69884496087E+03  0.00000000000E+00 0. -1.
         25    2    1    2    0    0 -0.81461588952E+02  0.12920088165E+03 -0.63632179645E+03  0.66622740894E+03  0.12499869392E+03 0.  0.
          2    1    1    2  501    0  0.21936003292E+02  0.19818000776E+02 -0.39850615959E+02  0.49618675793E+02  0.00000000000E+00 0. -1.
          1    1    1    2  502    0  0.59525585661E+02 -0.14901888243E+03  0.22673101950E+04  0.22729816196E+04  0.00000000000E+00 0. -1.
         22    1    3    3    0    0 -0.58395315971E+02 -0.61927315872E+01 -0.22725685021E+03  0.23472119380E+03  0.00000000000E+00 0.  1.
         22    1    3    3    0    0 -0.23066272981E+02  0.13539361324E+03 -0.40906494624E+03  0.43150621513E+03  0.00000000000E+00 0.  1.
</event>
<event>
 7    1  0.7961130E-006  0.6939006E+02  0.7818608E-02  0.1390994E+00
          2   -1    0    0  502    0  0.00000000000E+00  0.00000000000E+00  0.28771113591E+03  0.28771113591E+03  0.00000000000E+00 0. -1.
          1   -1    0    0  501    0 -0.00000000000E+00 -0.00000000000E+00 -0.11360778532E+04  0.11360778532E+04  0.00000000000E+00 0. -1.
         25    2    1    2    0    0  0.10223017465E+03 -0.37258186356E+02 -0.48759998755E+02  0.17274785136E+03  0.12500040645E+03 0.  0.
          2    1    1    2  501    0 -0.53786674220E+02 -0.10444104040E+02 -0.10194519687E+04  0.10209233087E+04  0.00000000000E+00 0. -1.
          1    1    1    2  502    0 -0.48443500430E+02  0.47702290396E+02  0.21984525018E+03  0.23011782910E+03  0.00000000000E+00 0. -1.
         22    1    3    3    0    0 -0.18697665854E+02 -0.32062882156E+02 -0.34847561744E+02  0.50911527968E+02  0.00000000000E+00 0. -1.
         22    1    3    3    0    0  0.12092784050E+03 -0.51953042003E+01 -0.13912437011E+02  0.12183632339E+03  0.00000000000E+00 0. -1.
</event>
<event>
 7    1  0.7961130E-006  0.7122270E+02  0.7818608E-02  0.1473906E+00
          2   -1    0    0  502    0  0.00000000000E+00  0.00000000000E+00  0.11653993673E+04  0.11653993673E+04  0.00000000000E+00 0. -1.
          1   -1    0    0  501    0 -0.00000000000E+00 -0.00000000000E+00 -0.11551521744E+04  0.11551521744E+04  0.00000000000E+00 0. -1.
         25    2    1    2    0    0 -0.26825669341E+02  0.42558892903E+02 -0.70419623232E+02  0.15203489082E+03  0.12499923516E+03 0.  0.
          2    1    1    2  501    0  0.96985734924E+01  0.26820520639E+02 -0.10425944486E+04  0.10429844615E+04  0.00000000000E+00 0. -1.
          1    1    1    2  502    0  0.17127095849E+02 -0.69379413542E+02  0.11232612648E+04  0.11255321894E+04  0.00000000000E+00 0. -1.
         22    1    3    3    0    0 -0.18251883983E+02  0.81789598857E+02 -0.73895182488E+02  0.11172809738E+03  0.00000000000E+00 0. -1.
         22    1    3    3    0    0 -0.85737853580E+01 -0.39230705953E+02  0.34755592560E+01  0.40306793436E+02  0.00000000000E+00 0. -1.
</event>
<event>
 7    1  0.7961130E-006  0.5147278E+02  0.7818608E-02  0.1517363E+00
          2   -1    0    0  502    0  0.00000000000E+00  0.00000000000E+00  0.11710600997E+04  0.11710600997E+04  0.00000000000E+00 0. -1.
          1   -1    0    0  501    0 -0.00000000000E+00 -0.00000000000E+00 -0.73101601960E+03  0.73101601960E+03  0.00000000000E+00 0. -1.
         25    2    1    2    0    0 -0.10527250150E+02  0.69954361886E+02 -0.29193545516E+03  0.32535516062E+03  0.12500093928E+03 0.  0.
          2    1    1    2  501    0 -0.99430180471E+01 -0.49100672044E+02 -0.42069938151E+03  0.42367169979E+03  0.00000000000E+00 0. -1.
          1    1    1    2  502    0  0.20470268197E+02 -0.20853689842E+02  0.11526789167E+04  0.11530492588E+04  0.00000000000E+00 0. -1.
         22    1    3    3    0    0 -0.42241985405E+02  0.76524066657E+02 -0.27550351264E+03  0.28903720104E+03  0.00000000000E+00 0.  1.
         22    1    3    3    0    0  0.31714735255E+02 -0.65697047713E+01 -0.16431942523E+02  0.36317959582E+02  0.00000000000E+00 0.  1.
</event>
<event>
 7    1  0.7961130E-006  0.1032378E+03  0.7818608E-02  0.1299831E+00
          2   -1    0    0  502    0  0.00000000000E+00  0.00000000000E+00  0.81978810401E+03  0.81978810401E+03  0.00000000000E+00 0. -1.
          1   -1    0    0  501    0 -0.00000000000E+00 -0.00000000000E+00 -0.60687714193E+03  0.60687714193E+03  0.00000000000E+00 0. -1.
         25    2    1    2    0    0 -0.80012165529E+02  0.16307835781E+03  0.14635924512E+03  0.26465366962E+03  0.12499615511E+03 0.  0.
          2    1    1    2  501    0  0.50399841557E+02 -0.88039412212E+02 -0.54034075493E+03  0.54978105967E+03  0.00000000000E+00 0. -1.
          1    1    1    2  502    0  0.29612323972E+02 -0.75038945594E+02  0.60689247188E+03  0.61223051665E+03  0.00000000000E+00 0. -1.
         22    1    3    3    0    0 -0.34682046186E+01 -0.17284801367E+02 -0.35088885442E+01  0.17975124489E+02  0.00000000000E+00 0.  1.
         22    1    3    3    0    0 -0.76543960910E+02  0.18036315917E+03  0.14986813367E+03  0.24667854513E+03  0.00000000000E+00 0.  1.
</event>
<event>
 7    1  0.7961130E-006  0.1200926E+03  0.7818608E-02  0.1302783E+00
          2   -1    0    0  502    0  0.00000000000E+00  0.00000000000E+00  0.69809156638E+03  0.69809156638E+03  0.00000000000E+00 0. -1.
          1   -1    0    0  501    0 -0.00000000000E+00 -0.00000000000E+00 -0.25756256113E+03  0.25756256113E+03  0.00000000000E+00 0. -1.
         25    2    1    2    0    0  0.27428839314E+02 -0.56714131350E+02  0.35675105132E+02  0.14445317863E+03  0.12500069508E+03 0.  0.
          2    1    1    2  501    0  0.52460258913E+02 -0.42460609063E+02 -0.19064421521E+03  0.20223797586E+03  0.00000000000E+00 0. -1.
          1    1    1    2  502    0 -0.79889098226E+02  0.99174740414E+02  0.59549811533E+03  0.60896297302E+03  0.00000000000E+00 0. -1.
         22    1    3    3    0    0 -0.32559887623E+02  0.18498703357E+02 -0.87941908935E+01  0.38466688204E+02  0.00000000000E+00 0. -1.
         22    1    3    3    0    0  0.59988726936E+02 -0.75212834708E+02  0.44469296025E+02  0.10598649043E+03  0.00000000000E+00 0. -1.
</event>
<event>
 7    1  0.7961130E-006  0.1268574E+03  0.7818608E-02  0.1381197E+00
          2   -1    0    0  502    0  0.00000000000E+00  0.00000000000E+00  0.66042239261E+03  0.66042239261E+03  0.00000000000E+00 0. -1.
          1   -1    0    0  501    0 -0.00000000000E+00 -0.00000000000E+00 -0.19202933680E+04  0.19202933680E+04  0.00000000000E+00 0. -1.
         25    2    1    2    0    0 -0.21272383953E+02  0.15167308847E+03 -0.68372207966E+03  0.71172918460E+03  0.12500123961E+03 0.  0.
          2    1    1    2  501    0  0.20625034917E+02 -0.25039093727E+02 -0.12161472815E+04  0.12165798612E+04  0.00000000000E+00 0. -1.
          1    1    1    2  502    0  0.64734903612E+00 -0.12663399474E+03  0.63999838581E+03  0.65240671481E+03  0.00000000000E+00 0. -1.
         22    1    3    3    0    0  0.48163723671E+02  0.57116008989E+02 -0.18769717957E+03  0.20202033061E+03  0.00000000000E+00 0. -1.
         22    1    3    3    0    0 -0.69436107623E+02  0.94557079482E+02 -0.49602490009E+03  0.50970885398E+03  0.00000000000E+00 0. -1.
</event>
<event>
 7    1  0.7961130E-006  0.7838677E+02  0.7818608E-02  0.1353491E+00
          2   -1    0    0  502    0  0.00000000000E+00  0.00000000000E+00  0.69330150956E+03  0.69330150956E+03  0.00000000000E+00 0. -1.
          1   -1    0    0  501    0 -0.00000000000E+00 -0.00000000000E+00 -0.48665713339E+03  0.48665713339E+03  0.00000000000E+00 0. -1.
         25    2    1    2    0    0 -0.96213220701E+02  0.43315586454E+02  0.32816548262E+02  0.16683879423E+03  0.12500013421E+03 0.  0.
          2    1    1    2  501    0  0.75729044909E+02  0.19524174982E+02 -0.41413465059E+03  0.42145413804E+03  0.00000000000E+00 0. -1.
          1    1    1    2  502    0  0.20484175792E+02 -0.62839761437E+02  0.58796247850E+03  0.59166571068E+03  0.00000000000E+00 0. -1.
         22    1    3    3    0    0 -0.91014080044E+02  0.81455699285E+02  0.38189483019E+02  0.12797277181E+03  0.00000000000E+00 0. -1.
         22    1    3    3    0    0 -0.51991406569E+01 -0.38140112831E+02 -0.53729347567E+01  0.38866022414E+02  0.00000000000E+00 0. -1.
</event>
<event>
 7    1  0.7961130E-006  0.7547886E+02  0.7818608E-02  0.1395620E+00
          2   -1    0    0  502    0  0.00000000000E+00  0.00000000000E+00  0.18741473496E+04  0.18741473496E+04  0.00000000000E+00 0. -1.
          1   -1    0    0  501    0 -0.00000000000E+00 -0.00000000000E+00 -0.10082758039E+04  0.10082758039E+04  0.00000000000E+00 0. -1.
         25    2    1    2    0    0 -0.67971766935E+02  0.10156277583E+03  0.29373653502E+03  0.34182065331E+03  0.12500019396E+03 0.  0.
          2    1    1    2  501    0  0.24816480870E+02 -0.41718963946E+02 -0.98275993990E+03  0.98395804237E+03  0.00000000000E+00 0. -1.
          1    1    1    2  502    0  0.43155286065E+02 -0.59843811880E+02  0.15548949506E+04  0.15566444578E+04  0.00000000000E+00 0. -1.
         22    1    3    3    0    0 -0.93905642579E+02  0.55734373670E+02  0.12974784559E+03  0.16958506288E+03  0.00000000000E+00 0. -1.
         22    1    3    3    0    0  0.25933875643E+02  0.45828402156E+02  0.16398868943E+03  0.17223559043E+03  0.00000000000E+00 0. -1.
</event>
<event>
 7    1  0.7961130E-006  0.9134185E+02  0.7818608E-02  0.1340616E+00
          2   -1    0    0  502    0  0.00000000000E+00  0.00000000000E+00  0.14113040640E+03  0.14113040640E+03  0.00000000000E+00 0. -1.
          1   -1    0    0  501    0 -0.00000000000E+00 -0.00000000000E+00 -0.12594441566E+04  0.12594441566E+04  0.00000000000E+00 0. -1.
         25    2    1    2    0    0  0.48690309327E+02 -0.12002589810E+03 -0.66340491425E+03  0.68739057349E+03  0.12499103104E+03 0.  0.
          2    1    1    2  501    0  0.19576564796E+02  0.60235494139E+02 -0.56611654920E+03  0.56964857932E+03  0.00000000000E+00 0. -1.
          1    1    1    2  502    0 -0.68266874122E+02  0.59790403961E+02  0.11120771321E+03  0.14353541022E+03  0.00000000000E+00 0. -1.
         22    1    3    3    0    0  0.67389144135E+02 -0.10317405071E+02 -0.22679356442E+03  0.23681863621E+03  0.00000000000E+00 0.  1.
         22    1    3    3    0    0 -0.18698834808E+02 -0.10970849303E+03 -0.43661134983E+03  0.45057193728E+03  0.00000000000E+00 0.  1.
</event>
<event>
 7    1  0.7961130E-006  0.8813347E+02  0.7818608E-02  0.1316847E+00
          2   -1    0    0  502    0  0.00000000000E+00  0.00000000000E+00  0.22020884827E+04  0.22020884827E+04  0.00000000000E+00 0. -1.
          1   -1    0    0  501    0 -0.00000000000E+00 -0.00000000000E+00 -0.11281246870E+03  0.11281246870E+03  0.00000000000E+00 0. -1.
         25    2    1    2    0    0 -0.40823676031E+02 -0.20513298631E+02  0.13233929581E+03  0.18771146189E+03  0.12503813725E+03 0.  0.
          2    1    1    2  501    0  0.40503595917E+02 -0.70079790294E+02 -0.64638731823E+02  0.10358515309E+03  0.00000000000E+00 0. -1.
          1    1    1    2  502    0  0.32008011326E+00  0.90593088925E+02  0.20215754501E+04  0.20236043364E+04  0.00000000000E+00 0. -1.
         22    1    3    3    0    0 -0.64800979293E+02  0.31051477621E+02  0.97153324279E+02  0.12083927175E+03  0.00000000000E+00 0. -1.
         22    1    3    3    0    0  0.23977303262E+02 -0.51564776252E+02  0.35185971527E+02  0.66872190138E+02  0.00000000000E+00 0. -1.
</event>
<event>
 7    1  0.7961130E-006  0.1047476E+03  0.7818608E-02  0.1296629E+00
          2   -1    0    0  502    0  0.00000000000E+00  0.00000000000E+00  0.64369676226E+03  0.64369676226E+03  0.00000000000E+00 0. -1.
          1   -1    0    0  501    0 -0.00000000000E+00 -0.00000000000E+00 -0.21414438010E+04  0.21414438010E+04  0.00000000000E+00 0. -1.
         25    2    1    2    0    0 -0.15510294832E+01  0.55466828058E+02 -0.61001910784E+01  0.13689981313E+03  0.12500148718E+03 0.  0.
          2    1    1    2  501    0 -0.78833642293E+02 -0.71125558277E+02 -0.20656740358E+04  0.20684010275E+04  0.00000000000E+00 0. -1.
          1    1    1    2  502    0  0.80384671777E+02  0.15658730218E+02  0.57402718813E+03  0.57983972268E+03  0.00000000000E+00 0. -1.
         22    1    3    3    0    0  0.37506479168E+02 -0.15321130119E+02  0.27901013436E+02  0.49192881176E+02  0.00000000000E+00 0.  1.
         22    1    3    3    0    0 -0.39057508651E+02  0.70787958178E+02 -0.34001204514E+02  0.87706931957E+02  0.00000000000E+00 0.  1.
</event>
<event>
 7    1  0.7961130E-006  0.6069247E+02  0.7818608E-02  0.1398881E+00
          2   -1    0    0  502    0  0.00000000000E+00  0.00000000000E+00  0.19661913427E+04  0.19661913427E+04  0.00000000000E+00 0. -1.
          1   -1    0    0  501    0 -0.00000000000E+00 -0.00000000000E+00 -0.43403357468E+02  0.43403357468E+02  0.00000000000E+00 0. -1.
         25    2    1    2    0    0 -0.43949926044E+02  0.43710589307E+02  0.87716840084E+03  0.88819447810E+03  0.12499126315E+03 0.  0.
          2    1    1    2  501    0  0.58170159295E+02  0.17314963665E+02 -0.12049178127E+02  0.61876959304E+02  0.00000000000E+00 0. -1.
          1    1    1    2  502    0 -0.14220233251E+02 -0.61025552972E+02  0.10576687625E+04  0.10595232627E+04  0.00000000000E+00 0. -1.
         22    1    3    3    0    0  0.41505191322E+02  0.11991312645E+02  0.40582621598E+03  0.40811933311E+03  0.00000000000E+00 0. -1.
         22    1    3    3    0    0 -0.85455117366E+02  0.31719276663E+02  0.47134218487E+03  0.48007514498E+03  0.00000000000E+00 0. -1.
</event>
<event>
 7    1  0.7961130E-006  0.1154811E+03  0.7818608E-02  0.1455821E+00
          2   -1    0    0  502    0  0.00000000000E+00  0.00000000000E+00  0.66319856453E+03  0.66319856453E+03  0.00000000000E+00 0. -1.
          1   -1    0    0  501    0 -0.00000000000E+00 -0.00000000000E+00 -0.11338240928E+04  0.11338240928E+04  0.00000000000E+00 0. -1.
         25    2    1    2    0    0  0.13596871025E+01 -0.13344518746E+03 -0.73624795956E+02  0.19709017680E+03  0.12495783451E+03 0.  0.
          2    1    1    2  501    0  0.49614252796E+01  0.11442684985E+03 -0.99501362302E+03  0.10015838605E+04  0.00000000000E+00 0. -1.
          1    1    1    2  502    0 -0.63211123821E+01  0.19018337603E+02  0.59801289069E+03  0.59834862000E+03  0.00000000000E+00 0. -1.
         22    1    3    3    0    0 -0.19537630943E+02  0.17348011551E+02  0.36236952972E+01  0.26378091198E+02  0.00000000000E+00 0.  1.
         22    1    3    3    0    0  0.20897318046E+02 -0.15079319901E+03 -0.77248491253E+02  0.17071208560E+03  0.00000000000E+00 0.  1.
</event>
<event>
 7    1  0.7961130E-006  0.7557797E+02  0.7818608E-02  0.1404575E+00
          2   -1    0    0  502    0  0.00000000000E+00  0.00000000000E+00  0.15121052954E+03  0.15121052954E+03  0.00000000000E+00 0. -1.
          1   -1    0    0  501    0 -0.00000000000E+00 -0.00000000000E+00 -0.49743659715E+03  0.49743659715E+03  0.00000000000E+00 0. -1.
         25    2    1    2    0    0  0.42410457430E+02 -0.16331206854E+02 -0.71200915107E+02  0.15086560638E+03  0.12500202263E+03 0.  0.
          2    1    1    2  501    0  0.37239378483E+02  0.25548129654E+02 -0.37042138613E+03  0.37316414825E+03  0.00000000000E+00 0. -1.
          1    1    1    2  502    0 -0.79649835913E+02 -0.92169227999E+01  0.95396233629E+02  0.12461737205E+03  0.00000000000E+00 0. -1.
         22    1    3    3    0    0 -0.24083378805E+02  0.28026884832E+01  0.23376793905E+02  0.33679944933E+02  0.00000000000E+00 0.  1.
         22    1    3    3    0    0  0.66493836236E+02 -0.19133895337E+02 -0.94577709011E+02  0.11718566145E+03  0.00000000000E+00 0.  1.
</event>
<event>
 7    1  0.7961130E-006  0.1454148E+03  0.7818608E-02  0.1294822E+00
          2   -1    0    0  502    0  0.00000000000E+00  0.00000000000E+00  0.22298282298E+04  0.22298282298E+04  0.00000000000E+00 0. -1.
          1   -1    0    0  501    0 -0.00000000000E+00 -0.00000000000E+00 -0.20518128351E+03  0.20518128351E+03  0.00000000000E+00 0. -1.
         25    2    1    2    0    0  0.11175019351E+02 -0.12944453465E+03  0.73802888461E+02  0.19481430317E+03  0.12499991107E+03 0.  0.
          2    1    1    2  501    0 -0.70906337466E+02  0.13501271567E+03 -0.10392912709E+03  0.18454648613E+03  0.00000000000E+00 0. -1.
          1    1    1    2  502    0  0.59731318115E+02 -0.55681810169E+01  0.20547731849E+04  0.20556487240E+04  0.00000000000E+00 0. -1.
         22    1    3    3    0    0  0.53989336903E+02 -0.57809300751E+02  0.78219080633E+02  0.11124292484E+03  0.00000000000E+00 0.  1.
         22    1    3    3    0    0 -0.42814317552E+02 -0.71635233897E+02 -0.44161921721E+01  0.83571378332E+02  0.00000000000E+00 0.  1.
</event>
<event>
 7    1  0.7961130E-006  0.2913885E+03  0.7818608E-02  0.1219766E+00
          2   -1    0    0  502    0  0.00000000000E+00  0.00000000000E+00  0.21468987417E+04  0.21468987417E+04  0.00000000000E+00 0. -1.
          1   -1    0    0  501    0 -0.00000000000E+00 -0.00000000000E+00 -0.14036956189E+04  0.14036956189E+04  0.00000000000E+00 0. -1.
         25    2    1    2    0    0  0.34864763575E+03 -0.52847335989E+02 -0.49378719047E+03  0.61951458263E+03  0.12499805512E+03 0.  0.
          2    1    1    2  501    0 -0.62801360310E+02  0.23195627353E+01 -0.83575134972E+03  0.83811079804E+03  0.00000000000E+00 0. -1.
          1    1    1    2  502    0 -0.28584627543E+03  0.50527773254E+02  0.20727416631E+04  0.20929689799E+04  0.00000000000E+00 0. -1.
         22    1    3    3    0    0  0.80465628826E+02 -0.58175175061E+02 -0.85684347336E+02  0.13115210938E+03  0.00000000000E+00 0.  1.
         22    1    3    3    0    0  0.26818200692E+03  0.53278390716E+01 -0.40810284314E+03  0.48836247325E+03  0.00000000000E+00 0.  1.
</event>
<event>
 7    1  0.7961130E-006  0.2194681E+03  0.7818608E-02  0.1316817E+00
          2   -1    0    0  502    0  0.00000000000E+00  0.00000000000E+00  0.10967027417E+04  0.10967027417E+04  0.00000000000E+00 0. -1.
          1   -1    0    0  501    0 -0.00000000000E+00 -0.00000000000E+00 -0.82110399817E+03  0.82110399817E+03  0.00000000000E+00 0. -1.
         25    2    1    2    0    0 -0.20804606369E+03 -0.12016540145E+03 -0.14273548554E+02  0.27120561207E+03  0.12500344598E+03 0.  0.
          2    1    1    2  501    0  0.17613718089E+03  0.12640591032E+03 -0.66075730298E+03  0.69541568439E+03  0.00000000000E+00 0. -1.
          1    1    1    2  502    0  0.31908882805E+02 -0.62405088633E+01  0.95062959510E+03  0.95118544345E+03  0.00000000000E+00 0. -1.
         22    1    3    3    0    0 -0.64500370255E+01 -0.57643998715E+02  0.95946349265E+01  0.58791926187E+02  0.00000000000E+00 0. -1.
         22    1    3    3    0    0 -0.20159602666E+03 -0.62521402740E+02 -0.23868183481E+02  0.21241368588E+03  0.00000000000E+00 0. -1.
</event>
<event>
 7    1  0.7961130E-006  0.5630123E+02  0.7818608E-02  0.1441651E+00
          2   -1    0    0  502    0  0.00000000000E+00  0.00000000000E+00  0.64317113433E+03  0.64317113433E+03  0.00000000000E+00 0. -1.
          1   -1    0    0  501    0 -0.00000000000E+00 -0.00000000000E+00 -0.47753398468E+03  0.47753398468E+03  0.00000000000E+00 0. -1.
         25    2    1    2    0    0 -0.38129497714E+02  0.35682875314E+02  0.38542722701E+03  0.40854117145E+03  0.12499846103E+03 0.  0.
          2    1    1    2  501    0 -0.25678053036E+01 -0.56339180835E+02 -0.46213266183E+03  0.46556126777E+03  0.00000000000E+00 0. -1.
          1    1    1    2  502    0  0.40697303018E+02  0.20656305521E+02  0.24234258447E+03  0.24660267978E+03  0.00000000000E+00 0. -1.
         22    1    3    3    0    0 -0.22342394215E+02 -0.55448000790E+01  0.25882436874E+01  0.23165197875E+02  0.00000000000E+00 0. -1.
         22    1    3    3    0    0 -0.15787103499E+02  0.41227675393E+02  0.38283898332E+03  0.38537597357E+03  0.00000000000E+00 0. -1.
</event>
<event>
 7    1  0.1196005E-005  0.5186378E+02  0.7818608E-02  0.1513113E+00
          2   -1    0    0  502    0  0.00000000000E+00  0.00000000000E+00  0.13845482840E+04  0.13845482840E+04  0.00000000000E+00 0. -1.
          1   -1    0    0  501    0 -0.00000000000E+00 -0.00000000000E+00 -0.19787134213E+04  0.19787134213E+04  0.00000000000E+00 0. -1.
         25    2    1    2    0    0  0.44261465705E+02 -0.55611613456E+02 -0.48338593739E+03  0.50431766726E+03  0.12499046422E+03 0.  0.
          2    1    1    2  501    0 -0.15171877234E+02  0.48948709474E+02 -0.14842573274E+04  0.14851417360E+04  0.00000000000E+00 0. -1.
          1    1    1    2  502    0 -0.29089588471E+02  0.66629039821E+01  0.13734781274E+04  0.13738023020E+04  0.00000000000E+00 0. -1.
         22    1    3    3    0    0  0.32423031179E+02  0.10314681631E+02 -0.37746538272E+03  0.37899572658E+03  0.00000000000E+00 0. -1.
         22    1    3    3    0    0  0.11838434526E+02 -0.65926295087E+02 -0.10592055467E+03  0.12532194068E+03  0.00000000000E+00 0. -1.
</event>
<event>
 7    1  0.7961130E-006  0.1003855E+03  0.7818608E-02  0.1415122E+00
          2   -1    0    0  502    0  0.00000000000E+00  0.00000000000E+00  0.14825292267E+03  0.14825292267E+03  0.00000000000E+00 0. -1.
          1   -1    0    0  501    0 -0.00000000000E+00 -0.00000000000E+00 -0.18044069868E+04  0.18044069868E+04  0.00000000000E+00 0. -1.
         25    2    1    2    0    0  0.53693814241E+02  0.54629118045E+02 -0.16464758063E+03  0.22045725358E+03  0.12500083448E+03 0.  0.
          2    1    1    2  501    0  0.30994797793E+02  0.44580265736E+01 -0.15895206741E+04  0.15898290867E+04  0.00000000000E+00 0. -1.
          1    1    1    2  502    0 -0.84688612035E+02 -0.59087144619E+02  0.98014190555E+02  0.14237356924E+03  0.00000000000E+00 0. -1.
         22    1    3    3    0    0 -0.38970092544E+02  0.93560672397E+01 -0.69023620617E+02  0.79815188468E+02  0.00000000000E+00 0.  1.
         22    1    3    3    0    0  0.92663906785E+02  0.45273050805E+02 -0.95623960009E+02  0.14064206511E+03  0.00000000000E+00 0.  1.
</event>
<event>
 7    1  0.7961130E-006  0.1653922E+03  0.7818608E-02  0.1299227E+00
          2   -1    0    0  502    0  0.00000000000E+00  0.00000000000E+00  0.21680222884E+04  0.21680222884E+04  0.00000000000E+00 0. -1.
          1   -1    0    0  501    0 -0.00000000000E+00 -0.00000000000E+00 -0.87410754255E+02  0.87410754255E+02  0.00000000000E+00 0. -1.
         25    2    1    2    0    0  0.81832421926E+02 -0.16713507199E+03  0.65735262756E+03  0.69452692265E+03  0.12499796700E+03 0.  0.
          2    1    1    2  501    0 -0.31691009833E+02  0.16007776354E+03  0.29016198750E+02  0.16574423149E+03  0.00000000000E+00 0. -1.
          1    1    1    2  502    0 -0.50141412094E+02  0.70573084481E+01  0.13942427078E+04  0.13951618885E+04  0.00000000000E+00 0. -1.
         22    1    3    3    0    0  0.57878159000E+02 -0.11269723681E+03  0.22595387709E+03  0.25904768489E+03  0.00000000000E+00 0. -1.
         22    1    3    3    0    0  0.23954262927E+02 -0.54437835172E+02  0.43139875047E+03  0.43547923776E+03  0.00000000000E+00 0. -1.
</event>
<event>
 7    1  0.7961130E-006  0.1827380E+03  0.7818608E-02  0.1179434E+00
          2   -1    0    0  502    0  0.00000000000E+00  0.00000000000E+00  0.18555627236E+04  0.18555627236E+04  0.00000000000E+00 0. -1.
          1   -1    0    0  501    0 -0.00000000000E+00 -0.00000000000E+00 -0.21193665775E+04  0.21193665775E+04  0.00000000000E+00 0. -1.
         25    2    1    2    0    0  0.11430928952E+03  0.30759541596E+03 -0.49888199260E+03  0.61007435376E+03  0.12500368391E+03 0.  0.
          2    1    1    2  501    0 -0.88188968911E+02 -0.12788985557E+03 -0.15564316631E+04  0.15641651547E+04  0.00000000000E+00 0. -1.
          1    1    1    2  502    0 -0.26120320614E+02 -0.17970556039E+03  0.17915098017E+04  0.18006897926E+04  0.00000000000E+00 0. -1.
         22    1    3    3    0    0  0.59305046784E+02  0.20752279814E+03 -0.41704722387E+03  0.46958618725E+03  0.00000000000E+00 0.  1.
         22    1    3    3    0    0  0.55004242740E+02  0.10007261782E+03 -0.81834768728E+02  0.14048816651E+03  0.00000000000E+00 0.  1.
</event>
<event>
 7    1  0.7961130E-006  0.8166793E+02  0.7818608E-02  0.1333263E+00
          2   -1    0    0  502    0  0.00000000000E+00  0.00000000000E+00  0.80475955162E+03  0.80475955162E+03  0.00000000000E+00 0. -1.
          1   -1    0    0  501    0 -0.00000000000E+00 -0.00000000000E+00 -0.46599347664E+02  0.46599347664E+02  0.00000000000E+00 0. -1.
         25    2    1    2    0    0  0.28606900445E+02 -0.13902572060E+02  0.34692090306E+03  0.37012292965E+03  0.12500093526E+03 0.  0.
          2    1    1    2  501    0 -0.26556114832E+02  0.89395972549E+02  0.38447771597E+02  0.10087169218E+03  0.00000000000E+00 0. -1.
          1    1    1    2  502    0 -0.20507856129E+01 -0.75493400489E+02  0.37279152930E+03  0.38036427745E+03  0.00000000000E+00 0. -1.
         22    1    3    3    0    0  0.42085475489E+02 -0.34359743475E+01  0.35020764502E+03  0.35274408258E+03  0.00000000000E+00 0. -1.
         22    1    3    3    0    0 -0.13478575044E+02 -0.10466597712E+02 -0.32867419616E+01  0.17378847073E+02  0.00000000000E+00 0. -1.
</event>
<event>
 7    1  0.7961130E-006  0.1541118E+03  0.7818608E-02  0.1279254E+00
          2   -1    0    0  502    0  0.00000000000E+00  0.00000000000E+00  0.41170767647E+03  0.41170767647E+03  0.00000000000E+00 0. -1.
          1   -1    0    0  501    0 -0.00000000000E+00 -0.00000000000E+00 -0.15067218898E+04  0.15067218898E+04  0.00000000000E+00 0. -1.
         25    2    1    2    0    0  0.15485914355E+02  0.15465062868E+03 -0.43617848479E+03  0.47961766688E+03  0.12499922119E+03 0.  0.
          2    1    1    2  501    0 -0.78241009851E+02 -0.13576678732E+03 -0.10401601377E+04  0.10518970426E+04  0.00000000000E+00 0. -1.
          1    1    1    2  502    0  0.62755095496E+02 -0.18883841358E+02  0.38132440910E+03  0.38691485685E+03  0.00000000000E+00 0. -1.
         22    1    3    3    0    0  0.24615456967E+00 -0.16855714238E+02 -0.91446413616E+01  0.19178116701E+02  0.00000000000E+00 0.  1.
         22    1    3    3    0    0  0.15239759785E+02  0.17150634291E+03 -0.42703384343E+03  0.46043955018E+03  0.00000000000E+00 0.  1.
</event>
<event>
 7    1  0.7961130E-006  0.1100835E+03  0.7818608E-02  0.1370856E+00
          2   -1    0    0  502    0  0.00000000000E+00  0.00000000000E+00  0.12761405059E+04  0.12761405059E+04  0.00000000000E+00 0. -1.
          1   -1    0    0  501    0 -0.00000000000E+00 -0.00000000000E+00 -0.86847931050E+03  0.86847931050E+03  0.00000000000E+00 0. -1.
         25    2    1    2    0    0  0.66726513739E+02 -0.77069146205E+02  0.19004926438E+03  0.24927239850E+03  0.12500369926E+03 0.  0.
          2    1    1    2  501    0 -0.97891125846E+02  0.50903211544E+02 -0.83484480208E+03  0.84210430056E+03  0.00000000000E+00 0. -1.
          1    1    1    2  502    0  0.31164612107E+02  0.26165934662E+02  0.10524567331E+04  0.10532431173E+04  0.00000000000E+00 0. -1.
         22    1    3    3    0    0  0.26989146822E+02 -0.20039516425E+01  0.15507534765E+03  0.15741916439E+03  0.00000000000E+00 0.  1.
         22    1    3    3    0    0  0.39737366917E+02 -0.75065194563E+02  0.34973916726E+02  0.91853234104E+02  0.00000000000E+00 0.  1.
</event>
<event>
 7    1  0.7961130E-006  0.9455264E+02  0.7818608E-02  0.1383065E+00
          2   -1    0    0  502    0  0.00000000000E+00  0.00000000000E+00  0.12923932648E+04  0.12923932648E+04  0.00000000000E+00 0. -1.
          1   -1    0    0  501    0 -0.00000000000E+00 -0.00000000000E+00 -0.84380175227E+02  0.84380175227E+02  0.00000000000E+00 0. -1.
         25    2    1    2    0    0  0.23779205005E+02  0.13299699513E+03  0.56125942350E+03  0.59066999361E+03  0.12500099834E+03 0.  0.
          2    1    1    2  501    0 -0.13432125862E+02 -0.91397220497E+02 -0.38087019005E+02  0.99922444608E+02  0.00000000000E+00 0. -1.
          1    1    1    2  502    0 -0.10347079143E+02 -0.41599774633E+02  0.68484068503E+03  0.68618100176E+03  0.00000000000E+00 0. -1.
         22    1    3    3    0    0  0.19147296471E+02  0.15614729599E+03  0.51832133357E+03  0.54166927348E+03  0.00000000000E+00 0. -1.
         22    1    3    3    0    0  0.46319085336E+01 -0.23150300855E+02  0.42938089930E+02  0.49000720129E+02  0.00000000000E+00 0. -1.
</event>
<event>
 7    1  0.7961130E-006  0.1373052E+03  0.7818608E-02  0.1353197E+00
          2   -1    0    0  502    0  0.00000000000E+00  0.00000000000E+00  0.10987420320E+04  0.10987420320E+04  0.00000000000E+00 0. -1.
          1   -1    0    0  501    0 -0.00000000000E+00 -0.00000000000E+00 -0.22198477673E+03  0.22198477673E+03  0.00000000000E+00 0. -1.
         25    2    1    2    0    0 -0.12597215396E+03  0.88116566318E+02  0.24541856833E+03  0.31542264026E+03  0.12501062144E+03 0.  0.
          2    1    1    2  501    0  0.35685149604E+02  0.12548683482E+02 -0.17941083637E+03  0.18335524963E+03  0.00000000000E+00 0. -1.
          1    1    1    2  502    0  0.90287004352E+02 -0.10066524980E+03  0.81074952334E+03  0.82194891890E+03  0.00000000000E+00 0. -1.
         22    1    3    3    0    0 -0.43487929680E+02 -0.29655307754E+02  0.85182554435E+02  0.10013343541E+03  0.00000000000E+00 0. -1.
         22    1    3    3    0    0 -0.82484224275E+02  0.11777187407E+03  0.16023601390E+03  0.21528920485E+03  0.00000000000E+00 0. -1.
</event>
<event>
 7    1  0.7961130E-006  0.4853861E+02  0.7818608E-02  0.1530569E+00
          2   -1    0    0  502    0  0.00000000000E+00  0.00000000000E+00  0.49592891958E+03  0.49592891958E+03  0.00000000000E+00 0. -1.
          1   -1    0    0  501    0 -0.00000000000E+00 -0.00000000000E+00 -0.58403609437E+03  0.58403609437E+03  0.00000000000E+00 0. -1.
         25    2    1    2    0    0 -0.48612677591E+02  0.17236789238E+02 -0.17150768257E+03  0.21840320853E+03  0.12499910795E+03 0.  0.
          2    1    1    2  501    0  0.13300950540E+01 -0.28351386884E+02 -0.38731170463E+03  0.38835026308E+03  0.00000000000E+00 0. -1.
          1    1    1    2  502    0  0.47282582537E+02  0.11114597646E+02  0.47071221241E+03  0.47321154234E+03  0.00000000000E+00 0. -1.
         22    1    3    3    0    0 -0.44617771691E+01  0.16590036515E+02 -0.17335960542E+03  0.17420875282E+03  0.00000000000E+00 0. -1.
         22    1    3    3    0    0 -0.44150900422E+02  0.64675272274E+00  0.18519228471E+01  0.44194455709E+02  0.00000000000E+00 0. -1.
</event>
<event>
 7    1  0.7961130E-006  0.5603857E+02  0.7818608E-02  0.1529900E+00
          2   -1    0    0  502    0  0.00000000000E+00  0.00000000000E+00  0.20819959677E+04  0.20819959677E+04  0.00000000000E+00 0. -1.
          1   -1    0    0  501    0 -0.00000000000E+00 -0.00000000000E+00 -0.44076962645E+03  0.44076962645E+03  0.00000000000E+00 0. -1.
         25    2    1    2    0    0  0.47309435976E+02 -0.26669539184E+02 -0.17260887727E+01  0.13632878772E+03  0.12503244350E+03 0.  0.
          2    1    1    2  501    0 -0.15303396542E+02 -0.19378727192E+02 -0.37094139290E+03  0.37176235148E+03  0.00000000000E+00 0. -1.
          1    1    1    2  502    0 -0.32006039433E+02  0.46048266376E+02  0.20138938230E+04  0.20146744550E+04  0.00000000000E+00 0. -1.
         22    1    3    3    0    0 -0.13173583606E+01  0.31851708832E+02  0.38723581954E+02  0.50157577572E+02  0.00000000000E+00 0. -1.
         22    1    3    3    0    0  0.48626794336E+02 -0.58521248016E+02 -0.40449670727E+02  0.86171210150E+02  0.00000000000E+00 0. -1.
</event>
<event>
 7    1  0.7961130E-006  0.5638286E+02  0.7818608E-02  0.1486130E+00
          2   -1    0    0  502    0  0.00000000000E+00  0.00000000000E+00  0.15458967136E+03  0.15458967136E+03  0.00000000000E+00 0. -1.
          1   -1    0    0  501    0 -0.00000000000E+00 -0.00000000000E+00 -0.51677519473E+03  0.51677519473E+03  0.00000000000E+00 0. -1.
         25    2    1    2    0    0  0.69606712096E+02 -0.16531260018E+02 -0.82501024401E+02  0.16598504884E+03  0.12500496184E+03 0.  0.
          2    1    1    2  501    0 -0.54501463905E+02 -0.12861110862E+02 -0.38805913631E+03  0.39207870513E+03  0.00000000000E+00 0. -1.
          1    1    1    2  502    0 -0.15105248191E+02  0.29392370880E+02  0.10837463734E+03  0.11330111212E+03  0.00000000000E+00 0. -1.
         22    1    3    3    0    0  0.68726907062E+02  0.16797402521E+02  0.63991709931E+01  0.71038650573E+02  0.00000000000E+00 0. -1.
         22    1    3    3    0    0  0.87980503380E+00 -0.33328662540E+02 -0.88900195394E+02  0.94946398271E+02  0.00000000000E+00 0. -1.
</event>
<event>
 7    1  0.7961130E-006  0.9653339E+02  0.7818608E-02  0.1397914E+00
          2   -1    0    0  502    0  0.00000000000E+00  0.00000000000E+00  0.20923052085E+04  0.20923052085E+04  0.00000000000E+00 0. -1.
          1   -1    0    0  501    0 -0.00000000000E+00 -0.00000000000E+00 -0.57568043040E+02  0.57568043040E+02  0.00000000000E+00 0. -1.
         25    2    1    2    0    0  0.28699264244E+02 -0.12821660270E+03  0.36596927157E+03  0.40843762325E+03  0.12499855751E+03 0.  0.
          2    1    1    2  501    0 -0.11746115073E+02  0.35368901383E+02 -0.25104903770E+02  0.44935360215E+02  0.00000000000E+00 0. -1.
          1    1    1    2  502    0 -0.16953149171E+02  0.92847701321E+02  0.16938727976E+04  0.16965002680E+04  0.00000000000E+00 0. -1.
         22    1    3    3    0    0  0.39260381485E+02 -0.10655641542E+03  0.13585754569E+03  0.17706755757E+03  0.00000000000E+00 0. -1.
         22    1    3    3    0    0 -0.10561117241E+02 -0.21660187285E+02  0.23011172587E+03  0.23137006568E+03  0.00000000000E+00 0. -1.
</event>
<event>
 7    1  0.7961130E-006  0.9424557E+02  0.7818608E-02  0.1307931E+00
          2   -1    0    0  502    0  0.00000000000E+00  0.00000000000E+00  0.69061635579E+02  0.69061635579E+02  0.00000000000E+00 0. -1.
          1   -1    0    0  501    0 -0.00000000000E+00 -0.00000000000E+00 -0.23762878899E+04  0.23762878899E+04  0.00000000000E+00 0. -1.
         25    2    1    2    0    0  0.78500575476E+02  0.34963995824E+02 -0.15320351481E+04  0.15395266658E+04  0.12500335321E+03 0.  0.
          2    1    1    2  501    0 -0.11268615635E+03  0.39621601484E+02 -0.80849740982E+03  0.81727357893E+03  0.00000000000E+00 0. -1.
          1    1    1    2  502    0  0.34185580870E+02 -0.74585597307E+02  0.33306303591E+02  0.88549280765E+02  0.00000000000E+00 0. -1.
         22    1    3    3    0    0  0.77941533591E+02  0.63828918084E+02 -0.72393911216E+03  0.73091507821E+03  0.00000000000E+00 0.  1.
         22    1    3    3    0    0  0.55904188509E+00 -0.28864922260E+02 -0.80809603594E+03  0.80861158757E+03  0.00000000000E+00 0.  1.
</event>
<event>
 7    1  0.7961130E-006  0.1467518E+03  0.7818608E-02  0.1401613E+00
          2   -1    0    0  502    0  0.00000000000E+00  0.00000000000E+00  0.12407446452E+04  0.12407446452E+04  0.00000000000E+00 0. -1.
          1   -1    0    0  501    0 -0.00000000000E+00 -0.00000000000E+00 -0.81017539603E+02  0.81017539603E+02  0.00000000000E+00 0. -1.
         25    2    1    2    0    0  0.12061742160E+03  0.10175411304E+03  0.51971782525E+03  0.55734533300E+03  0.12499896169E+03 0.  0.
          2    1    1    2  501    0 -0.12245419239E+03 -0.78017644242E+02  0.23068393141E+02  0.14701677731E+03  0.00000000000E+00 0. -1.
          1    1    1    2  502    0  0.18367707986E+01 -0.23736468797E+02  0.61694088723E+03  0.61740007452E+03  0.00000000000E+00 0. -1.
         22    1    3    3    0    0  0.47616826565E+02  0.11721754729E+03  0.33796281288E+03  0.36086864432E+03  0.00000000000E+00 0. -1.
         22    1    3    3    0    0  0.73000595031E+02 -0.15463434248E+02  0.18175501238E+03  0.19647668869E+03  0.00000000000E+00 0. -1.
</event>
<event>
 7    1  0.7961130E-006  0.8195967E+02  0.7818608E-02  0.1326989E+00
          2   -1    0    0  502    0  0.00000000000E+00  0.00000000000E+00  0.83697245350E+03  0.83697245350E+03  0.00000000000E+00 0. -1.
          1   -1    0    0  501    0 -0.00000000000E+00 -0.00000000000E+00 -0.32754477332E+03  0.32754477332E+03  0.00000000000E+00 0. -1.
         25    2    1    2    0    0 -0.13151328795E+02  0.16070241329E+01  0.88627311042E+02  0.15380437795E+03  0.12500178574E+03 0.  0.
          2    1    1    2  501    0  0.36954680927E+02 -0.77482323968E+02 -0.28643439108E+03  0.29902143629E+03  0.00000000000E+00 0. -1.
          1    1    1    2  502    0 -0.23803352132E+02  0.75875299836E+02  0.70723476021E+03  0.71169141259E+03  0.00000000000E+00 0. -1.
         22    1    3    3    0    0  0.24745910893E+02 -0.46856701270E+02  0.73219415007E+02  0.90382483335E+02  0.00000000000E+00 0. -1.
         22    1    3    3    0    0 -0.37897239688E+02  0.48463725403E+02  0.15407896034E+02  0.63421894611E+02  0.00000000000E+00 0. -1.
</event>
<event>
 7    1  0.7961130E-006  0.1743245E+03  0.7818608E-02  0.1244782E+00
          2   -1    0    0  502    0  0.00000000000E+00  0.00000000000E+00  0.10739660350E+04  0.10739660350E+04  0.00000000000E+00 0. -1.
          1   -1    0    0  501    0 -0.00000000000E+00 -0.00000000000E+00 -0.37492423083E+03  0.37492423083E+03  0.00000000000E+00 0. -1.
         25    2    1    2    0    0 -0.74645704786E+02  0.22561084516E+03  0.91033139461E+00  0.26850969816E+03  0.12499757840E+03 0.  0.
          2    1    1    2  501    0  0.27435316700E+02 -0.15953101163E+03 -0.21194378206E+03  0.26668897058E+03  0.00000000000E+00 0. -1.
          1    1    1    2  502    0  0.47210388086E+02 -0.66079833532E+02  0.91007525484E+03  0.91369159710E+03  0.00000000000E+00 0. -1.
         22    1    3    3    0    0 -0.93326449269E+01 -0.15808212825E+02 -0.12817796714E+01  0.18402195879E+02  0.00000000000E+00 0. -1.
         22    1    3    3    0    0 -0.65313059859E+02  0.24141905798E+03  0.21921110660E+01  0.25010750228E+03  0.00000000000E+00 0. -1.
</event>
<event>
 7    1  0.7961130E-006  0.2400611E+03  0.7818608E-02  0.1162017E+00
          2   -1    0    0  502    0  0.00000000000E+00  0.00000000000E+00  0.30401446364E+03  0.30401446364E+03  0.00000000000E+00 0. -1.
          1   -1    0    0  501    0 -0.00000000000E+00 -0.00000000000E+00 -0.79147218989E+03  0.79147218989E+03  0.00000000000E+00 0. -1.
         25    2    1    2    0    0  0.10407769269E+03 -0.29456021826E+03 -0.14716269706E+03  0.36725897049E+03  0.12499761478E+03 0.  0.
          2    1    1    2  501    0  0.54822086188E+02  0.13346381173E+03 -0.45300932458E+03  0.47543190715E+03  0.00000000000E+00 0. -1.
          1    1    1    2  502    0 -0.15889977887E+03  0.16109640653E+03  0.11271429540E+03  0.25279577590E+03  0.00000000000E+00 0. -1.
         22    1    3    3    0    0 -0.18098000494E+02 -0.64769395188E+01 -0.24537117278E+02  0.31169833039E+02  0.00000000000E+00 0.  1.
         22    1    3    3    0    0  0.12217569318E+03 -0.28808327874E+03 -0.12262557979E+03  0.33608913745E+03  0.00000000000E+00 0.  1.
</event>
<event>
 7    1  0.7961130E-006  0.9160538E+02  0.7818608E-02  0.1333243E+00
          2   -1    0    0  502    0  0.00000000000E+00  0.00000000000E+00  0.13502746033E+03  0.13502746033E+03  0.00000000000E+00 0. -1.
          1   -1    0    0  501    0 -0.00000000000E+00 -0.00000000000E+00 -0.44637090944E+03  0.44637090944E+03  0.00000000000E+00 0. -1.
         25    2    1    2    0    0  0.55630108567E+02  0.13476266192E+03 -0.19061183511E+03  0.27058121811E+03  0.12500255951E+03 0.  0.
          2    1    1    2  501    0 -0.47465137921E+00 -0.67338340812E+02 -0.18868223519E+03  0.20033887120E+03  0.00000000000E+00 0. -1.
          1    1    1    2  502    0 -0.55155457188E+02 -0.67424321105E+02  0.67950621185E+02  0.11047828046E+03  0.00000000000E+00 0. -1.
         22    1    3    3    0    0  0.13945419991E+01  0.13752081877E+03 -0.13083938072E+03  0.18982324381E+03  0.00000000000E+00 0.  1.
         22    1    3    3    0    0  0.54235566568E+02 -0.27581568514E+01 -0.59772454392E+02  0.80757974307E+02  0.00000000000E+00 0.  1.
</event>
<event>
 7    1  0.7961130E-006  0.1889208E+03  0.7818608E-02  0.1289824E+00
          2   -1    0    0  502    0  0.00000000000E+00  0.00000000000E+00  0.14806104937E+04  0.14806104937E+04  0.00000000000E+00 0. -1.
          1   -1    0    0  501    0 -0.00000000000E+00 -0.00000000000E+00 -0.31839393967E+03  0.31839393967E+03  0.00000000000E+00 0. -1.
         25    2    1    2    0    0 -0.44040418834E+02  0.18643889239E+03  0.61583116346E+02  0.23688820543E+03  0.12499809025E+03 0.  0.
          2    1    1    2  501    0  0.88573036695E+02 -0.16753322727E+03 -0.19130216128E+03  0.26927510464E+03  0.00000000000E+00 0. -1.
          1    1    1    2  502    0 -0.44532617861E+02 -0.18905665120E+02  0.12919355990E+04  0.12928411233E+04  0.00000000000E+00 0. -1.
         22    1    3    3    0    0 -0.68293522193E+02  0.18134756946E+03  0.28979765980E+02  0.19593563473E+03  0.00000000000E+00 0. -1.
         22    1    3    3    0    0  0.24253103359E+02  0.50913229324E+01  0.32603350366E+02  0.40952570699E+02  0.00000000000E+00 0. -1.
</event>
<event>
 7    1  0.7961130E-006  0.5712375E+02  0.7818608E-02  0.1422478E+00
          2   -1    0    0  502    0  0.00000000000E+00  0.00000000000E+00  0.53270842306E+03  0.53270842306E+03  0.00000000000E+00 0. -1.
          1   -1    0    0  501    0 -0.00000000000E+00 -0.00000000000E+00 -0.43002111772E+03  0.43002111772E+03  0.00000000000E+00 0. -1.
         25    2    1    2    0    0  0.16980580064E+02  0.10886230495E+02 -0.71965588045E+02  0.14564815198E+03  0.12500995240E+03 0.  0.
          2    1    1    2  501    0 -0.22902430453E+02  0.46681640565E+02 -0.31740304614E+03  0.32163393880E+03  0.00000000000E+00 0. -1.
          1    1    1    2  502    0  0.59218503887E+01 -0.57567871061E+02  0.49205593952E+03  0.49544745000E+03  0.00000000000E+00 0. -1.
         22    1    3    3    0    0  0.20858855338E+02 -0.10807306469E+02 -0.10408072532E+03  0.10669904921E+03  0.00000000000E+00 0.  1.
         22    1    3    3    0    0 -0.38782752743E+01  0.21693536964E+02  0.32115137272E+02  0.38949102777E+02  0.00000000000E+00 0.  1.
</event>
<event>
 7    1  0.7961130E-006  0.9375663E+02  0.7818608E-02  0.1361181E+00
          2   -1    0    0  502    0  0.00000000000E+00  0.00000000000E+00  0.82700260268E+03  0.82700260268E+03  0.00000000000E+00 0. -1.
          1   -1    0    0  501    0 -0.00000000000E+00 -0.00000000000E+00 -0.53038855439E+03  0.53038855439E+03  0.00000000000E+00 0. -1.
         25    2    1    2    0    0  0.13519894403E+03  0.49116813732E+02  0.99598764536E+02  0.21501385075E+03  0.12497930332E+03 0.  0.
          2    1    1    2  501    0 -0.85250757928E+02 -0.35435967684E+02 -0.46715537424E+03  0.47619065847E+03  0.00000000000E+00 0. -1.
          1    1    1    2  502    0 -0.49948186107E+02 -0.13680846047E+02  0.66417065799E+03  0.66618664786E+03  0.00000000000E+00 0. -1.
         22    1    3    3    0    0  0.10483797618E+03  0.87141362541E+02  0.94951877154E+02  0.16613391373E+03  0.00000000000E+00 0. -1.
         22    1    3    3    0    0  0.30360967855E+02 -0.38024548809E+02  0.46468873820E+01  0.48879937025E+02  0.00000000000E+00 0. -1.
</event>
<event>
 7    1  0.7961130E-006  0.9801166E+02  0.7818608E-02  0.1451039E+00
          2   -1    0    0  502    0  0.00000000000E+00  0.00000000000E+00  0.11771252096E+04  0.11771252096E+04  0.00000000000E+00 0. -1.
          1   -1    0    0  501    0 -0.00000000000E+00 -0.00000000000E+00 -0.53601393713E+03  0.53601393713E+03  0.00000000000E+00 0. -1.
         25    2    1    2    0    0  0.48578232521E+02 -0.56795707158E+02  0.53561296442E+02  0.15517502165E+03  0.12499951136E+03 0.  0.
          2    1    1    2  501    0  0.18001446944E+02 -0.16554339575E+02 -0.48260990419E+03  0.48322915669E+03  0.00000000000E+00 0. -1.
          1    1    1    2  502    0 -0.66579679465E+02  0.73350046733E+02  0.10701598803E+04  0.10747349684E+04  0.00000000000E+00 0. -1.
         22    1    3    3    0    0 -0.39625161402E+02  0.58835517128E+00  0.76167577277E+01  0.40354858149E+02  0.00000000000E+00 0.  1.
         22    1    3    3    0    0  0.88203393923E+02 -0.57384062329E+02  0.45944538714E+02  0.11482016350E+03  0.00000000000E+00 0.  1.
</event>
<event>
 7    1  0.7961130E-006  0.9445418E+02  0.7818608E-02  0.1348156E+00
          2   -1    0    0  502    0  0.00000000000E+00  0.00000000000E+00  0.24010318151E+04  0.24010318151E+04  0.00000000000E+00 0. -1.
          1   -1    0    0  501    0 -0.00000000000E+00 -0.00000000000E+00 -0.30778009571E+03  0.30778009571E+03  0.00000000000E+00 0. -1.
         25    2    1    2    0    0  0.10526503802E+03  0.88234896229E+02 -0.73425214687E+02  0.19970589749E+03  0.12500023279E+03 0.  0.
          2    1    1    2  501    0 -0.56926328955E+02 -0.73739250740E+01 -0.16542545723E+03  0.17510158080E+03  0.00000000000E+00 0. -1.
          1    1    1    2  502    0 -0.48338709070E+02 -0.80860971155E+02  0.23321023913E+04  0.23340044325E+04  0.00000000000E+00 0. -1.
         22    1    3    3    0    0 -0.54750649172E+01  0.49232695764E+02  0.16070628682E+02  0.52077824208E+02  0.00000000000E+00 0.  1.
         22    1    3    3    0    0  0.11074010294E+03  0.39002200465E+02 -0.89495843369E+02  0.14762807328E+03  0.00000000000E+00 0.  1.
</event>
<event>
 7    1  0.7961130E-006  0.1728862E+03  0.7818608E-02  0.1264264E+00
          2   -1    0    0  502    0  0.00000000000E+00  0.00000000000E+00  0.20750083923E+04  0.20750083923E+04  0.00000000000E+00 0. -1.
          1   -1    0    0  501    0 -0.00000000000E+00 -0.00000000000E+00 -0.14136758850E+04  0.14136758850E+04  0.00000000000E+00 0. -1.
         25    2    1    2    0    0  0.54333687858E+02  0.10730820130E+03  0.11657842470E+03  0.20900648841E+03  0.12500393350E+03 0.  0.
          2    1    1    2  501    0 -0.11836000259E+03 -0.12869175488E+03 -0.13612729957E+04  0.13724557650E+04  0.00000000000E+00 0. -1.
          1    1    1    2  502    0  0.64026314728E+02  0.21383553585E+02  0.19060270783E+04  0.19072220239E+04  0.00000000000E+00 0. -1.
         22    1    3    3    0    0  0.12334585267E+02 -0.15342918149E+02 -0.14650165031E+02  0.24539243397E+02  0.00000000000E+00 0.  1.
         22    1    3    3    0    0  0.41999102591E+02  0.12265111945E+03  0.13122858973E+03  0.18446724501E+03  0.00000000000E+00 0.  1.
</event>
<event>
 7    1  0.7961130E-006  0.3989745E+02  0.7818608E-02  0.1543814E+00
          2   -1    0    0  502    0  0.00000000000E+00  0.00000000000E+00  0.36471746291E+03  0.36471746291E+03  0.00000000000E+00 0. -1.
          1   -1    0    0  501    0 -0.00000000000E+00 -0.00000000000E+00 -0.33725410945E+03  0.33725410945E+03  0.00000000000E+00 0. -1.
         25    2    1    2    0    0 -0.16455548379E+02  0.10727150085E+02 -0.91621982491E+02  0.15622102016E+03  0.12499825056E+03 0.  0.
          2    1    1    2  501    0  0.12216563513E+02  0.29215888336E+02 -0.21093296332E+03  0.21329680629E+03  0.00000000000E+00 0. -1.
          1    1    1    2  502    0  0.42389848658E+01 -0.39943038421E+02  0.33001829928E+03  0.33245374591E+03  0.00000000000E+00 0. -1.
         22    1    3    3    0    0 -0.42347596667E+02 -0.46123871960E+02 -0.57642698159E+02  0.85108232029E+02  0.00000000000E+00 0. -1.
         22    1    3    3    0    0  0.25892048288E+02  0.56851022045E+02 -0.33979284332E+02  0.71112788132E+02  0.00000000000E+00 0. -1.
</event>
<event>
 7    1  0.1080387E-005  0.6517061E+02  0.7818608E-02  0.1389365E+00
          2   -1    0    0  502    0  0.00000000000E+00  0.00000000000E+00  0.29034130263E+04  0.29034130263E+04  0.00000000000E+00 0. -1.
          1   -1    0    0  501    0 -0.00000000000E+00 -0.00000000000E+00 -0.27956461723E+04  0.27956461723E+04  0.00000000000E+00 0. -1.
         25    2    1    2    0    0 -0.11015073528E+03 -0.22429503660E+02 -0.56539170098E+03  0.58985534530E+03  0.12500114291E+03 0.  0.
          2    1    1    2  501    0  0.57078680898E+02 -0.15352154909E+02 -0.22172617662E+04  0.22180494594E+04  0.00000000000E+00 0. -1.
          1    1    1    2  502    0  0.53072054380E+02  0.37781658570E+02  0.28904203211E+04  0.28911543939E+04  0.00000000000E+00 0. -1.
         22    1    3    3    0    0 -0.51014374089E+02  0.71278851859E+01 -0.55594724926E+02  0.75789488390E+02  0.00000000000E+00 0. -1.
         22    1    3    3    0    0 -0.59136361189E+02 -0.29557388846E+02 -0.50979697605E+03  0.51406585691E+03  0.00000000000E+00 0. -1.
</event>
<event>
 7    1  0.7961130E-006  0.1413731E+03  0.7818608E-02  0.1378148E+00
          2   -1    0    0  502    0  0.00000000000E+00  0.00000000000E+00  0.68780247186E+03  0.68780247186E+03  0.00000000000E+00 0. -1.
          1   -1    0    0  501    0 -0.00000000000E+00 -0.00000000000E+00 -0.13185014744E+04  0.13185014744E+04  0.00000000000E+00 0. -1.
         25    2    1    2    0    0 -0.79373668046E+02 -0.14117768191E+03 -0.68760858523E+03  0.71739979643E+03  0.12500233754E+03 0.  0.
          2    1    1    2  501    0 -0.64995983493E+01  0.29126008652E+02 -0.60822305608E+03  0.60895472336E+03  0.00000000000E+00 0. -1.
          1    1    1    2  502    0  0.85873266395E+02  0.11205167325E+03  0.66513263879E+03  0.67994942646E+03  0.00000000000E+00 0. -1.
         22    1    3    3    0    0 -0.74977658304E+02 -0.10491815715E+03 -0.28126502969E+03  0.30941797923E+03  0.00000000000E+00 0. -1.
         22    1    3    3    0    0 -0.43960097421E+01 -0.36259524752E+02 -0.40634355554E+03  0.40798181720E+03  0.00000000000E+00 0. -1.
</event>
<event>
 7    1  0.7961130E-006  0.4339048E+02  0.7818608E-02  0.1562320E+00
          2   -1    0    0  502    0  0.00000000000E+00  0.00000000000E+00  0.34402465371E+03  0.34402465371E+03  0.00000000000E+00 0. -1.
          1   -1    0    0  501    0 -0.00000000000E+00 -0.00000000000E+00 -0.31000533967E+03  0.31000533967E+03  0.00000000000E+00 0. -1.
         25    2    1    2    0    0  0.26070679800E+02  0.39369363113E+02  0.19540194431E+03  0.23672646192E+03  0.12501148282E+03 0.  0.
          2    1    1    2  501    0  0.14064528147E+02 -0.21709379768E+02 -0.28498358556E+03  0.28615511905E+03  0.00000000000E+00 0. -1.
          1    1    1    2  502    0 -0.40135207947E+02 -0.17659983345E+02  0.12360095529E+03  0.13114841241E+03  0.00000000000E+00 0. -1.
         22    1    3    3    0    0  0.26318444200E+02 -0.23188513755E+02  0.16210926834E+03  0.16586073242E+03  0.00000000000E+00 0. -1.
         22    1    3    3    0    0 -0.24776440038E+00  0.62557876868E+02  0.33292675964E+02  0.70865729505E+02  0.00000000000E+00 0. -1.
</event>
<event>
 7    1  0.7961130E-006  0.1819060E+03  0.7818608E-02  0.1393384E+00
          2   -1    0    0  502    0  0.00000000000E+00  0.00000000000E+00  0.58286498597E+03  0.58286498597E+03  0.00000000000E+00 0. -1.
          1   -1    0    0  501    0 -0.00000000000E+00 -0.00000000000E+00 -0.80177200884E+03  0.80177200884E+03  0.00000000000E+00 0. -1.
         25    2    1    2    0    0 -0.15644795444E+03 -0.74761619501E+02  0.85685066244E+02  0.23028709554E+03  0.12499981438E+03 0.  0.
          2    1    1    2  501    0  0.15576734017E+03  0.95254817237E+02 -0.71778774669E+03  0.74064579508E+03  0.00000000000E+00 0. -1.
          1    1    1    2  502    0  0.68061427340E+00 -0.20493197736E+02  0.41319565758E+03  0.41370410420E+03  0.00000000000E+00 0. -1.
         22    1    3    3    0    0 -0.10775530492E+02  0.25354150795E+02 -0.99800151082E+01  0.29300950863E+02  0.00000000000E+00 0.  1.
         22    1    3    3    0    0 -0.14567242395E+03 -0.10011577030E+03  0.95665081353E+02  0.20098614467E+03  0.00000000000E+00 0.  1.
</event>
<event>
 7    1  0.7961130E-006  0.9494840E+02  0.7818608E-02  0.1380875E+00
          2   -1    0    0  502    0  0.00000000000E+00  0.00000000000E+00  0.27849031156E+03  0.27849031156E+03  0.00000000000E+00 0. -1.
          1   -1    0    0  501    0 -0.00000000000E+00 -0.00000000000E+00 -0.47571457936E+03  0.47571457936E+03  0.00000000000E+00 0. -1.
         25    2    1    2    0    0  0.11745980891E+03 -0.24983892452E+02 -0.24787961170E+03  0.30248141793E+03  0.12501881739E+03 0.  0.
          2    1    1    2  501    0 -0.23812899104E+02  0.36350176746E+02 -0.18912541343E+03  0.19405363052E+03  0.00000000000E+00 0. -1.
          1    1    1    2  502    0 -0.93646909807E+02 -0.11366284293E+02  0.23978075733E+03  0.25766984248E+03  0.00000000000E+00 0. -1.
         22    1    3    3    0    0  0.12439288041E+03 -0.58043724964E+02 -0.17723229905E+03  0.22417392920E+03  0.00000000000E+00 0.  1.
         22    1    3    3    0    0 -0.69330715023E+01  0.33059832512E+02 -0.70647312655E+02  0.78307488732E+02  0.00000000000E+00 0.  1.
</event>
<event>
 7    1  0.7961130E-006  0.8263762E+02  0.7818608E-02  0.1417065E+00
          2   -1    0    0  502    0  0.00000000000E+00  0.00000000000E+00  0.19559514220E+03  0.19559514220E+03  0.00000000000E+00 0. -1.
          1   -1    0    0  501    0 -0.00000000000E+00 -0.00000000000E+00 -0.34575979920E+04  0.34575979920E+04  0.00000000000E+00 0. -1.
         25    2    1    2    0    0 -0.68996016312E+02 -0.95610441424E+02 -0.10877036256E+03  0.20336561578E+03  0.12499910054E+03 0.  0.
          2    1    1    2  501    0  0.55627500170E+02  0.60604724956E+02 -0.32986419181E+04  0.32996675371E+04  0.00000000000E+00 0. -1.
          1    1    1    2  502    0  0.13368516143E+02  0.35005716467E+02  0.14540943086E+03  0.15015998133E+03  0.00000000000E+00 0. -1.
         22    1    3    3    0    0  0.19987982161E+02 -0.32187633325E+02  0.12715944621E+02  0.39965715526E+02  0.00000000000E+00 0. -1.
         22    1    3    3    0    0 -0.88983998473E+02 -0.63422808099E+02 -0.12148630718E+03  0.16339990026E+03  0.00000000000E+00 0. -1.
</event>
<event>
 7    1  0.7961130E-006  0.9025394E+02  0.7818608E-02  0.1310376E+00
          2   -1    0    0  502    0  0.00000000000E+00  0.00000000000E+00  0.42273866765E+03  0.42273866765E+03  0.00000000000E+00 0. -1.
          1   -1    0    0  501    0 -0.00000000000E+00 -0.00000000000E+00 -0.25949852627E+03  0.25949852627E+03  0.00000000000E+00 0. -1.
         25    2    1    2    0    0 -0.59438016044E+02  0.88551333859E+02 -0.75233023287E+02  0.18071709419E+03  0.12499777542E+03 0.  0.
          2    1    1    2  501    0 -0.24326893200E+02 -0.90725248664E+02 -0.10911443823E+03  0.14397509892E+03  0.00000000000E+00 0. -1.
          1    1    1    2  502    0  0.83764909244E+02  0.21739148044E+01  0.34758760289E+03  0.35754500082E+03  0.00000000000E+00 0. -1.
         22    1    3    3    0    0  0.79590623258E+01  0.76723857678E+01  0.29933262035E+02  0.31909439866E+02  0.00000000000E+00 0. -1.
         22    1    3    3    0    0 -0.67397078370E+02  0.80878948091E+02 -0.10516628532E+03  0.14880765432E+03  0.00000000000E+00 0. -1.
</event>
<event>
 7    1  0.7961130E-006  0.1072587E+03  0.7818608E-02  0.1334098E+00
          2   -1    0    0  502    0  0.00000000000E+00  0.00000000000E+00  0.14532847436E+04  0.14532847436E+04  0.00000000000E+00 0. -1.
          1   -1    0    0  501    0 -0.00000000000E+00 -0.00000000000E+00 -0.17625221510E+04  0.17625221510E+04  0.00000000000E+00 0. -1.
         25    2    1    2    0    0  0.51577042774E+02 -0.14076595345E+03  0.25790670276E+03  0.32344393164E+03  0.12499945837E+03 0.  0.
          2    1    1    2  501    0 -0.64779015567E+02  0.85229347712E+02 -0.17273947969E+04  0.17307088567E+04  0.00000000000E+00 0. -1.
          1    1    1    2  502    0  0.13201972793E+02  0.55536605742E+02  0.11602506867E+04  0.11616541063E+04  0.00000000000E+00 0. -1.
         22    1    3    3    0    0  0.42193308076E+02 -0.13351100954E+03  0.27145355968E+03  0.30543820975E+03  0.00000000000E+00 0. -1.
         22    1    3    3    0    0  0.93837346976E+01 -0.72549439163E+01 -0.13546856922E+02  0.18005721884E+02  0.00000000000E+00 0. -1.
</event>
<event>
 7    1  0.7961130E-006  0.1293990E+03  0.7818608E-02  0.1390955E+00
          2   -1    0    0  502    0  0.00000000000E+00  0.00000000000E+00  0.77821006199E+03  0.77821006199E+03  0.00000000000E+00 0. -1.
          1   -1    0    0  501    0 -0.00000000000E+00 -0.00000000000E+00 -0.23987191267E+03  0.23987191267E+03  0.00000000000E+00 0. -1.
         25    2    1    2    0    0  0.43569739813E+02 -0.15092158967E+03  0.29440301789E+03  0.35632726969E+03  0.12498134949E+03 0.  0.
          2    1    1    2  501    0 -0.34095531777E+02  0.12309953829E+03 -0.18883948347E+03  0.22798322774E+03  0.00000000000E+00 0. -1.
          1    1    1    2  502    0 -0.94742080357E+01  0.27822051379E+02  0.43277461490E+03  0.43377147723E+03  0.00000000000E+00 0. -1.
         22    1    3    3    0    0 -0.29798909900E+02 -0.57715916113E+02  0.18067949331E+03  0.19200047215E+03  0.00000000000E+00 0.  1.
         22    1    3    3    0    0  0.73368649713E+02 -0.93205673557E+02  0.11372352459E+03  0.16432679754E+03  0.00000000000E+00 0.  1.
</event>
<event>
 7    1  0.7961130E-006  0.8857122E+02  0.7818608E-02  0.1385568E+00
          2   -1    0    0  502    0  0.00000000000E+00  0.00000000000E+00  0.16190414285E+04  0.16190414285E+04  0.00000000000E+00 0. -1.
          1   -1    0    0  501    0 -0.00000000000E+00 -0.00000000000E+00 -0.69142410335E+02  0.69142410335E+02  0.00000000000E+00 0. -1.
         25    2    1    2    0    0  0.56854396334E+02 -0.29433828765E+02  0.48566029650E+02  0.14860070780E+03  0.12499895385E+03 0.  0.
          2    1    1    2  501    0 -0.63762984280E+01 -0.44387872465E+02  0.10481981098E+02  0.46052278243E+02  0.00000000000E+00 0. -1.
          1    1    1    2  502    0 -0.50478097906E+02  0.73821701230E+02  0.14908510075E+04  0.14935308528E+04  0.00000000000E+00 0. -1.
         22    1    3    3    0    0 -0.93506096452E+01 -0.55454914675E+02  0.53068001306E+02  0.77323309713E+02  0.00000000000E+00 0. -1.
         22    1    3    3    0    0  0.66205005979E+02  0.26021085909E+02 -0.45019716563E+01  0.71277398082E+02  0.00000000000E+00 0. -1.
</event>
<event>
 7    1  0.7961130E-006  0.6366282E+02  0.7818608E-02  0.1426896E+00
          2   -1    0    0  502    0  0.00000000000E+00  0.00000000000E+00  0.20151987206E+04  0.20151987206E+04  0.00000000000E+00 0. -1.
          1   -1    0    0  501    0 -0.00000000000E+00 -0.00000000000E+00 -0.16599741680E+04  0.16599741680E+04  0.00000000000E+00 0. -1.
         25    2    1    2    0    0  0.27604681750E+02 -0.40069314053E+02  0.94523455398E+03  0.95470532694E+03  0.12500532336E+03 0.  0.
          2    1    1    2  501    0  0.39577514564E+02  0.21641147243E+02 -0.16537919582E+04  0.16544070116E+04  0.00000000000E+00 0. -1.
          1    1    1    2  502    0 -0.67182196315E+02  0.18428166810E+02  0.10637819568E+04  0.10660605501E+04  0.00000000000E+00 0. -1.
         22    1    3    3    0    0  0.34437874670E+02 -0.77899802213E+02  0.79808944115E+03  0.80262139423E+03  0.00000000000E+00 0. -1.
         22    1    3    3    0    0 -0.68331929197E+01  0.37830488160E+02  0.14714511283E+03  0.15208393271E+03  0.00000000000E+00 0. -1.
</event>
<event>
 7    1  0.7961130E-006  0.1468010E+03  0.7818608E-02  0.1337745E+00
          2   -1    0    0  502    0  0.00000000000E+00  0.00000000000E+00  0.56915257006E+03  0.56915257006E+03  0.00000000000E+00 0. -1.
          1   -1    0    0  501    0 -0.00000000000E+00 -0.00000000000E+00 -0.12648020057E+04  0.12648020057E+04  0.00000000000E+00 0. -1.
         25    2    1    2    0    0 -0.12124513217E+03  0.32844930703E+02 -0.22621823225E+02  0.17864944044E+03  0.12499881654E+03 0.  0.
          2    1    1    2  501    0 -0.98323245983E+01  0.39188122006E+02 -0.11524173143E+04  0.11531253401E+04  0.00000000000E+00 0. -1.
          1    1    1    2  502    0  0.13107745677E+03 -0.72033052709E+02  0.47938970197E+03  0.50217979520E+03  0.00000000000E+00 0. -1.
         22    1    3    3    0    0 -0.12955813510E+03  0.50692695298E+02  0.11138215908E+02  0.13956761652E+03  0.00000000000E+00 0.  1.
         22    1    3    3    0    0  0.83130029308E+01 -0.17847764595E+02 -0.33760039133E+02  0.39081823922E+02  0.00000000000E+00 0.  1.
</event>
<event>
 7    1  0.1085092E-005  0.1250583E+03  0.7818608E-02  0.1325570E+00
          2   -1    0    0  502    0  0.00000000000E+00  0.00000000000E+00  0.11971782413E+04  0.11971782413E+04  0.00000000000E+00 0. -1.
          1   -1    0    0  501    0 -0.00000000000E+00 -0.00000000000E+00 -0.10357708771E+04  0.10357708771E+04  0.00000000000E+00 0. -1.
         25    2    1    2    0    0 -0.10870173029E+03  0.29648835124E+02 -0.11071028247E+03  0.20142801405E+03  0.12498543358E+03 0.  0.
          2    1    1    2  501    0 -0.15097858223E+02 -0.50568420486E+02 -0.87548324513E+03  0.87707241604E+03  0.00000000000E+00 0. -1.
          1    1    1    2  502    0  0.12379958851E+03  0.20919585362E+02  0.11476008918E+04  0.11544486883E+04  0.00000000000E+00 0. -1.
         22    1    3    3    0    0 -0.68347108116E+02 -0.28198022777E+02 -0.46827463644E+01  0.74083627003E+02  0.00000000000E+00 0. -1.
         22    1    3    3    0    0 -0.40354622173E+02  0.57846857901E+02 -0.10602753610E+03  0.12734438705E+03  0.00000000000E+00 0. -1.
</event>
<event>
 7    1  0.7961130E-006  0.4328151E+02  0.7818608E-02  0.1529515E+00
          2   -1    0    0  502    0  0.00000000000E+00  0.00000000000E+00  0.42580109665E+03  0.42580109665E+03  0.00000000000E+00 0. -1.
          1   -1    0    0  501    0 -0.00000000000E+00 -0.00000000000E+00 -0.20542604893E+04  0.20542604893E+04  0.00000000000E+00 0. -1.
         25    2    1    2    0    0 -0.38461566129E+02  0.38249024730E+02 -0.48065427948E+03  0.49959709871E+03  0.12500577865E+03 0.  0.
          2    1    1    2  501    0  0.67240783966E+01 -0.42728986873E+02 -0.15632182929E+04  0.15638166167E+04  0.00000000000E+00 0. -1.
          1    1    1    2  502    0  0.31737487732E+02  0.44799621427E+01  0.41541317968E+03  0.41664787056E+03  0.00000000000E+00 0. -1.
         22    1    3    3    0    0  0.43480245372E+01  0.54852220588E+02 -0.41965854298E+03  0.42325047445E+03  0.00000000000E+00 0.  1.
         22    1    3    3    0    0 -0.42809590666E+02 -0.16603195858E+02 -0.60995736500E+02  0.76346624266E+02  0.00000000000E+00 0.  1.
</event>
<event>
 7    1  0.7961130E-006  0.1002798E+03  0.7818608E-02  0.1398802E+00
          2   -1    0    0  502    0  0.00000000000E+00  0.00000000000E+00  0.28226031400E+03  0.28226031400E+03  0.00000000000E+00 0. -1.
          1   -1    0    0  501    0 -0.00000000000E+00 -0.00000000000E+00 -0.62195632991E+03  0.62195632991E+03  0.00000000000E+00 0. -1.
         25    2    1    2    0    0  0.96747654252E+01 -0.11320875926E+03 -0.21309234318E+03  0.27192606334E+03  0.12500245174E+03 0.  0.
          2    1    1    2  501    0 -0.37440552107E+02  0.90889784642E+02 -0.37177179336E+03  0.38454780487E+03  0.00000000000E+00 0. -1.
          1    1    1    2  502    0  0.27765786681E+02  0.22318974613E+02  0.24516812063E+03  0.24774277570E+03  0.00000000000E+00 0. -1.
         22    1    3    3    0    0 -0.12803486497E+02 -0.13594976891E+03 -0.16502847541E+03  0.21419772788E+03  0.00000000000E+00 0. -1.
         22    1    3    3    0    0  0.22478251923E+02  0.22741009652E+02 -0.48063867775E+02  0.57728335460E+02  0.00000000000E+00 0. -1.
</event>
<event>
 7    1  0.7961130E-006  0.4348095E+02  0.7818608E-02  0.1490625E+00
          2   -1    0    0  502    0  0.00000000000E+00  0.00000000000E+00  0.30829516445E+04  0.30829516445E+04  0.00000000000E+00 0. -1.
          1   -1    0    0  501    0 -0.00000000000E+00 -0.00000000000E+00 -0.10682059987E+04  0.10682059987E+04  0.00000000000E+00 0. -1.
         25    2    1    2    0    0  0.96065999474E+01 -0.16794946903E+02  0.34295728069E+03  0.36553997950E+03  0.12500169291E+03 0.  0.
          2    1    1    2  501    0 -0.42741200844E+02 -0.82389827912E+01 -0.10563083853E+04  0.10572048505E+04  0.00000000000E+00 0. -1.
          1    1    1    2  502    0  0.33134600896E+02  0.25033929694E+02  0.27280967504E+04  0.27284128131E+04  0.00000000000E+00 0. -1.
         22    1    3    3    0    0 -0.21566302928E+02  0.46649742484E+02  0.98965536940E+02  0.11151448963E+03  0.00000000000E+00 0.  1.
         22    1    3    3    0    0  0.31172902875E+02 -0.63444689387E+02  0.24399174375E+03  0.25402548987E+03  0.00000000000E+00 0.  1.
</event>
<event>
 7    1  0.7961130E-006  0.5719207E+02  0.7818608E-02  0.1420295E+00
          2   -1    0    0  502    0  0.00000000000E+00  0.00000000000E+00  0.47952130311E+03  0.47952130311E+03  0.00000000000E+00 0. -1.
          1   -1    0    0  501    0 -0.00000000000E+00 -0.00000000000E+00 -0.31389048953E+03  0.31389048953E+03  0.00000000000E+00 0. -1.
         25    2    1    2    0    0  0.42407243171E+01 -0.13030078306E+02  0.28379986605E+03  0.31041153675E+03  0.12500076596E+03 0.  0.
          2    1    1    2  501    0  0.40552033153E+02  0.41007454378E+02 -0.29389998814E+03  0.29950506129E+03  0.00000000000E+00 0. -1.
          1    1    1    2  502    0 -0.44792757470E+02 -0.27977376071E+02  0.17573093567E+03  0.18349519461E+03  0.00000000000E+00 0. -1.
         22    1    3    3    0    0 -0.59190576151E+02  0.19478148862E+01  0.11258776137E+03  0.12721368754E+03  0.00000000000E+00 0.  1.
         22    1    3    3    0    0  0.63431300468E+02 -0.14977893192E+02  0.17121210468E+03  0.18319784920E+03  0.00000000000E+00 0.  1.
</event>
<event>
 7    1  0.7961130E-006  0.1542005E+03  0.7818608E-02  0.1307886E+00
          2   -1    0    0  502    0  0.00000000000E+00  0.00000000000E+00  0.48614605001E+03  0.48614605001E+03  0.00000000000E+00 0. -1.
          1   -1    0    0  501    0 -0.00000000000E+00 -0.00000000000E+00 -0.11765815327E+04  0.11765815327E+04  0.00000000000E+00 0. -1.
         25    2    1    2    0    0  0.44759627893E+02  0.11374620614E+03  0.68225574439E+02  0.18767479484E+03  0.12500190362E+03 0.  0.
          2    1    1    2  501    0 -0.93796769074E+02 -0.12433074103E+03 -0.11096351514E+04  0.11205115512E+04  0.00000000000E+00 0. -1.
          1    1    1    2  502    0  0.49037141181E+02  0.10584534889E+02  0.35097409433E+03  0.35454123665E+03  0.00000000000E+00 0. -1.
         22    1    3    3    0    0  0.35963615323E+02 -0.17845021554E+02  0.22560312088E+01  0.40210895267E+02  0.00000000000E+00 0. -1.
         22    1    3    3    0    0  0.87960125704E+01  0.13159122769E+03  0.65969543230E+02  0.14746389957E+03  0.00000000000E+00 0. -1.
</event>
<event>
 7    1  0.7961130E-006  0.4203437E+02  0.7818608E-02  0.1584085E+00
          2   -1    0    0  502    0  0.00000000000E+00  0.00000000000E+00  0.81287198393E+03  0.81287198393E+03  0.00000000000E+00 0. -1.
          1   -1    0    0  501    0 -0.00000000000E+00 -0.00000000000E+00 -0.12092503826E+03  0.12092503826E+03  0.00000000000E+00 0. -1.
         25    2    1    2    0    0 -0.24479063092E+02 -0.26887336369E+02  0.18332544452E+03  0.22487910946E+03  0.12506095264E+03 0.  0.
          2    1    1    2  501    0  0.65389963970E+01  0.41779666930E+02 -0.95449125343E+02  0.10439748355E+03  0.00000000000E+00 0. -1.
          1    1    1    2  502    0  0.17940066695E+02 -0.14892330561E+02  0.60407062650E+03  0.60452042918E+03  0.00000000000E+00 0. -1.
         22    1    3    3    0    0 -0.13994330397E+02  0.50366265761E+02  0.74406618642E+02  0.90933750103E+02  0.00000000000E+00 0.  1.
         22    1    3    3    0    0 -0.10484732694E+02 -0.77253602129E+02  0.10891882588E+03  0.13394535936E+03  0.00000000000E+00 0.  1.
</event>
<event>
 7    1  0.7961130E-006  0.9481369E+02  0.7818608E-02  0.1348283E+00
          2   -1    0    0  502    0  0.00000000000E+00  0.00000000000E+00  0.24910278412E+03  0.24910278412E+03  0.00000000000E+00 0. -1.
          1   -1    0    0  501    0 -0.00000000000E+00 -0.00000000000E+00 -0.98350750720E+03  0.98350750720E+03  0.00000000000E+00 0. -1.
         25    2    1    2    0    0 -0.64011639780E+01  0.61061758372E+02  0.26632978694E+02  0.14180359150E+03  0.12501771783E+03 0.  0.
          2    1    1    2  501    0 -0.45650776363E+02 -0.84590100380E+02 -0.91839011502E+03  0.92340667197E+03  0.00000000000E+00 0. -1.
          1    1    1    2  502    0  0.52051940341E+02  0.23528342008E+02  0.15735241325E+03  0.16740002785E+03  0.00000000000E+00 0. -1.
         22    1    3    3    0    0 -0.10090690200E+01  0.70161063558E+02 -0.35596930665E+02  0.78681220966E+02  0.00000000000E+00 0. -1.
         22    1    3    3    0    0 -0.53920949580E+01 -0.90993051861E+01  0.62229909358E+02  0.63122370533E+02  0.00000000000E+00 0. -1.
</event>
<event>
 7    1  0.7961130E-006  0.7398908E+02  0.7818608E-02  0.1459678E+00
          2   -1    0    0  502    0  0.00000000000E+00  0.00000000000E+00  0.24683688717E+02  0.24683688717E+02  0.00000000000E+00 0. -1.
          1   -1    0    0  501    0 -0.00000000000E+00 -0.00000000000E+00 -0.28763818956E+04  0.28763818956E+04  0.00000000000E+00 0. -1.
         25    2    1    2    0    0  0.49256567312E+02 -0.75904367480E+02 -0.91587661891E+03  0.92878441137E+03  0.12499127693E+03 0.  0.
          2    1    1    2  501    0 -0.29905515187E+02  0.55347384002E+01 -0.18803877973E+04  0.18806337340E+04  0.00000000000E+00 0. -1.
          1    1    1    2  502    0 -0.19351052125E+02  0.70369629080E+02 -0.55433790606E+02  0.91647438896E+02  0.00000000000E+00 0. -1.
         22    1    3    3    0    0 -0.83009301888E+01  0.12788204490E+01 -0.56145335982E+03  0.56151617615E+03  0.00000000000E+00 0. -1.
         22    1    3    3    0    0  0.57557497500E+02 -0.77183187929E+02 -0.35442325909E+03  0.36726823522E+03  0.00000000000E+00 0. -1.
</event>
<event>
 7    1  0.7961130E-006  0.1543625E+03  0.7818608E-02  0.1312643E+00
          2   -1    0    0  502    0  0.00000000000E+00  0.00000000000E+00  0.73668291012E+03  0.73668291012E+03  0.00000000000E+00 0. -1.
          1   -1    0    0  501    0 -0.00000000000E+00 -0.00000000000E+00 -0.29903797990E+04  0.29903797990E+04  0.00000000000E+00 0. -1.
         25    2    1    2    0    0  0.18966672517E+03 -0.21766023768E+02  0.15260683178E+02  0.22870399397E+03  0.12500160791E+03 0.  0.
          2    1    1    2  501    0 -0.43967699907E+02 -0.19251691160E+02 -0.28741369173E+04  0.28745376681E+04  0.00000000000E+00 0. -1.
          1    1    1    2  502    0 -0.14569902526E+03  0.41017714928E+02  0.60517934519E+03  0.62382104705E+03  0.00000000000E+00 0. -1.
         22    1    3    3    0    0 -0.16988270907E+02  0.28578299846E+01 -0.85454359480E+01  0.19230003021E+02  0.00000000000E+00 0. -1.
         22    1    3    3    0    0  0.20665499608E+03 -0.24623853753E+02  0.23806119126E+02  0.20947399095E+03  0.00000000000E+00 0. -1.
</event>
<event>
 7    1  0.7961130E-006  0.1499897E+03  0.7818608E-02  0.1278162E+00
          2   -1    0    0  502    0  0.00000000000E+00  0.00000000000E+00  0.91522734351E+03  0.91522734351E+03  0.00000000000E+00 0. -1.
          1   -1    0    0  501    0 -0.00000000000E+00 -0.00000000000E+00 -0.20368155016E+03  0.20368155016E+03  0.00000000000E+00 0. -1.
         25    2    1    2    0    0 -0.27622629243E+02 -0.18540421711E+03  0.88276711702E+02  0.24197993503E+03  0.12499511094E+03 0.  0.
          2    1    1    2  501    0  0.54597082871E+02  0.40603444660E+02 -0.10981995934E+03  0.12918941383E+03  0.00000000000E+00 0. -1.
          1    1    1    2  502    0 -0.26974453628E+02  0.14480077245E+03  0.73308904099E+03  0.74773954481E+03  0.00000000000E+00 0. -1.
         22    1    3    3    0    0 -0.14935961773E+02  0.13429269399E+02 -0.68184229362E+01  0.21211297037E+02  0.00000000000E+00 0. -1.
         22    1    3    3    0    0 -0.12686667471E+02 -0.19883348651E+03  0.95095134639E+02  0.22076863799E+03  0.00000000000E+00 0. -1.
</event>
<event>
 7    1  0.7961130E-006  0.7380977E+02  0.7818608E-02  0.1400624E+00
          2   -1    0    0  502    0  0.00000000000E+00  0.00000000000E+00  0.15096101591E+03  0.15096101591E+03  0.00000000000E+00 0. -1.
          1   -1    0    0  501    0 -0.00000000000E+00 -0.00000000000E+00 -0.24025279032E+03  0.24025279032E+03  0.00000000000E+00 0. -1.
         25    2    1    2    0    0  0.14962988951E+02  0.92038402457E+02 -0.82960149453E+02  0.17664049236E+03  0.12499807430E+03 0.  0.
          2    1    1    2  501    0  0.25369662184E+02 -0.66559387011E+02 -0.92099367412E+02  0.11643051677E+03  0.00000000000E+00 0. -1.
          1    1    1    2  502    0 -0.40332651135E+02 -0.25479015445E+02  0.85767742461E+02  0.98142797100E+02  0.00000000000E+00 0. -1.
         22    1    3    3    0    0  0.44204302158E+02  0.61292930965E+02  0.82746250589E+01  0.76021793819E+02  0.00000000000E+00 0. -1.
         22    1    3    3    0    0 -0.29241313207E+02  0.30745471491E+02 -0.91234774512E+02  0.10061869854E+03  0.00000000000E+00 0. -1.
</event>
<event>
 7    1  0.7961130E-006  0.2388348E+03  0.7818608E-02  0.1241193E+00
          2   -1    0    0  502    0  0.00000000000E+00  0.00000000000E+00  0.23507418192E+03  0.23507418192E+03  0.00000000000E+00 0. -1.
          1   -1    0    0  501    0 -0.00000000000E+00 -0.00000000000E+00 -0.10005587310E+04  0.10005587310E+04  0.00000000000E+00 0. -1.
         25    2    1    2    0    0  0.19189930971E+03 -0.99198550826E+01 -0.52580304453E+02  0.23518626457E+03  0.12499656808E+03 0.  0.
          2    1    1    2  501    0 -0.24492396050E+03  0.41007385296E+02 -0.83100028735E+03  0.86731241756E+03  0.00000000000E+00 0. -1.
          1    1    1    2  502    0  0.53024650784E+02 -0.31087530214E+02  0.11809604268E+03  0.13313423084E+03  0.00000000000E+00 0. -1.
         22    1    3    3    0    0  0.43442589818E+02  0.31638936609E+02  0.28680530706E+02  0.60916777339E+02  0.00000000000E+00 0. -1.
         22    1    3    3    0    0  0.14845671989E+03 -0.41558791692E+02 -0.81260835158E+02  0.17426948723E+03  0.00000000000E+00 0. -1.
</event>
<event>
 7    1  0.7961130E-006  0.1253843E+03  0.7818608E-02  0.1401442E+00
          2   -1    0    0  502    0  0.00000000000E+00  0.00000000000E+00  0.47507363948E+03  0.47507363948E+03  0.00000000000E+00 0. -1.
          1   -1    0    0  501    0 -0.00000000000E+00 -0.00000000000E+00 -0.16208546801E+03  0.16208546801E+03  0.00000000000E+00 0. -1.
         25    2    1    2    0    0  0.10440043720E+03  0.49766876102E+02  0.64156780301E+02  0.18198289183E+03  0.12500194884E+03 0.  0.
          2    1    1    2  501    0 -0.12533536514E+03 -0.31320740365E+02 -0.61858783850E+02  0.14323565084E+03  0.00000000000E+00 0. -1.
          1    1    1    2  502    0  0.20934927942E+02 -0.18446135737E+02  0.31069017502E+03  0.31194056483E+03  0.00000000000E+00 0. -1.
         22    1    3    3    0    0  0.28357411065E+02  0.77632223768E+02  0.57578712854E+02  0.10072841259E+03  0.00000000000E+00 0. -1.
         22    1    3    3    0    0  0.76043026134E+02 -0.27865347666E+02  0.65780674462E+01  0.81254479234E+02  0.00000000000E+00 0. -1.
</event>
<event>
 7    1  0.7961130E-006  0.4732029E+02  0.7818608E-02  0.1561965E+00
          2   -1    0    0  502    0  0.00000000000E+00  0.00000000000E+00  0.12627892520E+04  0.12627892520E+04  0.00000000000E+00 0. -1.
          1   -1    0    0  501    0 -0.00000000000E+00 -0.00000000000E+00 -0.37026195449E+03  0.37026195449E+03  0.00000000000E+00 0. -1.
         25    2    1    2    0    0 -0.29404589866E+02 -0.51051959986E+02  0.17925496006E+03  0.22633644307E+03  0.12499964893E+03 0.  0.
          2    1    1    2  501    0  0.37540703290E+02  0.28715383944E+02 -0.34497639008E+03  0.34819906288E+03  0.00000000000E+00 0. -1.
          1    1    1    2  502    0 -0.81361134235E+01  0.22336576043E+02  0.10582487275E+04  0.10585157005E+04  0.00000000000E+00 0. -1.
         22    1    3    3    0    0 -0.63905281624E+02 -0.11080298564E-01  0.13832085437E+03  0.15236976044E+03  0.00000000000E+00 0. -1.
         22    1    3    3    0    0  0.34500691757E+02 -0.51040879688E+02  0.40934105684E+02  0.73966682629E+02  0.00000000000E+00 0. -1.
</event>
<event>
 7    1  0.7961130E-006  0.1126743E+03  0.7818608E-02  0.1281720E+00
          2   -1    0    0  502    0  0.00000000000E+00  0.00000000000E+00  0.10312854562E+04  0.10312854562E+04  0.00000000000E+00 0. -1.
          1   -1    0    0  501    0 -0.00000000000E+00 -0.00000000000E+00 -0.11506722057E+04  0.11506722057E+04  0.00000000000E+00 0. -1.
         25    2    1    2    0    0 -0.80777152222E+02 -0.22246387919E+02 -0.39206638846E+03  0.41995425119E+03  0.12500268012E+03 0.  0.
          2    1    1    2  501    0  0.11886097237E+03 -0.56596502421E+02 -0.73693375997E+03  0.74860033490E+03  0.00000000000E+00 0. -1.
          1    1    1    2  502    0 -0.38083820153E+02  0.78842890340E+02  0.10096133989E+04  0.10134030758E+04  0.00000000000E+00 0. -1.
         22    1    3    3    0    0  0.24970309643E+02  0.13362821103E+02 -0.30768585085E+02  0.41818502838E+02  0.00000000000E+00 0. -1.
         22    1    3    3    0    0 -0.10574746187E+03 -0.35609209022E+02 -0.36129780338E+03  0.37813574835E+03  0.00000000000E+00 0. -1.
</event>
<event>
 7    1  0.7961130E-006  0.7108471E+02  0.7818608E-02  0.1459080E+00
          2   -1    0    0  502    0  0.00000000000E+00  0.00000000000E+00  0.13881415511E+04  0.13881415511E+04  0.00000000000E+00 0. -1.
          1   -1    0    0  501    0 -0.00000000000E+00 -0.00000000000E+00 -0.11977639661E+04  0.11977639661E+04  0.00000000000E+00 0. -1.
         25    2    1    2    0    0 -0.31630529876E+02 -0.43869887336E+02 -0.29985228167E+03  0.32933115165E+03  0.12499023638E+03 0.  0.
          2    1    1    2  501    0  0.62818448099E+02  0.37692549888E+02 -0.88146851772E+03  0.88450756552E+03  0.00000000000E+00 0. -1.
          1    1    1    2  502    0 -0.31187918224E+02  0.61773374480E+01  0.13716983844E+04  0.13720667999E+04  0.00000000000E+00 0. -1.
         22    1    3    3    0    0 -0.79794990971E+02 -0.22307928304E+02 -0.16830061973E+03  0.18758993270E+03  0.00000000000E+00 0.  1.
         22    1    3    3    0    0  0.48164461096E+02 -0.21561959031E+02 -0.13155166194E+03  0.14174121895E+03  0.00000000000E+00 0.  1.
</event>
<event>
 7    1  0.7961130E-006  0.2139925E+03  0.7818608E-02  0.1186298E+00
          2   -1    0    0  502    0  0.00000000000E+00  0.00000000000E+00  0.27429913727E+03  0.27429913727E+03  0.00000000000E+00 0. -1.
          1   -1    0    0  501    0 -0.00000000000E+00 -0.00000000000E+00 -0.10508570591E+04  0.10508570591E+04  0.00000000000E+00 0. -1.
         25    2    1    2    0    0  0.12301127163E+03  0.19204200283E+02 -0.11488550233E+03  0.21053489290E+03  0.12500275288E+03 0.  0.
          2    1    1    2  501    0 -0.24089191135E+03 -0.53817727851E+02 -0.85258376377E+03  0.88759469074E+03  0.00000000000E+00 0. -1.
          1    1    1    2  502    0  0.11788063972E+03  0.34613527568E+02  0.19091134428E+03  0.22702661273E+03  0.00000000000E+00 0. -1.
         22    1    3    3    0    0 -0.67016746306E+01  0.41321928993E+02 -0.45310027707E+02  0.61688028574E+02  0.00000000000E+00 0.  1.
         22    1    3    3    0    0  0.12971294626E+03 -0.22117728709E+02 -0.69575474624E+02  0.14884686433E+03  0.00000000000E+00 0.  1.
</event>
<event>
 7    1  0.7961130E-006  0.1148917E+03  0.7818608E-02  0.1276299E+00
          2   -1    0    0  502    0  0.00000000000E+00  0.00000000000E+00  0.16010158346E+04  0.16010158346E+04  0.00000000000E+00 0. -1.
          1   -1    0    0  501    0 -0.00000000000E+00 -0.00000000000E+00 -0.17964426520E+03  0.17964426520E+03  0.00000000000E+00 0. -1.
         25    2    1    2    0    0 -0.45812871885E+02 -0.15606687689E+03 -0.88842713359E+01  0.20532768097E+03  0.12499934801E+03 0.  0.
          2    1    1    2  501    0 -0.40431748211E+02  0.80879094853E+02 -0.41248795507E+02  0.99386203159E+02  0.00000000000E+00 0. -1.
          1    1    1    2  502    0  0.86244620095E+02  0.75187782035E+02  0.14715046363E+04  0.14759462157E+04  0.00000000000E+00 0. -1.
         22    1    3    3    0    0 -0.66610009845E+01 -0.14776984222E+03 -0.41575393410E+02  0.15365158164E+03  0.00000000000E+00 0. -1.
         22    1    3    3    0    0 -0.39151870900E+02 -0.82970346714E+01  0.32691122074E+02  0.51676099328E+02  0.00000000000E+00 0. -1.
</event>
<event>
 7    1  0.7961130E-006  0.6846085E+02  0.7818608E-02  0.1400043E+00
          2   -1    0    0  502    0  0.00000000000E+00  0.00000000000E+00  0.90706897923E+03  0.90706897923E+03  0.00000000000E+00 0. -1.
          1   -1    0    0  501    0 -0.00000000000E+00 -0.00000000000E+00 -0.60417653199E+03  0.60417653199E+03  0.00000000000E+00 0. -1.
         25    2    1    2    0    0 -0.24701773737E+02  0.30280561205E+01 -0.67790712997E+02  0.14436257060E+03  0.12500249706E+03 0.  0.
          2    1    1    2  501    0 -0.24472717508E+02  0.45507498890E+02 -0.49538032311E+03  0.49806777739E+03  0.00000000000E+00 0. -1.
          1    1    1    2  502    0  0.49174491245E+02 -0.48535555010E+02  0.86606348334E+03  0.86881516324E+03  0.00000000000E+00 0. -1.
         22    1    3    3    0    0  0.11497842518E+02 -0.62266107676E+00 -0.97014832813E+02  0.97695782279E+02  0.00000000000E+00 0. -1.
         22    1    3    3    0    0 -0.36199616255E+02  0.36507171972E+01  0.29224119815E+02  0.46666788319E+02  0.00000000000E+00 0. -1.
</event>
<event>
 7    1  0.7961130E-006  0.9485150E+02  0.7818608E-02  0.1354750E+00
          2   -1    0    0  502    0  0.00000000000E+00  0.00000000000E+00  0.29388082455E+03  0.29388082455E+03  0.00000000000E+00 0. -1.
          1   -1    0    0  501    0 -0.00000000000E+00 -0.00000000000E+00 -0.10353152467E+04  0.10353152467E+04  0.00000000000E+00 0. -1.
         25    2    1    2    0    0  0.88583659078E+02  0.43306574398E+02 -0.66582441403E+03  0.68459522673E+03  0.12500380035E+03 0.  0.
          2    1    1    2  501    0 -0.38817707380E+02  0.37599017667E+02 -0.35004530552E+03  0.35419234386E+03  0.00000000000E+00 0. -1.
          1    1    1    2  502    0 -0.49765951698E+02 -0.80905592065E+02  0.27443529742E+03  0.29040850064E+03  0.00000000000E+00 0. -1.
         22    1    3    3    0    0  0.67972738212E+02  0.51175885871E+02 -0.18909063499E+03  0.20735123022E+03  0.00000000000E+00 0.  1.
         22    1    3    3    0    0  0.20610920865E+02 -0.78693114731E+01 -0.47673377904E+03  0.47724399651E+03  0.00000000000E+00 0.  1.
</event>
<event>
 7    1  0.8824639E-006  0.4759716E+02  0.7818608E-02  0.1480289E+00
          2   -1    0    0  502    0  0.00000000000E+00  0.00000000000E+00  0.10102521149E+04  0.10102521149E+04  0.00000000000E+00 0. -1.
          1   -1    0    0  501    0 -0.00000000000E+00 -0.00000000000E+00 -0.79999285137E+03  0.79999285137E+03  0.00000000000E+00 0. -1.
         25    2    1    2    0    0  0.77473506125E+02  0.23214261573E+02 -0.47424865184E+03  0.49706802477E+03  0.12499516546E+03 0.  0.
          2    1    1    2  501    0 -0.40277614265E+02  0.64320491356E+01 -0.31244194600E+03  0.31509304513E+03  0.00000000000E+00 0. -1.
          1    1    1    2  502    0 -0.37195891860E+02 -0.29646310708E+02  0.99694986140E+03  0.99808389640E+03  0.00000000000E+00 0. -1.
         22    1    3    3    0    0 -0.23472229587E+01  0.19099410199E+02 -0.34708560601E+01  0.19553612642E+02  0.00000000000E+00 0. -1.
         22    1    3    3    0    0  0.79820729083E+02  0.41148513738E+01 -0.47077779578E+03  0.47751441213E+03  0.00000000000E+00 0. -1.
</event>
<event>
 7    1  0.7961130E-006  0.1887784E+03  0.7818608E-02  0.1306623E+00
          2   -1    0    0  502    0  0.00000000000E+00  0.00000000000E+00  0.39400703951E+03  0.39400703951E+03  0.00000000000E+00 0. -1.
          1   -1    0    0  501    0 -0.00000000000E+00 -0.00000000000E+00 -0.16475167843E+04  0.16475167843E+04  0.00000000000E+00 0. -1.
         25    2    1    2    0    0  0.15856271860E+03 -0.12651556754E+03 -0.48960185094E+03  0.54451262966E+03  0.12504282007E+03 0.  0.
          2    1    1    2  501    0 -0.37485753491E+02 -0.17694267335E+02 -0.11058633860E+04  0.11066400035E+04  0.00000000000E+00 0. -1.
          1    1    1    2  502    0 -0.12107696511E+03  0.14420983487E+03  0.34195549211E+03  0.39037119071E+03  0.00000000000E+00 0. -1.
         22    1    3    3    0    0 -0.84989156877E+01 -0.26934904957E+02 -0.15837579558E+02  0.32381315587E+02  0.00000000000E+00 0.  1.
         22    1    3    3    0    0  0.16706163429E+03 -0.99580662581E+02 -0.47376427138E+03  0.51213131407E+03  0.00000000000E+00 0.  1.
</event>
<event>
 7    1  0.7961130E-006  0.1494389E+03  0.7818608E-02  0.1205573E+00
          2   -1    0    0  502    0  0.00000000000E+00  0.00000000000E+00  0.24071429459E+04  0.24071429459E+04  0.00000000000E+00 0. -1.
          1   -1    0    0  501    0 -0.00000000000E+00 -0.00000000000E+00 -0.18336399837E+03  0.18336399837E+03  0.00000000000E+00 0. -1.
         25    2    1    2    0    0 -0.20278836643E+03 -0.13370559508E+03  0.22872758671E+03  0.35628797378E+03  0.12499801447E+03 0.  0.
          2    1    1    2  501    0  0.55741226854E+02  0.13113695818E+03 -0.73578559016E+02  0.16036767292E+03  0.00000000000E+00 0. -1.
          1    1    1    2  502    0  0.14704713958E+03  0.25686369024E+01  0.20686299198E+04  0.20738512975E+04  0.00000000000E+00 0. -1.
         22    1    3    3    0    0 -0.55525935480E+02 -0.82287419429E+02  0.30094121968E+02  0.10373044435E+03  0.00000000000E+00 0. -1.
         22    1    3    3    0    0 -0.14726243095E+03 -0.51418175655E+02  0.19863346475E+03  0.25255752943E+03  0.00000000000E+00 0. -1.
</event>
<event>
 7    1  0.7961130E-006  0.1459425E+03  0.7818608E-02  0.1379093E+00
          2   -1    0    0  502    0  0.00000000000E+00  0.00000000000E+00  0.60270617174E+03  0.60270617174E+03  0.00000000000E+00 0. -1.
          1   -1    0    0  501    0 -0.00000000000E+00 -0.00000000000E+00 -0.32149635598E+03  0.32149635598E+03  0.00000000000E+00 0. -1.
         25    2    1    2    0    0  0.11484913806E+03 -0.12817253809E+03 -0.12795612582E+03  0.24822326863E+03  0.12499398755E+03 0.  0.
          2    1    1    2  501    0 -0.24067223193E+02  0.15608839258E+02 -0.12207902181E+03  0.12540396589E+03  0.00000000000E+00 0. -1.
          1    1    1    2  502    0 -0.90781914862E+02  0.11256369883E+03  0.53124496339E+03  0.55057529320E+03  0.00000000000E+00 0. -1.
         22    1    3    3    0    0 -0.19138750129E+02 -0.26407107729E+02  0.59963546344E+01  0.33159966285E+02  0.00000000000E+00 0. -1.
         22    1    3    3    0    0  0.13398788818E+03 -0.10176543036E+03 -0.13395248045E+03  0.21506330234E+03  0.00000000000E+00 0. -1.
</event>
<event>
 7    1  0.7961130E-006  0.8581390E+02  0.7818608E-02  0.1366252E+00
          2   -1    0    0  502    0  0.00000000000E+00  0.00000000000E+00  0.91205863467E+03  0.91205863467E+03  0.00000000000E+00 0. -1.
          1   -1    0    0  501    0 -0.00000000000E+00 -0.00000000000E+00 -0.12492085716E+04  0.12492085716E+04  0.00000000000E+00 0. -1.
         25    2    1    2    0    0 -0.11283845504E+03 -0.51373074260E+02 -0.70735108428E+03  0.72893212738E+03  0.12499912083E+03 0.  0.
          2    1    1    2  501    0  0.58632592580E+02  0.49640904327E+02 -0.52746591012E+03  0.53303122482E+03  0.00000000000E+00 0. -1.
          1    1    1    2  502    0  0.54205862458E+02  0.17321699333E+01  0.89766705745E+03  0.89930385408E+03  0.00000000000E+00 0. -1.
         22    1    3    3    0    0 -0.32898100707E+02 -0.25358173315E+02 -0.44893168034E+02  0.61161413654E+02  0.00000000000E+00 0. -1.
         22    1    3    3    0    0 -0.79940354330E+02 -0.26014900945E+02 -0.66245791624E+03  0.66777071373E+03  0.00000000000E+00 0. -1.
</event>
<event>
 7    1  0.7961130E-006  0.5361432E+02  0.7818608E-02  0.1429075E+00
          2   -1    0    0  502    0  0.00000000000E+00  0.00000000000E+00  0.28833373774E+03  0.28833373774E+03  0.00000000000E+00 0. -1.
          1   -1    0    0  501    0 -0.00000000000E+00 -0.00000000000E+00 -0.11673116166E+04  0.11673116166E+04  0.00000000000E+00 0. -1.
         25    2    1    2    0    0 -0.35967216341E+02  0.92379765041E+02 -0.87381279077E+01  0.15977740133E+03  0.12499920583E+03 0.  0.
          2    1    1    2  501    0  0.35523055524E+02 -0.39699501016E+02 -0.10791263266E+04  0.10804404503E+04  0.00000000000E+00 0. -1.
          1    1    1    2  502    0  0.44416081678E+00 -0.52680264025E+02  0.20888657558E+03  0.21542750278E+03  0.00000000000E+00 0. -1.
         22    1    3    3    0    0  0.24793900439E+02  0.17602855906E+01 -0.39275265734E+02  0.46479916123E+02  0.00000000000E+00 0.  1.
         22    1    3    3    0    0 -0.60761116780E+02  0.90619479450E+02  0.30537137826E+02  0.11329748521E+03  0.00000000000E+00 0.  1.
</event>
<event>
 7    1  0.7961130E-006  0.4347093E+02  0.7818608E-02  0.1511622E+00
          2   -1    0    0  502    0  0.00000000000E+00  0.00000000000E+00  0.36117552204E+02  0.36117552204E+02  0.00000000000E+00 0. -1.
          1   -1    0    0  501    0 -0.00000000000E+00 -0.00000000000E+00 -0.18701541694E+04  0.18701541694E+04  0.00000000000E+00 0. -1.
         25    2    1    2    0    0  0.76220893678E+02  0.67413547874E+01 -0.76175887199E+03  0.77572996233E+03  0.12500129960E+03 0.  0.
          2    1    1    2  501    0 -0.41543603976E+02  0.27961441372E+01 -0.10897584414E+04  0.10905535980E+04  0.00000000000E+00 0. -1.
          1    1    1    2  502    0 -0.34677289702E+02 -0.95374989247E+01  0.17480696176E+02  0.39988161319E+02  0.00000000000E+00 0. -1.
         22    1    3    3    0    0 -0.23116195902E+02  0.23532658777E+02 -0.36091738452E+03  0.36242171981E+03  0.00000000000E+00 0.  1.
         22    1    3    3    0    0  0.99337089580E+02 -0.16791303990E+02 -0.40084148747E+03  0.41330824252E+03  0.00000000000E+00 0.  1.
</event>
<event>
 7    1  0.7961130E-006  0.4058525E+02  0.7818608E-02  0.1518223E+00
          2   -1    0    0  502    0  0.00000000000E+00  0.00000000000E+00  0.10681221464E+04  0.10681221464E+04  0.00000000000E+00 0. -1.
          1   -1    0    0  501    0 -0.00000000000E+00 -0.00000000000E+00 -0.36109310653E+03  0.36109310653E+03  0.00000000000E+00 0. -1.
         25    2    1    2    0    0 -0.46583375577E+02 -0.46735670719E+02  0.75244212843E+03  0.76559929087E+03  0.12497553261E+03 0.  0.
          2    1    1    2  501    0  0.35046857778E+02  0.11378382936E+02 -0.35243177615E+03  0.35435279974E+03  0.00000000000E+00 0. -1.
          1    1    1    2  502    0  0.11536517799E+02  0.35357287783E+02  0.30701868758E+03  0.30926316231E+03  0.00000000000E+00 0. -1.
         22    1    3    3    0    0 -0.82271598864E+02 -0.19787497507E+02  0.62144129173E+03  0.62717576492E+03  0.00000000000E+00 0. -1.
         22    1    3    3    0    0  0.35688223287E+02 -0.26948173212E+02  0.13100083670E+03  0.13842352595E+03  0.00000000000E+00 0. -1.
</event>
<event>
 7    1  0.7961130E-006  0.4538133E+02  0.7818608E-02  0.1512391E+00
          2   -1    0    0  502    0  0.00000000000E+00  0.00000000000E+00  0.12429611468E+04  0.12429611468E+04  0.00000000000E+00 0. -1.
          1   -1    0    0  501    0 -0.00000000000E+00 -0.00000000000E+00 -0.42287863503E+03  0.42287863503E+03  0.00000000000E+00 0. -1.
         25    2    1    2    0    0 -0.24245401788E+02  0.47188443435E+02 -0.49575774399E+02  0.14455950889E+03  0.12500042201E+03 0.  0.
          2    1    1    2  501    0  0.41893647926E+02 -0.17809178719E+02 -0.32397376207E+03  0.32715629765E+03  0.00000000000E+00 0. -1.
          1    1    1    2  502    0 -0.17648246138E+02 -0.29379264716E+02  0.11936320482E+04  0.11941239753E+04  0.00000000000E+00 0. -1.
         22    1    3    3    0    0 -0.37192269164E+02  0.26650338231E+02 -0.87955910728E+02  0.99145083818E+02  0.00000000000E+00 0.  1.
         22    1    3    3    0    0  0.12946867376E+02  0.20538105205E+02  0.38380136329E+02  0.45414425075E+02  0.00000000000E+00 0.  1.
</event>
<event>
 7    1  0.7961130E-006  0.4602759E+03  0.7818608E-02  0.1142944E+00
          2   -1    0    0  502    0  0.00000000000E+00  0.00000000000E+00  0.20057207460E+04  0.20057207460E+04  0.00000000000E+00 0. -1.
          1   -1    0    0  501    0 -0.00000000000E+00 -0.00000000000E+00 -0.87573179888E+03  0.87573179888E+03  0.00000000000E+00 0. -1.
         25    2    1    2    0    0 -0.22161861611E+02  0.51976382244E+03  0.13674119089E+03  0.55223985600E+03  0.12500050417E+03 0.  0.
          2    1    1    2  501    0  0.74805831250E+02 -0.44159916304E+03 -0.59134589508E+03  0.74181918338E+03  0.00000000000E+00 0. -1.
          1    1    1    2  502    0 -0.52643969639E+02 -0.78164659396E+02  0.15845936513E+04  0.15873935055E+04  0.00000000000E+00 0. -1.
         22    1    3    3    0    0  0.47929390610E+02  0.16106641800E+03  0.23914526507E+02  0.16973957132E+03  0.00000000000E+00 0. -1.
         22    1    3    3    0    0 -0.70091252221E+02  0.35869740444E+03  0.11282666438E+03  0.38250028468E+03  0.00000000000E+00 0. -1.
</event>
<event>
 7    1  0.7961130E-006  0.2523357E+03  0.7818608E-02  0.1169742E+00
          2   -1    0    0  502    0  0.00000000000E+00  0.00000000000E+00  0.92141028205E+03  0.92141028205E+03  0.00000000000E+00 0. -1.
          1   -1    0    0  501    0 -0.00000000000E+00 -0.00000000000E+00 -0.67433536274E+03  0.67433536274E+03  0.00000000000E+00 0. -1.
         25    2    1    2    0    0 -0.14883345676E+03  0.27604545218E+01 -0.28341025591E+03  0.34366462720E+03  0.12499993949E+03 0.  0.
          2    1    1    2  501    0 -0.99429221451E+02 -0.76705418661E+02 -0.33019246357E+03  0.35326612394E+03  0.00000000000E+00 0. -1.
          1    1    1    2  502    0  0.24826267821E+03  0.73944964139E+02  0.86067763879E+03  0.89881489364E+03  0.00000000000E+00 0. -1.
         22    1    3    3    0    0 -0.30789538202E+02  0.17929973949E+02 -0.18738419834E+03  0.19074149369E+03  0.00000000000E+00 0. -1.
         22    1    3    3    0    0 -0.11804391856E+03 -0.15169519427E+02 -0.96026057571E+02  0.15292313351E+03  0.00000000000E+00 0. -1.
</event>
<event>
 7    1  0.7961130E-006  0.1461349E+03  0.7818608E-02  0.1349057E+00
          2   -1    0    0  502    0  0.00000000000E+00  0.00000000000E+00  0.24242915362E+03  0.24242915362E+03  0.00000000000E+00 0. -1.
          1   -1    0    0  501    0 -0.00000000000E+00 -0.00000000000E+00 -0.17826896590E+04  0.17826896590E+04  0.00000000000E+00 0. -1.
         25    2    1    2    0    0 -0.99608138038E+02 -0.88031255929E+02 -0.38906244220E+03  0.42972206628E+03  0.12498074705E+03 0.  0.
          2    1    1    2  501    0 -0.30885066776E+02  0.20040555552E+02 -0.13486474912E+04  0.13491499423E+04  0.00000000000E+00 0. -1.
          1    1    1    2  502    0  0.13049320481E+03  0.67990700378E+02  0.19744942807E+03  0.24624680401E+03  0.00000000000E+00 0. -1.
         22    1    3    3    0    0 -0.20152961720E+02 -0.49823683936E+02 -0.33361314706E+02  0.63257558173E+02  0.00000000000E+00 0.  1.
         22    1    3    3    0    0 -0.79455176317E+02 -0.38207571993E+02 -0.35570112750E+03  0.36646450811E+03  0.00000000000E+00 0.  1.
</event>
<event>
 7    1  0.7961130E-006  0.3701099E+02  0.7818608E-02  0.1541277E+00
          2   -1    0    0  502    0  0.00000000000E+00  0.00000000000E+00  0.54123011529E+03  0.54123011529E+03  0.00000000000E+00 0. -1.
          1   -1    0    0  501    0 -0.00000000000E+00 -0.00000000000E+00 -0.12167234396E+04  0.12167234396E+04  0.00000000000E+00 0. -1.
         25    2    1    2    0    0  0.10030907043E+02 -0.14135367869E+02 -0.61127619579E+03  0.62416881235E+03  0.12501076374E+03 0.  0.
          2    1    1    2  501    0  0.16723123951E+02  0.36238492066E+02 -0.59777179947E+03  0.59910267519E+03  0.00000000000E+00 0. -1.
          1    1    1    2  502    0 -0.26754030994E+02 -0.22103124197E+02  0.53355467094E+03  0.53468206736E+03  0.00000000000E+00 0. -1.
         22    1    3    3    0    0  0.37898131872E+02  0.38372338383E+01 -0.54987072539E+02  0.66892233550E+02  0.00000000000E+00 0. -1.
         22    1    3    3    0    0 -0.27867224829E+02 -0.17972601707E+02 -0.55628912325E+03  0.55727657880E+03  0.00000000000E+00 0. -1.
</event>
<event>
 7    1  0.7961130E-006  0.7685242E+02  0.7818608E-02  0.1357980E+00
          2   -1    0    0  502    0  0.00000000000E+00  0.00000000000E+00  0.10073250679E+04  0.10073250679E+04  0.00000000000E+00 0. -1.
          1   -1    0    0  501    0 -0.00000000000E+00 -0.00000000000E+00 -0.55909784467E+03  0.55909784467E+03  0.00000000000E+00 0. -1.
         25    2    1    2    0    0  0.12575955191E+03 -0.60387711578E+02  0.59602670954E+02  0.19656266823E+03  0.12498905373E+03 0.  0.
          2    1    1    2  501    0 -0.70972074538E+02  0.25593565124E+02 -0.48650858518E+03  0.49232374449E+03  0.00000000000E+00 0. -1.
          1    1    1    2  502    0 -0.54787477367E+02  0.34794146454E+02  0.87513313750E+03  0.87753649990E+03  0.00000000000E+00 0. -1.
         22    1    3    3    0    0 -0.75423645509E+01 -0.43142172464E+02 -0.10398574021E+02  0.45014049469E+02  0.00000000000E+00 0.  1.
         22    1    3    3    0    0  0.13330191646E+03 -0.17245539114E+02  0.70001244975E+02  0.15154861876E+03  0.00000000000E+00 0.  1.
</event>
<event>
 7    1  0.9917700E-006  0.9956102E+02  0.7818608E-02  0.1306986E+00
          2   -1    0    0  502    0  0.00000000000E+00  0.00000000000E+00  0.11413805593E+04  0.11413805593E+04  0.00000000000E+00 0. -1.
          1   -1    0    0  501    0 -0.00000000000E+00 -0.00000000000E+00 -0.98936808231E+03  0.98936808231E+03  0.00000000000E+00 0. -1.
         25    2    1    2    0    0 -0.14947512752E+03  0.59915296697E+02 -0.13420234277E+03  0.24406532676E+03  0.12499983358E+03 0.  0.
          2    1    1    2  501    0  0.96770075900E+02 -0.19582099317E+01 -0.79588637346E+03  0.80175021149E+03  0.00000000000E+00 0. -1.
          1    1    1    2  502    0  0.52705051625E+02 -0.57957086765E+02  0.10821011932E+04  0.10849331034E+04  0.00000000000E+00 0. -1.
         22    1    3    3    0    0 -0.74311194746E+02  0.28656777427E+02 -0.14145766334E+03  0.16233802720E+03  0.00000000000E+00 0.  1.
         22    1    3    3    0    0 -0.75163932779E+02  0.31258519270E+02  0.72553205694E+01  0.81727299566E+02  0.00000000000E+00 0.  1.
</event>
<event>
 7    1  0.7961130E-006  0.1836967E+03  0.7818608E-02  0.1375008E+00
          2   -1    0    0  502    0  0.00000000000E+00  0.00000000000E+00  0.10578977049E+03  0.10578977049E+03  0.00000000000E+00 0. -1.
          1   -1    0    0  501    0 -0.00000000000E+00 -0.00000000000E+00 -0.15189555242E+04  0.15189555242E+04  0.00000000000E+00 0. -1.
         25    2    1    2    0    0 -0.80430778958E+02  0.14449498495E+03 -0.28743858227E+03  0.35439191696E+03  0.12499912541E+03 0.  0.
          2    1    1    2  501    0  0.84383274823E+02 -0.16772671369E+03 -0.11885330200E+04  0.12032720088E+04  0.00000000000E+00 0. -1.
          1    1    1    2  502    0 -0.39524958650E+01  0.23231728738E+02  0.62805848551E+02  0.67081368918E+02  0.00000000000E+00 0. -1.
         22    1    3    3    0    0 -0.35243944598E+02  0.58058952578E+02 -0.21671342390E+02  0.71292528965E+02  0.00000000000E+00 0. -1.
         22    1    3    3    0    0 -0.45186834360E+02  0.86436032370E+02 -0.26576723988E+03  0.28309938800E+03  0.00000000000E+00 0. -1.
</event>
<event>
 7    1  0.7961130E-006  0.7321315E+02  0.7818608E-02  0.1472589E+00
          2   -1    0    0  502    0  0.00000000000E+00  0.00000000000E+00  0.13482049609E+04  0.13482049609E+04  0.00000000000E+00 0. -1.
          1   -1    0    0  501    0 -0.00000000000E+00 -0.00000000000E+00 -0.24894659544E+03  0.24894659544E+03  0.00000000000E+00 0. -1.
         25    2    1    2    0    0 -0.24936887050E+02  0.85115205523E+02 -0.15506998951E+03  0.21803096617E+03  0.12499741605E+03 0.  0.
          2    1    1    2  501    0  0.25321103831E+02 -0.11967452014E+02 -0.58182846362E+02  0.64572608881E+02  0.00000000000E+00 0. -1.
          1    1    1    2  502    0 -0.38421678080E+00 -0.73147753510E+02  0.13125112014E+04  0.13145479813E+04  0.00000000000E+00 0. -1.
         22    1    3    3    0    0  0.24698923109E+02  0.76455023964E+02 -0.34657457211E+02  0.87501696169E+02  0.00000000000E+00 0.  1.
         22    1    3    3    0    0 -0.49635810159E+02  0.86601815592E+01 -0.12041253229E+03  0.13052927001E+03  0.00000000000E+00 0.  1.
</event>
<event>
 7    1  0.7961130E-006  0.2311465E+03  0.7818608E-02  0.1234139E+00
          2   -1    0    0  502    0  0.00000000000E+00  0.00000000000E+00  0.17702646656E+04  0.17702646656E+04  0.00000000000E+00 0. -1.
          1   -1    0    0  501    0 -0.00000000000E+00 -0.00000000000E+00 -0.91992616902E+03  0.91992616902E+03  0.00000000000E+00 0. -1.
         25    2    1    2    0    0 -0.17680715428E+03  0.69380640222E+02 -0.36143383326E+03  0.42700607304E+03  0.12500131020E+03 0.  0.
          2    1    1    2  501    0 -0.10675945949E+02  0.67404971266E+02 -0.51569839345E+03  0.52019442421E+03  0.00000000000E+00 0. -1.
          1    1    1    2  502    0  0.18748310023E+03 -0.13678561149E+03  0.17274707233E+04  0.17429903374E+04  0.00000000000E+00 0. -1.
         22    1    3    3    0    0 -0.81822334816E+02 -0.32494427394E+02 -0.13558462351E+03  0.16166005201E+03  0.00000000000E+00 0. -1.
         22    1    3    3    0    0 -0.94984819464E+02  0.10187506762E+03 -0.22584920975E+03  0.26534602103E+03  0.00000000000E+00 0. -1.
</event>
<event>
 7    1  0.7961130E-006  0.3425311E+02  0.7818608E-02  0.1555485E+00
          2   -1    0    0  502    0  0.00000000000E+00  0.00000000000E+00  0.52274077483E+03  0.52274077483E+03  0.00000000000E+00 0. -1.
          1   -1    0    0  501    0 -0.00000000000E+00 -0.00000000000E+00 -0.18817748751E+03  0.18817748751E+03  0.00000000000E+00 0. -1.
         25    2    1    2    0    0  0.58999061272E+01 -0.19235866664E+02  0.36297422526E+02  0.13170762941E+03  0.12499827720E+03 0.  0.
          2    1    1    2  501    0 -0.34922434472E+02  0.10433273093E+01 -0.13761762054E+03  0.14198335974E+03  0.00000000000E+00 0. -1.
          1    1    1    2  502    0  0.29022528345E+02  0.18192539354E+02  0.43588348533E+03  0.43722727319E+03  0.00000000000E+00 0. -1.
         22    1    3    3    0    0  0.44407895452E+02 -0.26847844161E+02 -0.26025472745E+02  0.58053364641E+02  0.00000000000E+00 0. -1.
         22    1    3    3    0    0 -0.38507989325E+02  0.76119774977E+01  0.62322895271E+02  0.73654264766E+02  0.00000000000E+00 0. -1.
</event>
<event>
 7    1  0.7961130E-006  0.9164176E+02  0.7818608E-02  0.1340232E+00
          2   -1    0    0  502    0  0.00000000000E+00  0.00000000000E+00  0.51860926098E+03  0.51860926098E+03  0.00000000000E+00 0. -1.
          1   -1    0    0  501    0 -0.00000000000E+00 -0.00000000000E+00 -0.14381470752E+03  0.14381470752E+03  0.00000000000E+00 0. -1.
         25    2    1    2    0    0 -0.76657383072E+02 -0.21373093972E+02  0.23368620041E+03  0.27670848589E+03  0.12500072949E+03 0.  0.
          2    1    1    2  501    0 -0.19327323993E+02  0.60319110154E+02 -0.10278645559E+03  0.12073523080E+03  0.00000000000E+00 0. -1.
          1    1    1    2  502    0  0.95984707066E+02 -0.38946016183E+02  0.24389480864E+03  0.26498025181E+03  0.00000000000E+00 0. -1.
         22    1    3    3    0    0 -0.99823459862E+02 -0.35880411906E+02  0.22375675472E+03  0.24762716406E+03  0.00000000000E+00 0.  1.
         22    1    3    3    0    0  0.23166076790E+02  0.14507317934E+02  0.99294456978E+01  0.29081321830E+02  0.00000000000E+00 0.  1.
</event>
<event>
 7    1  0.7961130E-006  0.1185540E+03  0.7818608E-02  0.1297608E+00
          2   -1    0    0  502    0  0.00000000000E+00  0.00000000000E+00  0.10468375140E+04  0.10468375140E+04  0.00000000000E+00 0. -1.
          1   -1    0    0  501    0 -0.00000000000E+00 -0.00000000000E+00 -0.43981949668E+02  0.43981949668E+02  0.00000000000E+00 0. -1.
         25    2    1    2    0    0 -0.17258558293E+03  0.39142140948E+02  0.43348447412E+03  0.48461450199E+03  0.12499814237E+03 0.  0.
          2    1    1    2  501    0  0.68767946398E+02 -0.20314193224E+02  0.88543777961E+02  0.11393725253E+03  0.00000000000E+00 0. -1.
          1    1    1    2  502    0  0.10381763653E+03 -0.18827947724E+02  0.48082731222E+03  0.49226770913E+03  0.00000000000E+00 0. -1.
         22    1    3    3    0    0 -0.35049210643E+02 -0.29007678332E+02  0.20060643314E+03  0.20570083516E+03  0.00000000000E+00 0.  1.
         22    1    3    3    0    0 -0.13753637229E+03  0.68149819281E+02  0.23287804099E+03  0.27891366683E+03  0.00000000000E+00 0.  1.
</event>
<event>
 7    1  0.7961130E-006  0.5369888E+02  0.7818608E-02  0.1506801E+00
          2   -1    0    0  502    0  0.00000000000E+00  0.00000000000E+00  0.30433095668E+04  0.30433095668E+04  0.00000000000E+00 0. -1.
          1   -1    0    0  501    0 -0.00000000000E+00 -0.00000000000E+00 -0.51856353602E+01  0.51856353602E+01  0.00000000000E+00 0. -1.
         25    2    1    2    0    0  0.79100446834E+01  0.32481455537E+02  0.14190280728E+04  0.14249155169E+04  0.12500377996E+03 0.  0.
          2    1    1    2  501    0  0.26472084930E+02  0.14290191182E+02  0.13338800833E+03  0.13673822293E+03  0.00000000000E+00 0. -1.
          1    1    1    2  502    0 -0.34382129613E+02 -0.46771646719E+02  0.14857078503E+04  0.14868414624E+04  0.00000000000E+00 0. -1.
         22    1    3    3    0    0  0.59799749573E+02  0.13226593217E+01  0.44403705614E+03  0.44804761656E+03  0.00000000000E+00 0. -1.
         22    1    3    3    0    0 -0.51889704889E+02  0.31158796215E+02  0.97499101670E+03  0.97686790033E+03  0.00000000000E+00 0. -1.
</event>
<event>
 7    1  0.7961130E-006  0.7328000E+02  0.7818608E-02  0.1364027E+00
          2   -1    0    0  502    0  0.00000000000E+00  0.00000000000E+00  0.16942786305E+04  0.16942786305E+04  0.00000000000E+00 0. -1.
          1   -1    0    0  501    0 -0.00000000000E+00 -0.00000000000E+00 -0.24725255173E+02  0.24725255173E+02  0.00000000000E+00 0. -1.
         25    2    1    2    0    0  0.23724238272E+02 -0.28929842611E+02  0.30163009371E+03  0.32864129729E+03  0.12499845430E+03 0.  0.
          2    1    1    2  501    0 -0.64256935463E+02  0.79358465849E+02  0.24302848239E+03  0.26360873110E+03  0.00000000000E+00 0. -1.
          1    1    1    2  502    0  0.40532697191E+02 -0.50428623238E+02  0.11248947992E+04  0.11267538573E+04  0.00000000000E+00 0. -1.
         22    1    3    3    0    0  0.61458204157E+02 -0.38519719282E+02  0.10145823541E+03  0.12471829523E+03  0.00000000000E+00 0. -1.
         22    1    3    3    0    0 -0.37733965885E+02  0.95898766703E+01  0.20017185829E+03  0.20392300206E+03  0.00000000000E+00 0. -1.
</event>
<event>
 7    1  0.7961130E-006  0.8990589E+02  0.7818608E-02  0.1480517E+00
          2   -1    0    0  502    0  0.00000000000E+00  0.00000000000E+00  0.79982889985E+03  0.79982889985E+03  0.00000000000E+00 0. -1.
          1   -1    0    0  501    0 -0.00000000000E+00 -0.00000000000E+00 -0.40516116791E+03  0.40516116791E+03  0.00000000000E+00 0. -1.
         25    2    1    2    0    0  0.69723137630E+02 -0.53832456780E+02 -0.35909022616E+03  0.39028809187E+03  0.12497901747E+03 0.  0.
          2    1    1    2  501    0 -0.89915571219E+02  0.46279320979E+02  0.54055125675E+02  0.11466709253E+03  0.00000000000E+00 0. -1.
          1    1    1    2  502    0  0.20192433590E+02  0.75531358004E+01  0.69970283242E+03  0.70003488337E+03  0.00000000000E+00 0. -1.
         22    1    3    3    0    0 -0.22286198671E+01 -0.76384321710E+02 -0.15755394684E+03  0.17510790249E+03  0.00000000000E+00 0.  1.
         22    1    3    3    0    0  0.71951757497E+02  0.22551864931E+02 -0.20153627932E+03  0.21518018938E+03  0.00000000000E+00 0.  1.
</event>
<event>
 7    1  0.7961130E-006  0.1321421E+03  0.7818608E-02  0.1415932E+00
          2   -1    0    0  502    0  0.00000000000E+00  0.00000000000E+00  0.65985692951E+03  0.65985692951E+03  0.00000000000E+00 0. -1.
          1   -1    0    0  501    0 -0.00000000000E+00 -0.00000000000E+00 -0.97869492988E+02  0.97869492988E+02  0.00000000000E+00 0. -1.
         25    2    1    2    0    0  0.66706047322E+01  0.14758243913E+03  0.33735323373E+03  0.38892555500E+03  0.12502323670E+03 0.  0.
          2    1    1    2  501    0 -0.33454194484E+01 -0.23401743500E+02 -0.56607628632E+02  0.61345391428E+02  0.00000000000E+00 0. -1.
          1    1    1    2  502    0 -0.33251852838E+01 -0.12418069563E+03  0.28124183142E+03  0.30745547607E+03  0.00000000000E+00 0. -1.
         22    1    3    3    0    0  0.21607323229E+02  0.15215373146E+03  0.20790595472E+03  0.25853920481E+03  0.00000000000E+00 0.  1.
         22    1    3    3    0    0 -0.14936718496E+02 -0.45712923292E+01  0.12944727901E+03  0.13038635019E+03  0.00000000000E+00 0.  1.
</event>
<event>
 7    1  0.7961130E-006  0.1097484E+03  0.7818608E-02  0.1294319E+00
          2   -1    0    0  502    0  0.00000000000E+00  0.00000000000E+00  0.26958485356E+04  0.26958485356E+04  0.00000000000E+00 0. -1.
          1   -1    0    0  501    0 -0.00000000000E+00 -0.00000000000E+00 -0.32640011960E+03  0.32640011960E+03  0.00000000000E+00 0. -1.
         25    2    1    2    0    0  0.12105027309E+03 -0.69754702357E+02 -0.23534941178E+03  0.30087752570E+03  0.12497620866E+03 0.  0.
          2    1    1    2  501    0 -0.87545413218E+02 -0.27351825257E+01 -0.24429587274E+02  0.90931212096E+02  0.00000000000E+00 0. -1.
          1    1    1    2  502    0 -0.33504859869E+02  0.72489884883E+02  0.26292274150E+04  0.26304399174E+04  0.00000000000E+00 0. -1.
         22    1    3    3    0    0 -0.23244787059E+02 -0.17701147777E+02 -0.16296078007E+02  0.33454639685E+02  0.00000000000E+00 0.  1.
         22    1    3    3    0    0  0.14429506015E+03 -0.52053554580E+02 -0.21905333377E+03  0.26742288601E+03  0.00000000000E+00 0.  1.
</event>
<event>
 7    1  0.7961130E-006  0.5483170E+02  0.7818608E-02  0.1429688E+00
          2   -1    0    0  502    0  0.00000000000E+00  0.00000000000E+00  0.14389014496E+03  0.14389014496E+03  0.00000000000E+00 0. -1.
          1   -1    0    0  501    0 -0.00000000000E+00 -0.00000000000E+00 -0.10620180584E+04  0.10620180584E+04  0.00000000000E+00 0. -1.
         25    2    1    2    0    0 -0.36058177885E+02  0.17076453068E+02  0.36295863925E+02  0.13613901875E+03  0.12499858097E+03 0.  0.
          2    1    1    2  501    0  0.21624055513E+02  0.46490287600E+02 -0.99280227146E+03  0.99412539291E+03  0.00000000000E+00 0. -1.
          1    1    1    2  502    0  0.14434122372E+02 -0.63566740668E+02  0.38378494125E+02  0.75643791676E+02  0.00000000000E+00 0. -1.
         22    1    3    3    0    0 -0.51585637735E+01  0.14111915467E+02 -0.45889576417E+02  0.48286749342E+02  0.00000000000E+00 0.  1.
         22    1    3    3    0    0 -0.30899614112E+02  0.29645376015E+01  0.82185440342E+02  0.87852269405E+02  0.00000000000E+00 0.  1.
</event>
<event>
 7    1  0.7961130E-006  0.8230087E+02  0.7818608E-02  0.1427990E+00
          2   -1    0    0  502    0  0.00000000000E+00  0.00000000000E+00  0.80148347394E+02  0.80148347394E+02  0.00000000000E+00 0. -1.
          1   -1    0    0  501    0 -0.00000000000E+00 -0.00000000000E+00 -0.34349062116E+03  0.34349062116E+03  0.00000000000E+00 0. -1.
         25    2    1    2    0    0  0.70708122627E+01  0.60030609773E+02 -0.17228825845E+03  0.22127291750E+03  0.12499915810E+03 0.  0.
          2    1    1    2  501    0 -0.23887421818E+02  0.25035672405E+02 -0.10852741800E+03  0.11391046603E+03  0.00000000000E+00 0. -1.
          1    1    1    2  502    0  0.16816609555E+02 -0.85066282178E+02  0.17473402675E+02  0.88455585022E+02  0.00000000000E+00 0. -1.
         22    1    3    3    0    0  0.55020405408E+02  0.30576140753E+02 -0.14634310378E+03  0.15930614997E+03  0.00000000000E+00 0.  1.
         22    1    3    3    0    0 -0.47949593145E+02  0.29454469020E+02 -0.25945154669E+02  0.61966767536E+02  0.00000000000E+00 0.  1.
</event>
<event>
 7    1  0.7961130E-006  0.7888530E+02  0.7818608E-02  0.1341338E+00
          2   -1    0    0  502    0  0.00000000000E+00  0.00000000000E+00  0.17765945245E+04  0.17765945245E+04  0.00000000000E+00 0. -1.
          1   -1    0    0  501    0 -0.00000000000E+00 -0.00000000000E+00 -0.80416260778E+02  0.80416260778E+02  0.00000000000E+00 0. -1.
         25    2    1    2    0    0 -0.10798623519E+03 -0.68640345624E+02  0.54399230715E+03  0.57264807928E+03  0.12500267366E+03 0.  0.
          2    1    1    2  501    0  0.32021064441E+02  0.65470318321E+02 -0.44414984070E+02  0.85348708009E+02  0.00000000000E+00 0. -1.
          1    1    1    2  502    0  0.75965170747E+02  0.31700273037E+01  0.11966009406E+04  0.11990139979E+04  0.00000000000E+00 0. -1.
         22    1    3    3    0    0 -0.78284305698E+02 -0.42081815059E+02  0.13444346267E+03  0.16116561771E+03  0.00000000000E+00 0. -1.
         22    1    3    3    0    0 -0.29701929490E+02 -0.26558530565E+02  0.40954884448E+03  0.41148246156E+03  0.00000000000E+00 0. -1.
</event>
<event>
 7    1  0.7961130E-006  0.4812788E+02  0.7818608E-02  0.1457277E+00
          2   -1    0    0  502    0  0.00000000000E+00  0.00000000000E+00  0.61877224196E+03  0.61877224196E+03  0.00000000000E+00 0. -1.
          1   -1    0    0  501    0 -0.00000000000E+00 -0.00000000000E+00 -0.56462854665E+03  0.56462854665E+03  0.00000000000E+00 0. -1.
         25    2    1    2    0    0 -0.72864229679E+02  0.53401761485E+02 -0.80652330722E+01  0.15443677444E+03  0.12499890087E+03 0.  0.
          2    1    1    2  501    0  0.45304922017E+02 -0.14536996978E+02 -0.48116175715E+03  0.48350852814E+03  0.00000000000E+00 0. -1.
          1    1    1    2  502    0  0.27559307662E+02 -0.38864764508E+02  0.54337068552E+03  0.54545548603E+03  0.00000000000E+00 0. -1.
         22    1    3    3    0    0 -0.23591588632E+02 -0.19900345077E+00 -0.60352411596E+02  0.64799816682E+02  0.00000000000E+00 0. -1.
         22    1    3    3    0    0 -0.49272641048E+02  0.53600764936E+02  0.52287178524E+02  0.89636957755E+02  0.00000000000E+00 0. -1.
</event>
<event>
 7    1  0.7961130E-006  0.9037776E+02  0.7818608E-02  0.1468187E+00
          2   -1    0    0  502    0  0.00000000000E+00  0.00000000000E+00  0.99207052107E+03  0.99207052107E+03  0.00000000000E+00 0. -1.
          1   -1    0    0  501    0 -0.00000000000E+00 -0.00000000000E+00 -0.22401092703E+03  0.22401092703E+03  0.00000000000E+00 0. -1.
         25    2    1    2    0    0  0.63457832209E+02  0.26735566139E+02  0.14408629321E+03  0.20280022755E+03  0.12500154174E+03 0.  0.
          2    1    1    2  501    0 -0.82111055789E+02 -0.40887213421E+02 -0.18366853045E+03  0.20530007010E+03  0.00000000000E+00 0. -1.
          1    1    1    2  502    0  0.18653223580E+02  0.14151647282E+02  0.80764183128E+03  0.80798115046E+03  0.00000000000E+00 0. -1.
         22    1    3    3    0    0  0.52733768575E+02  0.51876203760E+02  0.15625582074E+03  0.17288109318E+03  0.00000000000E+00 0. -1.
         22    1    3    3    0    0  0.10724063634E+02 -0.25140637620E+02 -0.12169527532E+02  0.29919134365E+02  0.00000000000E+00 0. -1.
</event>
<event>
 7    1  0.7961130E-006  0.9232663E+02  0.7818608E-02  0.1330668E+00
          2   -1    0    0  502    0  0.00000000000E+00  0.00000000000E+00  0.54515900553E+03  0.54515900553E+03  0.00000000000E+00 0. -1.
          1   -1    0    0  501    0 -0.00000000000E+00 -0.00000000000E+00 -0.51046472962E+03  0.51046472962E+03  0.00000000000E+00 0. -1.
         25    2    1    2    0    0 -0.74855159307E+02  0.92556585903E+02 -0.22138297797E+02  0.17402686273E+03  0.12500091301E+03 0.  0.
          2    1    1    2  501    0  0.68335649250E+02 -0.75798732189E+00 -0.40497902700E+03  0.41070469660E+03  0.00000000000E+00 0. -1.
          1    1    1    2  502    0  0.65195100572E+01 -0.91798598582E+02  0.46181160070E+03  0.47089217583E+03  0.00000000000E+00 0. -1.
         22    1    3    3    0    0 -0.82991656769E+02  0.10063398518E+02 -0.34076999565E+02  0.90278064791E+02  0.00000000000E+00 0.  1.
         22    1    3    3    0    0  0.81364974620E+01  0.82493187386E+02  0.11938701768E+02  0.83748797937E+02  0.00000000000E+00 0.  1.
</event>
<event>
 7    1  0.7961130E-006  0.5288098E+02  0.7818608E-02  0.1477547E+00
          2   -1    0    0  502    0  0.00000000000E+00  0.00000000000E+00  0.10112922284E+04  0.10112922284E+04  0.00000000000E+00 0. -1.
          1   -1    0    0  501    0 -0.00000000000E+00 -0.00000000000E+00 -0.15238852147E+04  0.15238852147E+04  0.00000000000E+00 0. -1.
         25    2    1    2    0    0  0.75229114813E+02  0.42828139408E+02  0.36964425523E+03  0.39968224764E+03  0.12496141171E+03 0.  0.
          2    1    1    2  501    0 -0.35748820229E+02 -0.11096652719E+02 -0.15076099698E+04  0.15080745787E+04  0.00000000000E+00 0. -1.
          1    1    1    2  502    0 -0.39480294583E+02 -0.31731486690E+02  0.62537272829E+03  0.62742061665E+03  0.00000000000E+00 0. -1.
         22    1    3    3    0    0  0.20529799258E+01  0.38926959637E+02  0.28530031492E+03  0.28795102467E+03  0.00000000000E+00 0.  1.
         22    1    3    3    0    0  0.73176134887E+02  0.39011797710E+01  0.84343940309E+02  0.11173122297E+03  0.00000000000E+00 0.  1.
</event>
<event>
 7    1  0.7961130E-006  0.6940053E+02  0.7818608E-02  0.1379021E+00
          2   -1    0    0  502    0  0.00000000000E+00  0.00000000000E+00  0.10381558232E+04  0.10381558232E+04  0.00000000000E+00 0. -1.
          1   -1    0    0  501    0 -0.00000000000E+00 -0.00000000000E+00 -0.33313190029E+03  0.33313190029E+03  0.00000000000E+00 0. -1.
         25    2    1    2    0    0  0.13398611215E+02  0.65432483113E+01  0.65719505681E+02  0.14200887508E+03  0.12500052117E+03 0.  0.
          2    1    1    2  501    0 -0.33912346160E+02 -0.63308724163E+02 -0.28962180564E+03  0.29839375342E+03  0.00000000000E+00 0. -1.
          1    1    1    2  502    0  0.20513734945E+02  0.56765475852E+02  0.92892622284E+03  0.93088509498E+03  0.00000000000E+00 0. -1.
         22    1    3    3    0    0  0.22040938476E+02  0.60118859299E+02  0.11051023732E+02  0.64978499042E+02  0.00000000000E+00 0.  1.
         22    1    3    3    0    0 -0.86423272610E+01 -0.53575610987E+02  0.54668481949E+02  0.77030376033E+02  0.00000000000E+00 0.  1.
</event>
<event>
 7    1  0.7961130E-006  0.3455872E+02  0.7818608E-02  0.1568278E+00
          2   -1    0    0  502    0  0.00000000000E+00  0.00000000000E+00  0.34333154536E+02  0.34333154536E+02  0.00000000000E+00 0. -1.
          1   -1    0    0  501    0 -0.00000000000E+00 -0.00000000000E+00 -0.62817047794E+03  0.62817047794E+03  0.00000000000E+00 0. -1.
         25    2    1    2    0    0 -0.41192120132E+01  0.97655990865E-01 -0.45753899535E+03  0.47432423913E+03  0.12499829644E+03 0.  0.
          2    1    1    2  501    0 -0.31281689753E+02 -0.16609717459E+00 -0.14770877589E+03  0.15098494686E+03  0.00000000000E+00 0. -1.
          1    1    1    2  502    0  0.35400901766E+02  0.68441183721E-01  0.11410447837E+02  0.37194446492E+02  0.00000000000E+00 0. -1.
         22    1    3    3    0    0 -0.41747527276E+02 -0.47373578590E+02 -0.26812215816E+03  0.27545708137E+03  0.00000000000E+00 0. -1.
         22    1    3    3    0    0  0.37628315263E+02  0.47471234581E+02 -0.18941683719E+03  0.19886715776E+03  0.00000000000E+00 0. -1.
</event>
<event>
 7    1  0.7961130E-006  0.4891132E+02  0.7818608E-02  0.1513719E+00
          2   -1    0    0  502    0  0.00000000000E+00  0.00000000000E+00  0.26807569737E+03  0.26807569737E+03  0.00000000000E+00 0. -1.
          1   -1    0    0  501    0 -0.00000000000E+00 -0.00000000000E+00 -0.12989552692E+04  0.12989552692E+04  0.00000000000E+00 0. -1.
         25    2    1    2    0    0 -0.15422693566E+02 -0.76327075541E+02  0.32616180880E+02  0.15086809902E+03  0.12503473961E+03 0.  0.
          2    1    1    2  501    0  0.18809220628E+02  0.44994309022E+02 -0.12379372200E+04  0.12388974273E+04  0.00000000000E+00 0. -1.
          1    1    1    2  502    0 -0.33865270623E+01  0.31332766519E+02  0.17444146726E+03  0.17726544030E+03  0.00000000000E+00 0. -1.
         22    1    3    3    0    0  0.22958095022E+02  0.19841942662E+02  0.36231637321E+02  0.47260008026E+02  0.00000000000E+00 0.  1.
         22    1    3    3    0    0 -0.38380788588E+02 -0.96169018202E+02 -0.36154564417E+01  0.10360809100E+03  0.00000000000E+00 0.  1.
</event>
<event>
 7    1  0.7961130E-006  0.8028104E+02  0.7818608E-02  0.1351828E+00
          2   -1    0    0  502    0  0.00000000000E+00  0.00000000000E+00  0.94450129591E+02  0.94450129591E+02  0.00000000000E+00 0. -1.
          1   -1    0    0  501    0 -0.00000000000E+00 -0.00000000000E+00 -0.17685756008E+04  0.17685756008E+04  0.00000000000E+00 0. -1.
         25    2    1    2    0    0  0.52148781395E+02  0.26684124284E+02 -0.12345270471E+03  0.18520265148E+03  0.12501165515E+03 0.  0.
          2    1    1    2  501    0 -0.14792080850E+02 -0.80429512176E+02 -0.15960724841E+04  0.15981661637E+04  0.00000000000E+00 0. -1.
          1    1    1    2  502    0 -0.37356700545E+02  0.53745387892E+02  0.45399717594E+02  0.79656915286E+02  0.00000000000E+00 0. -1.
         22    1    3    3    0    0  0.72967245620E+02 -0.36370998474E+01 -0.20503347274E+02  0.75880397193E+02  0.00000000000E+00 0. -1.
         22    1    3    3    0    0 -0.20818464225E+02  0.30321224131E+02 -0.10294935743E+03  0.10932225428E+03  0.00000000000E+00 0. -1.
</event>
<event>
 7    1  0.7961130E-006  0.6548272E+02  0.7818608E-02  0.1388993E+00
          2   -1    0    0  502    0  0.00000000000E+00  0.00000000000E+00  0.36242688094E+03  0.36242688094E+03  0.00000000000E+00 0. -1.
          1   -1    0    0  501    0 -0.00000000000E+00 -0.00000000000E+00 -0.36887666764E+03  0.36887666764E+03  0.00000000000E+00 0. -1.
         25    2    1    2    0    0  0.50832463924E+01 -0.38041614675E+02  0.22558714762E+03  0.26074612580E+03  0.12500390837E+03 0.  0.
          2    1    1    2  501    0 -0.63260787568E+01 -0.58661505892E+02 -0.32862183435E+03  0.33387647650E+03  0.00000000000E+00 0. -1.
          1    1    1    2  502    0  0.12428323644E+01  0.96703120567E+02  0.96584900034E+02  0.13668094627E+03  0.00000000000E+00 0. -1.
         22    1    3    3    0    0  0.36661007935E+02  0.28350614974E+02  0.40334480911E+02  0.61438239091E+02  0.00000000000E+00 0. -1.
         22    1    3    3    0    0 -0.31577761543E+02 -0.66392229649E+02  0.18525266671E+03  0.19930788671E+03  0.00000000000E+00 0. -1.
</event>
<event>
 7    1  0.7961130E-006  0.1133192E+03  0.7818608E-02  0.1308412E+00
          2   -1    0    0  502    0  0.00000000000E+00  0.00000000000E+00  0.28397522726E+03  0.28397522726E+03  0.00000000000E+00 0. -1.
          1   -1    0    0  501    0 -0.00000000000E+00 -0.00000000000E+00 -0.82802443449E+03  0.82802443449E+03  0.00000000000E+00 0. -1.
         25    2    1    2    0    0 -0.12879599368E+02 -0.54352020653E+02 -0.54194603633E+03  0.55897294660E+03  0.12500089001E+03 0.  0.
          2    1    1    2  501    0  0.12132052210E+03  0.21461229736E+02 -0.25096692146E+03  0.27957762630E+03  0.00000000000E+00 0. -1.
          1    1    1    2  502    0 -0.10844092273E+03  0.32890790917E+02  0.24886375056E+03  0.27344908885E+03  0.00000000000E+00 0. -1.
         22    1    3    3    0    0 -0.30266716634E+02  0.31214711832E+02 -0.10982186981E+03  0.11811551744E+03  0.00000000000E+00 0.  1.
         22    1    3    3    0    0  0.17387117266E+02 -0.85566732485E+02 -0.43212416652E+03  0.44085742916E+03  0.00000000000E+00 0.  1.
</event>
<event>
 7    1  0.7961130E-006  0.3865551E+02  0.7818608E-02  0.1528877E+00
          2   -1    0    0  502    0  0.00000000000E+00  0.00000000000E+00  0.10062924308E+04  0.10062924308E+04  0.00000000000E+00 0. -1.
          1   -1    0    0  501    0 -0.00000000000E+00 -0.00000000000E+00 -0.16856120330E+04  0.16856120330E+04  0.00000000000E+00 0. -1.
         25    2    1    2    0    0  0.10920609877E+01  0.42805811364E+01  0.37859241614E+02  0.13068183646E+03  0.12499961693E+03 0.  0.
          2    1    1    2  501    0 -0.34768835909E+02 -0.17114524200E+02 -0.16386193871E+04  0.16390775682E+04  0.00000000000E+00 0. -1.
          1    1    1    2  502    0  0.33676774921E+02  0.12833943064E+02  0.92144054329E+03  0.92214505913E+03  0.00000000000E+00 0. -1.
         22    1    3    3    0    0 -0.61675209885E+02  0.31876713699E+01  0.24859617424E+02  0.66573217900E+02  0.00000000000E+00 0. -1.
         22    1    3    3    0    0  0.62767270873E+02  0.10929097665E+01  0.12999624190E+02  0.64108618560E+02  0.00000000000E+00 0. -1.
</event>
<event>
 7    1  0.7961130E-006  0.4336517E+02  0.7818608E-02  0.1490263E+00
          2   -1    0    0  502    0  0.00000000000E+00  0.00000000000E+00  0.63587671041E+03  0.63587671041E+03  0.00000000000E+00 0. -1.
          1   -1    0    0  501    0 -0.00000000000E+00 -0.00000000000E+00 -0.42612523029E+03  0.42612523029E+03  0.00000000000E+00 0. -1.
         25    2    1    2    0    0 -0.50159374803E+02 -0.47111259546E+02  0.25698876454E+02  0.14498616571E+03  0.12500048936E+03 0.  0.
          2    1    1    2  501    0  0.42745538164E+02  0.60307115177E+01 -0.36441443708E+03  0.36696244013E+03  0.00000000000E+00 0. -1.
          1    1    1    2  502    0  0.74138366395E+01  0.41080548028E+02  0.54846704075E+03  0.55005333486E+03  0.00000000000E+00 0. -1.
         22    1    3    3    0    0  0.28805314582E+02 -0.16780843794E+02 -0.29055770342E+02  0.44221947682E+02  0.00000000000E+00 0.  1.
         22    1    3    3    0    0 -0.78964689385E+02 -0.30330415752E+02  0.54754646795E+02  0.10076421803E+03  0.00000000000E+00 0.  1.
</event>
<event>
 7    1  0.7961130E-006  0.1250858E+03  0.7818608E-02  0.1256443E+00
          2   -1    0    0  502    0  0.00000000000E+00  0.00000000000E+00  0.22016933340E+03  0.22016933340E+03  0.00000000000E+00 0. -1.
          1   -1    0    0  501    0 -0.00000000000E+00 -0.00000000000E+00 -0.16808804145E+04  0.16808804145E+04  0.00000000000E+00 0. -1.
         25    2    1    2    0    0 -0.13378325267E+02  0.36720260405E+02 -0.32799242840E+03  0.35317458593E+03  0.12500359173E+03 0.  0.
          2    1    1    2  501    0 -0.92450116667E+02  0.40037107543E+02 -0.13175971532E+04  0.13214432460E+04  0.00000000000E+00 0. -1.
          1    1    1    2  502    0  0.10582844193E+03 -0.76757367948E+02  0.18487850051E+03  0.22643191605E+03  0.00000000000E+00 0. -1.
         22    1    3    3    0    0  0.40742451211E+02 -0.92275587322E+01 -0.44950942696E+02  0.61365156401E+02  0.00000000000E+00 0.  1.
         22    1    3    3    0    0 -0.54120776478E+02  0.45947819137E+02 -0.28304148570E+03  0.29180942952E+03  0.00000000000E+00 0.  1.
</event>
<event>
 7    1  0.7961130E-006  0.5867699E+02  0.7818608E-02  0.1416006E+00
          2   -1    0    0  502    0  0.00000000000E+00  0.00000000000E+00  0.53974065114E+03  0.53974065114E+03  0.00000000000E+00 0. -1.
          1   -1    0    0  501    0 -0.00000000000E+00 -0.00000000000E+00 -0.31962105284E+03  0.31962105284E+03  0.00000000000E+00 0. -1.
         25    2    1    2    0    0  0.10800556875E+02  0.97202106506E+02  0.13643666744E+03  0.20929172333E+03  0.12499263856E+03 0.  0.
          2    1    1    2  501    0  0.20745089274E+02 -0.54355378391E+02 -0.27823968428E+03  0.28425725636E+03  0.00000000000E+00 0. -1.
          1    1    1    2  502    0 -0.31545646150E+02 -0.42846728115E+02  0.36192261514E+03  0.36581272429E+03  0.00000000000E+00 0. -1.
         22    1    3    3    0    0 -0.30952075860E+02  0.78870228245E+01 -0.93637697421E+01  0.33285376862E+02  0.00000000000E+00 0.  1.
         22    1    3    3    0    0  0.41752632735E+02  0.89315083681E+02  0.14580043718E+03  0.17600634646E+03  0.00000000000E+00 0.  1.
</event>
<event>
 7    1  0.7961130E-006  0.8264651E+02  0.7818608E-02  0.1346218E+00
          2   -1    0    0  502    0  0.00000000000E+00  0.00000000000E+00  0.63385838982E+03  0.63385838982E+03  0.00000000000E+00 0. -1.
          1   -1    0    0  501    0 -0.00000000000E+00 -0.00000000000E+00 -0.35035495302E+03  0.35035495302E+03  0.00000000000E+00 0. -1.
         25    2    1    2    0    0 -0.63163861213E+02 -0.65297145306E+02  0.10887597455E+03  0.18902745210E+03  0.12499603699E+03 0.  0.
          2    1    1    2  501    0 -0.20918224975E+02  0.63336477307E+02 -0.30297711630E+03  0.31023251682E+03  0.00000000000E+00 0. -1.
          1    1    1    2  502    0  0.84082086189E+02  0.19606679991E+01  0.47760457854E+03  0.48495337392E+03  0.00000000000E+00 0. -1.
         22    1    3    3    0    0 -0.10131809174E+03 -0.41813215292E+02  0.80545026131E+02  0.13601912337E+03  0.00000000000E+00 0. -1.
         22    1    3    3    0    0  0.38154230530E+02 -0.23483930014E+02  0.28330948422E+02  0.53008328730E+02  0.00000000000E+00 0. -1.
</event>
<event>
 7    1  0.7961130E-006  0.2006043E+03  0.7818608E-02  0.1159552E+00
          2   -1    0    0  502    0  0.00000000000E+00  0.00000000000E+00  0.59554682127E+03  0.59554682127E+03  0.00000000000E+00 0. -1.
          1   -1    0    0  501    0 -0.00000000000E+00 -0.00000000000E+00 -0.16913482974E+04  0.16913482974E+04  0.00000000000E+00 0. -1.
         25    2    1    2    0    0  0.90607053658E+02  0.14290837499E+03 -0.84374509230E+03  0.86957635738E+03  0.12499927490E+03 0.  0.
          2    1    1    2  501    0 -0.24295855774E+03 -0.12405112954E+02 -0.79875340884E+03  0.83497889539E+03  0.00000000000E+00 0. -1.
          1    1    1    2  502    0  0.15235150408E+03 -0.13050326203E+03  0.54669702504E+03  0.58233986587E+03  0.00000000000E+00 0. -1.
         22    1    3    3    0    0  0.83991606013E+02  0.14514867194E+03 -0.84582465472E+03  0.86228885727E+03  0.00000000000E+00 0. -1.
         22    1    3    3    0    0  0.66154476452E+01 -0.22402969508E+01  0.20795624205E+01  0.72875001088E+01  0.00000000000E+00 0. -1.
</event>
<event>
 7    1  0.7961130E-006  0.1766961E+03  0.7818608E-02  0.1229946E+00
          2   -1    0    0  502    0  0.00000000000E+00  0.00000000000E+00  0.16838331055E+04  0.16838331055E+04  0.00000000000E+00 0. -1.
          1   -1    0    0  501    0 -0.00000000000E+00 -0.00000000000E+00 -0.16532497690E+04  0.16532497690E+04  0.00000000000E+00 0. -1.
         25    2    1    2    0    0 -0.70756840183E+02 -0.79393459588E+02 -0.12411414598E+03  0.20576410470E+03  0.12499877476E+03 0.  0.
          2    1    1    2  501    0  0.17491446037E+02 -0.91555579612E+02 -0.14819636874E+04  0.14848921663E+04  0.00000000000E+00 0. -1.
          1    1    1    2  502    0  0.53265394146E+02  0.17094903920E+03  0.16366611697E+04  0.16464266035E+04  0.00000000000E+00 0. -1.
         22    1    3    3    0    0 -0.24225333055E+02  0.28739976611E+02 -0.62404140588E+02  0.72850049964E+02  0.00000000000E+00 0.  1.
         22    1    3    3    0    0 -0.46531507128E+02 -0.10813343620E+03 -0.61710005390E+02  0.13291405473E+03  0.00000000000E+00 0.  1.
</event>
<event>
 7    1  0.7961130E-006  0.8891866E+02  0.7818608E-02  0.1312836E+00
          2   -1    0    0  502    0  0.00000000000E+00  0.00000000000E+00  0.65274679155E+03  0.65274679155E+03  0.00000000000E+00 0. -1.
          1   -1    0    0  501    0 -0.00000000000E+00 -0.00000000000E+00 -0.59377616942E+03  0.59377616942E+03  0.00000000000E+00 0. -1.
         25    2    1    2    0    0 -0.29627999559E+02 -0.31602645831E+02 -0.24791475250E+03  0.28100120634E+03  0.12499363135E+03 0.  0.
          2    1    1    2  501    0  0.11017387879E+03  0.52365697267E+02 -0.31515768445E+03  0.33794203036E+03  0.00000000000E+00 0. -1.
          1    1    1    2  502    0 -0.80545879230E+02 -0.20763051436E+02  0.62204305908E+03  0.62757972427E+03  0.00000000000E+00 0. -1.
         22    1    3    3    0    0 -0.68924846456E+02 -0.53524449100E+02 -0.16602358391E+03  0.18756154064E+03  0.00000000000E+00 0. -1.
         22    1    3    3    0    0  0.39296846897E+02  0.21921803269E+02 -0.81891168587E+02  0.93439665705E+02  0.00000000000E+00 0. -1.
</event>
<event>
 7    1  0.7961130E-006  0.4290407E+02  0.7818608E-02  0.1521282E+00
          2   -1    0    0  502    0  0.00000000000E+00  0.00000000000E+00  0.92952155494E+03  0.92952155494E+03  0.00000000000E+00 0. -1.
          1   -1    0    0  501    0 -0.00000000000E+00 -0.00000000000E+00 -0.31686307921E+03  0.31686307921E+03  0.00000000000E+00 0. -1.
         25    2    1    2    0    0  0.69855909715E+02  0.22625961043E+02 -0.88636820393E+02  0.16992026203E+03  0.12499850912E+03 0.  0.
          2    1    1    2  501    0 -0.34137284508E+02  0.94102660874E+00 -0.18551002431E+03  0.18862716889E+03  0.00000000000E+00 0. -1.
          1    1    1    2  502    0 -0.35718625207E+02 -0.23566987652E+02  0.88680532043E+03  0.88783720323E+03  0.00000000000E+00 0. -1.
         22    1    3    3    0    0  0.35223994000E+02 -0.80803009755E+01 -0.11227584379E+03  0.11794865881E+03  0.00000000000E+00 0. -1.
         22    1    3    3    0    0  0.34631915714E+02  0.30706262019E+02  0.23639023397E+02  0.51971603211E+02  0.00000000000E+00 0. -1.
</event>
<event>
 7    1  0.7961130E-006  0.1147799E+03  0.7818608E-02  0.1325068E+00
          2   -1    0    0  502    0  0.00000000000E+00  0.00000000000E+00  0.34629915269E+04  0.34629915269E+04  0.00000000000E+00 0. -1.
          1   -1    0    0  501    0 -0.00000000000E+00 -0.00000000000E+00 -0.33928301304E+02  0.33928301304E+02  0.00000000000E+00 0. -1.
         25    2    1    2    0    0 -0.63428642183E+02  0.20668343442E+02  0.31125010032E+03  0.34198263420E+03  0.12500049630E+03 0.  0.
          2    1    1    2  501    0 -0.55060009508E+02 -0.17442424582E+02  0.30435915163E+02  0.65285432940E+02  0.00000000000E+00 0. -1.
          1    1    1    2  502    0  0.11848865169E+03 -0.32259188599E+01  0.30873772101E+04  0.30896517611E+04  0.00000000000E+00 0. -1.
         22    1    3    3    0    0 -0.48486264854E+02  0.55098641636E+02  0.28938081231E+03  0.29854318402E+03  0.00000000000E+00 0. -1.
         22    1    3    3    0    0 -0.14942377329E+02 -0.34430298194E+02  0.21869288007E+02  0.43439450180E+02  0.00000000000E+00 0. -1.
</event>
<event>
 7    1  0.7961130E-006  0.1002842E+03  0.7818608E-02  0.1302066E+00
          2   -1    0    0  502    0  0.00000000000E+00  0.00000000000E+00  0.29700995696E+03  0.29700995696E+03  0.00000000000E+00 0. -1.
          1   -1    0    0  501    0 -0.00000000000E+00 -0.00000000000E+00 -0.62359449485E+03  0.62359449485E+03  0.00000000000E+00 0. -1.
         25    2    1    2    0    0 -0.79911541522E+02  0.62370906605E+02 -0.47642571952E+03  0.50287590670E+03  0.12500690725E+03 0.  0.
          2    1    1    2  501    0  0.11826417071E+03  0.93769707666E+01 -0.99884746827E+02  0.15508482938E+03  0.00000000000E+00 0. -1.
          1    1    1    2  502    0 -0.38352629187E+02 -0.71747877371E+02  0.24972592846E+03  0.26264371574E+03  0.00000000000E+00 0. -1.
         22    1    3    3    0    0 -0.43551973726E+02  0.58294453176E+02 -0.94835738806E+02  0.11953591528E+03  0.00000000000E+00 0.  1.
         22    1    3    3    0    0 -0.36359567796E+02  0.40764534290E+01 -0.38158998071E+03  0.38333999142E+03  0.00000000000E+00 0.  1.
</event>
<event>
 7    1  0.7961130E-006  0.5480449E+02  0.7818608E-02  0.1467749E+00
          2   -1    0    0  502    0  0.00000000000E+00  0.00000000000E+00  0.23392186614E+04  0.23392186614E+04  0.00000000000E+00 0. -1.
          1   -1    0    0  501    0 -0.00000000000E+00 -0.00000000000E+00 -0.27241334068E+02  0.27241334068E+02  0.00000000000E+00 0. -1.
         25    2    1    2    0    0  0.78852570708E+02 -0.39168232072E+02  0.89714505081E+03  0.91008060879E+03  0.12500237592E+03 0.  0.
          2    1    1    2  501    0 -0.40306013914E+02  0.35366315937E+02  0.14549671098E+02  0.55561173401E+02  0.00000000000E+00 0. -1.
          1    1    1    2  502    0 -0.38546556794E+02  0.38019161352E+01  0.14002826054E+04  0.14008182132E+04  0.00000000000E+00 0. -1.
         22    1    3    3    0    0 -0.19938784117E+02  0.26238994686E+02  0.14804141908E+03  0.15166509723E+03  0.00000000000E+00 0.  1.
         22    1    3    3    0    0  0.98791354825E+02 -0.65407226758E+02  0.74910363173E+03  0.75841551156E+03  0.00000000000E+00 0.  1.
</event>
<event>
 7    1  0.7961130E-006  0.8002830E+02  0.7818608E-02  0.1356472E+00
          2   -1    0    0  502    0  0.00000000000E+00  0.00000000000E+00  0.29673971755E+03  0.29673971755E+03  0.00000000000E+00 0. -1.
          1   -1    0    0  501    0 -0.00000000000E+00 -0.00000000000E+00 -0.28566144096E+03  0.28566144096E+03  0.00000000000E+00 0. -1.
         25    2    1    2    0    0  0.10889445230E+03  0.48676011735E+01 -0.60790336455E+02  0.17664193116E+03  0.12500084621E+03 0.  0.
          2    1    1    2  501    0 -0.66005025173E+02  0.41449079683E+02 -0.15326445620E+03  0.17194383702E+03  0.00000000000E+00 0. -1.
          1    1    1    2  502    0 -0.42889427129E+02 -0.46316680857E+02  0.22513306925E+03  0.23381539033E+03  0.00000000000E+00 0. -1.
         22    1    3    3    0    0  0.22219805028E+02  0.48787374799E+02  0.12362954048E+02  0.55016091356E+02  0.00000000000E+00 0. -1.
         22    1    3    3    0    0  0.86674647274E+02 -0.43919773626E+02 -0.73153290503E+02  0.12162583980E+03  0.00000000000E+00 0. -1.
</event>
<event>
 7    1  0.7961130E-006  0.3321182E+02  0.7818608E-02  0.1608158E+00
          2   -1    0    0  502    0  0.00000000000E+00  0.00000000000E+00  0.17062715180E+04  0.17062715180E+04  0.00000000000E+00 0. -1.
          1   -1    0    0  501    0 -0.00000000000E+00 -0.00000000000E+00 -0.31892416409E+03  0.31892416409E+03  0.00000000000E+00 0. -1.
         25    2    1    2    0    0 -0.34242967142E+02 -0.25283174130E+02  0.56840139071E+03  0.58354072611E+03  0.12501127300E+03 0.  0.
          2    1    1    2  501    0  0.10696913068E+01  0.25489589296E+02 -0.31058795756E+03  0.31163398849E+03  0.00000000000E+00 0. -1.
          1    1    1    2  502    0  0.33173275835E+02 -0.20641516569E+00  0.11295339207E+04  0.11300209675E+04  0.00000000000E+00 0. -1.
         22    1    3    3    0    0 -0.48136647716E+02  0.81090120165E+01  0.52402031421E+03  0.52628906756E+03  0.00000000000E+00 0.  1.
         22    1    3    3    0    0  0.13893680574E+02 -0.33392186146E+02  0.44381076501E+02  0.57251658552E+02  0.00000000000E+00 0.  1.
</event>
<event>
 7    1  0.7961130E-006  0.7830950E+02  0.7818608E-02  0.1499064E+00
          2   -1    0    0  502    0  0.00000000000E+00  0.00000000000E+00  0.25294021593E+04  0.25294021593E+04  0.00000000000E+00 0. -1.
          1   -1    0    0  501    0 -0.00000000000E+00 -0.00000000000E+00 -0.35743591535E+02  0.35743591535E+02  0.00000000000E+00 0. -1.
         25    2    1    2    0    0 -0.44393504132E+02  0.55638990096E+02  0.17542390761E+03  0.22685788315E+03  0.12499788543E+03 0.  0.
          2    1    1    2  501    0  0.13872847424E+02  0.16751847211E+02  0.32750630831E+01  0.21995597715E+02  0.00000000000E+00 0. -1.
          1    1    1    2  502    0  0.30520656708E+02 -0.72390837307E+02  0.23149595971E+04  0.23162922699E+04  0.00000000000E+00 0. -1.
         22    1    3    3    0    0 -0.75848589459E+02  0.14242053176E+02  0.52354179912E+02  0.93256660651E+02  0.00000000000E+00 0. -1.
         22    1    3    3    0    0  0.31455085327E+02  0.41396936920E+02  0.12306972769E+03  0.13360122250E+03  0.00000000000E+00 0. -1.
</event>
<event>
 7    1  0.7961130E-006  0.5474197E+02  0.7818608E-02  0.1428455E+00
          2   -1    0    0  502    0  0.00000000000E+00  0.00000000000E+00  0.11544284623E+04  0.11544284623E+04  0.00000000000E+00 0. -1.
          1   -1    0    0  501    0 -0.00000000000E+00 -0.00000000000E+00 -0.48081147676E+02  0.48081147676E+02  0.00000000000E+00 0. -1.
         25    2    1    2    0    0 -0.46077952366E+02  0.15208190856E+02  0.42366576586E+03  0.44437882614E+03  0.12500157278E+03 0.  0.
          2    1    1    2  501    0  0.42676284271E+02  0.36520595517E+02 -0.15308472764E+02  0.58218282991E+02  0.00000000000E+00 0. -1.
          1    1    1    2  502    0  0.34016680953E+01 -0.51728786372E+02  0.69799002149E+03  0.69991250081E+03  0.00000000000E+00 0. -1.
         22    1    3    3    0    0  0.35497138396E+02  0.32809971729E+00  0.24316359078E+03  0.24574109621E+03  0.00000000000E+00 0. -1.
         22    1    3    3    0    0 -0.81575090762E+02  0.14880091138E+02  0.18050217508E+03  0.19863772993E+03  0.00000000000E+00 0. -1.
</event>
<event>
 7    1  0.7961130E-006  0.2561463E+03  0.7818608E-02  0.1161908E+00
          2   -1    0    0  502    0  0.00000000000E+00  0.00000000000E+00  0.13744046302E+04  0.13744046302E+04  0.00000000000E+00 0. -1.
          1   -1    0    0  501    0 -0.00000000000E+00 -0.00000000000E+00 -0.13917316511E+04  0.13917316511E+04  0.00000000000E+00 0. -1.
         25    2    1    2    0    0 -0.10159813607E+03 -0.14517203551E+03  0.14460706962E+03  0.26063877790E+03  0.12499706722E+03 0.  0.
          2    1    1    2  501    0 -0.13507898261E+03 -0.92423761919E+01 -0.13131460876E+04  0.13201077230E+04  0.00000000000E+00 0. -1.
          1    1    1    2  502    0  0.23667711868E+03  0.15441441170E+03  0.11512119971E+04  0.11853897804E+04  0.00000000000E+00 0. -1.
         22    1    3    3    0    0 -0.16849251960E+02 -0.78163482866E+02 -0.21210518115E+00  0.79959191679E+02  0.00000000000E+00 0. -1.
         22    1    3    3    0    0 -0.84748884112E+02 -0.67008552641E+02  0.14481917481E+03  0.18067958622E+03  0.00000000000E+00 0. -1.
</event>
<event>
 7    1  0.7961130E-006  0.4670759E+02  0.7818608E-02  0.1498965E+00
          2   -1    0    0  502    0  0.00000000000E+00  0.00000000000E+00  0.53820111660E+03  0.53820111660E+03  0.00000000000E+00 0. -1.
          1   -1    0    0  501    0 -0.00000000000E+00 -0.00000000000E+00 -0.23376571953E+04  0.23376571953E+04  0.00000000000E+00 0. -1.
         25    2    1    2    0    0 -0.55194728783E+02  0.41293343790E+01 -0.85336630622E+02  0.16115597347E+03  0.12500159108E+03 0.  0.
          2    1    1    2  501    0  0.33001660797E+02 -0.33096219283E+02 -0.22134984526E+04  0.22139918403E+04  0.00000000000E+00 0. -1.
          1    1    1    2  502    0  0.22193067986E+02  0.28966884904E+02  0.49937900456E+03  0.50071049807E+03  0.00000000000E+00 0. -1.
         22    1    3    3    0    0 -0.73341453205E+02  0.24889654015E+02 -0.65995418850E+01  0.77730416108E+02  0.00000000000E+00 0. -1.
         22    1    3    3    0    0  0.18146724422E+02 -0.20760319636E+02 -0.78737088737E+02  0.83425557364E+02  0.00000000000E+00 0. -1.
</event>
<event>
 7    1  0.7961130E-006  0.1087956E+03  0.7818608E-02  0.1304979E+00
          2   -1    0    0  502    0  0.00000000000E+00  0.00000000000E+00  0.84874179656E+03  0.84874179656E+03  0.00000000000E+00 0. -1.
          1   -1    0    0  501    0 -0.00000000000E+00 -0.00000000000E+00 -0.13001292218E+04  0.13001292218E+04  0.00000000000E+00 0. -1.
         25    2    1    2    0    0  0.11567479595E+03  0.12353320869E+03  0.10952307399E+03  0.23719532549E+03  0.12500082652E+03 0.  0.
          2    1    1    2  501    0 -0.93658475160E+02 -0.53917022535E+02 -0.12319473082E+04  0.12366782627E+04  0.00000000000E+00 0. -1.
          1    1    1    2  502    0 -0.22016320788E+02 -0.69616186160E+02  0.67103680895E+03  0.67499743016E+03  0.00000000000E+00 0. -1.
         22    1    3    3    0    0  0.56792842948E+02  0.46580317383E+01  0.84931213442E+02  0.10227626942E+03  0.00000000000E+00 0. -1.
         22    1    3    3    0    0  0.58881953000E+02  0.11887517696E+03  0.24591860549E+02  0.13491905607E+03  0.00000000000E+00 0. -1.
</event>
<event>
 7    1  0.7961130E-006  0.1101576E+03  0.7818608E-02  0.1372720E+00
          2   -1    0    0  502    0  0.00000000000E+00  0.00000000000E+00  0.13177407911E+04  0.13177407911E+04  0.00000000000E+00 0. -1.
          1   -1    0    0  501    0 -0.00000000000E+00 -0.00000000000E+00 -0.22400582099E+03  0.22400582099E+03  0.00000000000E+00 0. -1.
         25    2    1    2    0    0 -0.89331308154E+02  0.40782969516E+02 -0.11076056553E+03  0.19374271579E+03  0.12500001531E+03 0.  0.
          2    1    1    2  501    0  0.12098809428E+02  0.38172772457E+02 -0.63573413379E+02  0.75134017830E+02  0.00000000000E+00 0. -1.
          1    1    1    2  502    0  0.77232498726E+02 -0.78955741973E+02  0.12680689490E+04  0.12728698784E+04  0.00000000000E+00 0. -1.
         22    1    3    3    0    0 -0.92275664902E+02  0.74543935602E+02 -0.60598103016E+02  0.13320558080E+03  0.00000000000E+00 0. -1.
         22    1    3    3    0    0  0.29443567483E+01 -0.33760966086E+02 -0.50162462510E+02  0.60537134990E+02  0.00000000000E+00 0. -1.
</event>
<event>
 7    1  0.7961130E-006  0.5209442E+02  0.7818608E-02  0.1444456E+00
          2   -1    0    0  502    0  0.00000000000E+00  0.00000000000E+00  0.16752486216E+04  0.16752486216E+04  0.00000000000E+00 0. -1.
          1   -1    0    0  501    0 -0.00000000000E+00 -0.00000000000E+00 -0.15132320586E+03  0.15132320586E+03  0.00000000000E+00 0. -1.
         25    2    1    2    0    0 -0.77660797102E+01  0.86033797114E+02  0.15267245003E+03  0.21539725370E+03  0.12499989465E+03 0.  0.
          2    1    1    2  501    0 -0.21424394913E+02 -0.43295304591E+02 -0.11462889963E+03  0.12439161036E+03  0.00000000000E+00 0. -1.
          1    1    1    2  502    0  0.29190474623E+02 -0.42738492523E+02  0.14858818653E+04  0.14867829634E+04  0.00000000000E+00 0. -1.
         22    1    3    3    0    0 -0.37796723453E+02 -0.14069109160E+02  0.75099313422E+02  0.85243410377E+02  0.00000000000E+00 0. -1.
         22    1    3    3    0    0  0.30030643743E+02  0.10010290627E+03  0.77573136611E+02  0.13015384332E+03  0.00000000000E+00 0. -1.
</event>
<event>
 7    1  0.7961130E-006  0.2043214E+03  0.7818608E-02  0.1290698E+00
          2   -1    0    0  502    0  0.00000000000E+00  0.00000000000E+00  0.14165209119E+04  0.14165209119E+04  0.00000000000E+00 0. -1.
          1   -1    0    0  501    0 -0.00000000000E+00 -0.00000000000E+00 -0.10043219595E+04  0.10043219595E+04  0.00000000000E+00 0. -1.
         25    2    1    2    0    0  0.18007242478E+03 -0.77664791562E+02  0.96733939126E+02  0.25187411635E+03  0.12500086998E+03 0.  0.
          2    1    1    2  501    0 -0.13075301465E+02 -0.42398333974E+02 -0.91769857786E+03  0.91877051652E+03  0.00000000000E+00 0. -1.
          1    1    1    2  502    0 -0.16699712331E+03  0.12006312554E+03  0.12331635911E+04  0.12501982386E+04  0.00000000000E+00 0. -1.
         22    1    3    3    0    0  0.13027191181E+03 -0.28907567615E+02  0.98290556518E+00  0.13344431264E+03  0.00000000000E+00 0.  1.
         22    1    3    3    0    0  0.49800512964E+02 -0.48757223948E+02  0.95751033561E+02  0.11842980371E+03  0.00000000000E+00 0.  1.
</event>
<event>
 7    1  0.7961130E-006  0.3899595E+02  0.7818608E-02  0.1587005E+00
          2   -1    0    0  502    0  0.00000000000E+00  0.00000000000E+00  0.32461190593E+03  0.32461190593E+03  0.00000000000E+00 0. -1.
          1   -1    0    0  501    0 -0.00000000000E+00 -0.00000000000E+00 -0.46444769558E+03  0.46444769558E+03  0.00000000000E+00 0. -1.
         25    2    1    2    0    0 -0.24037700448E+02 -0.46536172462E+02 -0.42376898723E+02  0.14200026975E+03  0.12499939469E+03 0.  0.
          2    1    1    2  501    0 -0.73322091020E+01  0.23572773289E+02 -0.37047126158E+03  0.37129286633E+03  0.00000000000E+00 0. -1.
          1    1    1    2  502    0  0.31369909550E+02  0.22963399173E+02  0.27301237066E+03  0.27576646543E+03  0.00000000000E+00 0. -1.
         22    1    3    3    0    0 -0.75656962030E+02 -0.26695297723E+02 -0.25045744432E+02  0.84047035274E+02  0.00000000000E+00 0.  1.
         22    1    3    3    0    0  0.51619261582E+02 -0.19840874739E+02 -0.17331154291E+02  0.57953234472E+02  0.00000000000E+00 0.  1.
</event>
<event>
 7    1  0.7961130E-006  0.1529016E+03  0.7818608E-02  0.1203821E+00
          2   -1    0    0  502    0  0.00000000000E+00  0.00000000000E+00  0.67655864997E+03  0.67655864997E+03  0.00000000000E+00 0. -1.
          1   -1    0    0  501    0 -0.00000000000E+00 -0.00000000000E+00 -0.17684838922E+04  0.17684838922E+04  0.00000000000E+00 0. -1.
         25    2    1    2    0    0  0.16486102051E+03  0.45185822390E+02 -0.15577997717E+03  0.26289424106E+03  0.12500026427E+03 0.  0.
          2    1    1    2  501    0 -0.12636826961E+03  0.91412022555E+02 -0.15470926490E+04  0.15549343272E+04  0.00000000000E+00 0. -1.
          1    1    1    2  502    0 -0.38492750906E+02 -0.13659784495E+03  0.61094738393E+03  0.62721397389E+03  0.00000000000E+00 0. -1.
         22    1    3    3    0    0  0.11144889010E+03  0.46262541047E+02 -0.27255761788E+02  0.12370915229E+03  0.00000000000E+00 0.  1.
         22    1    3    3    0    0  0.53412130415E+02 -0.10767186566E+01 -0.12852421538E+03  0.13918508878E+03  0.00000000000E+00 0.  1.
</event>
<event>
 7    1  0.7961130E-006  0.5992174E+02  0.7818608E-02  0.1480160E+00
          2   -1    0    0  502    0  0.00000000000E+00  0.00000000000E+00  0.24005172639E+03  0.24005172639E+03  0.00000000000E+00 0. -1.
          1   -1    0    0  501    0 -0.00000000000E+00 -0.00000000000E+00 -0.22403372751E+03  0.22403372751E+03  0.00000000000E+00 0. -1.
         25    2    1    2    0    0 -0.43424009486E+02  0.76230655617E+02 -0.76214179333E+02  0.17067622399E+03  0.12500005940E+03 0.  0.
          2    1    1    2  501    0  0.42761681699E+01 -0.32145012140E+02 -0.93278670163E+02  0.98754735213E+02  0.00000000000E+00 0. -1.
          1    1    1    2  502    0  0.39147841316E+02 -0.44085643477E+02  0.18551084838E+03  0.19465449470E+03  0.00000000000E+00 0. -1.
         22    1    3    3    0    0 -0.73309584190E+02  0.76655054154E+01 -0.57743107385E+02  0.93633976514E+02  0.00000000000E+00 0.  1.
         22    1    3    3    0    0  0.29885574704E+02  0.68565150202E+02 -0.18471071949E+02  0.77042247478E+02  0.00000000000E+00 0.  1.
</event>
<event>
 7    1  0.7961130E-006  0.4668133E+02  0.7818608E-02  0.1509848E+00
          2   -1    0    0  502    0  0.00000000000E+00  0.00000000000E+00  0.59720222639E+03  0.59720222639E+03  0.00000000000E+00 0. -1.
          1   -1    0    0  501    0 -0.00000000000E+00 -0.00000000000E+00 -0.47341323754E+03  0.47341323754E+03  0.00000000000E+00 0. -1.
         25    2    1    2    0    0  0.17015105809E+02 -0.56087272794E+02  0.21450094459E+03  0.25508884162E+03  0.12499746355E+03 0.  0.
          2    1    1    2  501    0 -0.31724143933E+02  0.11939009536E+02 -0.45098686642E+03  0.45225890255E+03  0.00000000000E+00 0. -1.
          1    1    1    2  502    0  0.14709038125E+02  0.44148263258E+02  0.36027491068E+03  0.36326771976E+03  0.00000000000E+00 0. -1.
         22    1    3    3    0    0 -0.50475629046E+02 -0.32197057884E+02  0.13737867985E+03  0.14985773700E+03  0.00000000000E+00 0.  1.
         22    1    3    3    0    0  0.67490734855E+02 -0.23890214910E+02  0.77122264746E+02  0.10523110462E+03  0.00000000000E+00 0.  1.
</event>
<event>
 7    1  0.7961130E-006  0.6131987E+02  0.7818608E-02  0.1480266E+00
          2   -1    0    0  502    0  0.00000000000E+00  0.00000000000E+00  0.74568200008E+03  0.74568200008E+03  0.00000000000E+00 0. -1.
          1   -1    0    0  501    0 -0.00000000000E+00 -0.00000000000E+00 -0.12164003442E+04  0.12164003442E+04  0.00000000000E+00 0. -1.
         25    2    1    2    0    0  0.60097570154E+02 -0.19009713735E+02 -0.65113904755E+02  0.15441007140E+03  0.12501824828E+03 0.  0.
          2    1    1    2  501    0 -0.41907668310E+02  0.44928870989E+02 -0.11054272989E+04  0.11071334017E+04  0.00000000000E+00 0. -1.
          1    1    1    2  502    0 -0.18189901844E+02 -0.25919157255E+02  0.69982285954E+03  0.70053887114E+03  0.00000000000E+00 0. -1.
         22    1    3    3    0    0 -0.34164470672E+02 -0.27109181528E+02 -0.93994988553E+01  0.44614676488E+02  0.00000000000E+00 0. -1.
         22    1    3    3    0    0  0.94262040826E+02  0.80994677939E+01 -0.55714405900E+02  0.10979539491E+03  0.00000000000E+00 0. -1.
</event>
<event>
 7    1  0.7961130E-006  0.8035813E+02  0.7818608E-02  0.1449805E+00
          2   -1    0    0  502    0  0.00000000000E+00  0.00000000000E+00  0.64666495017E+03  0.64666495017E+03  0.00000000000E+00 0. -1.
          1   -1    0    0  501    0 -0.00000000000E+00 -0.00000000000E+00 -0.31771677938E+03  0.31771677938E+03  0.00000000000E+00 0. -1.
         25    2    1    2    0    0 -0.95019343200E+02 -0.35571830220E+02  0.64080835851E+01  0.16112010968E+03  0.12499838207E+03 0.  0.
          2    1    1    2  501    0  0.28801187799E+02 -0.87498396248E+01 -0.23658248873E+03  0.23848971065E+03  0.00000000000E+00 0. -1.
          1    1    1    2  502    0  0.66218155402E+02  0.44321669845E+02  0.55912257594E+03  0.56477190922E+03  0.00000000000E+00 0. -1.
         22    1    3    3    0    0 -0.10909374262E+03 -0.15485054632E+02  0.41978997245E+02  0.11791296708E+03  0.00000000000E+00 0. -1.
         22    1    3    3    0    0  0.14074399424E+02 -0.20086775588E+02 -0.35570913660E+02  0.43207142595E+02  0.00000000000E+00 0. -1.
</event>
<event>
 7    1  0.7961130E-006  0.2443459E+03  0.7818608E-02  0.1164874E+00
          2   -1    0    0  502    0  0.00000000000E+00  0.00000000000E+00  0.13406882925E+04  0.13406882925E+04  0.00000000000E+00 0. -1.
          1   -1    0    0  501    0 -0.00000000000E+00 -0.00000000000E+00 -0.57053096641E+03  0.57053096641E+03  0.00000000000E+00 0. -1.
         25    2    1    2    0    0 -0.31819895531E+03 -0.11633779057E+03  0.33522731100E+03  0.49273439413E+03  0.12499910577E+03 0.  0.
          2    1    1    2  501    0  0.13536404748E+03 -0.22033094187E+02 -0.46759297857E+03  0.48729054598E+03  0.00000000000E+00 0. -1.
          1    1    1    2  502    0  0.18283490783E+03  0.13837088476E+03  0.90252299368E+03  0.93119431881E+03  0.00000000000E+00 0. -1.
         22    1    3    3    0    0 -0.25589765747E+03 -0.13808559047E+03  0.30055449107E+03  0.41819163489E+03  0.00000000000E+00 0.  1.
         22    1    3    3    0    0 -0.62301297838E+02  0.21747799897E+02  0.34672819936E+02  0.74542759239E+02  0.00000000000E+00 0.  1.
</event>
<event>
 7    1  0.7961130E-006  0.4737759E+02  0.7818608E-02  0.1475525E+00
          2   -1    0    0  502    0  0.00000000000E+00  0.00000000000E+00  0.70250096759E+03  0.70250096759E+03  0.00000000000E+00 0. -1.
          1   -1    0    0  501    0 -0.00000000000E+00 -0.00000000000E+00 -0.11389966478E+03  0.11389966478E+03  0.00000000000E+00 0. -1.
         25    2    1    2    0    0 -0.40653751108E+02 -0.51528580629E+02  0.18973034161E+03  0.23649788492E+03  0.12500289974E+03 0.  0.
          2    1    1    2  501    0 -0.55726090121E+01  0.42015557307E+02 -0.84340970745E+02  0.94391527021E+02  0.00000000000E+00 0. -1.
          1    1    1    2  502    0  0.46226360121E+02  0.95130233220E+01  0.48321193195E+03  0.48551122042E+03  0.00000000000E+00 0. -1.
         22    1    3    3    0    0  0.38565355018E+02 -0.46521345699E+02  0.65904853875E+02  0.89414607182E+02  0.00000000000E+00 0. -1.
         22    1    3    3    0    0 -0.79219106126E+02 -0.50072349302E+01  0.12382548774E+03  0.14708327774E+03  0.00000000000E+00 0. -1.
</event>
<event>
 7    1  0.7961130E-006  0.7529880E+02  0.7818608E-02  0.1403878E+00
          2   -1    0    0  502    0  0.00000000000E+00  0.00000000000E+00  0.11413532881E+04  0.11413532881E+04  0.00000000000E+00 0. -1.
          1   -1    0    0  501    0 -0.00000000000E+00 -0.00000000000E+00 -0.67896930964E+03  0.67896930964E+03  0.00000000000E+00 0. -1.
         25    2    1    2    0    0  0.93583716606E+02 -0.53085551307E+02  0.23519672757E+03  0.28725995157E+03  0.12499916537E+03 0.  0.
          2    1    1    2  501    0 -0.45491539408E+02 -0.27968163859E+01 -0.65059503027E+03  0.65218953975E+03  0.00000000000E+00 0. -1.
          1    1    1    2  502    0 -0.48092177198E+02  0.55882367693E+02  0.87778228115E+03  0.88087310643E+03  0.00000000000E+00 0. -1.
         22    1    3    3    0    0  0.54760772367E+02 -0.49692517877E+02  0.32366425382E+02  0.80719725069E+02  0.00000000000E+00 0.  1.
         22    1    3    3    0    0  0.38822944239E+02 -0.33930334298E+01  0.20283030219E+03  0.20654022650E+03  0.00000000000E+00 0.  1.
</event>
<event>
 7    1  0.7961130E-006  0.5516935E+02  0.7818608E-02  0.1471469E+00
          2   -1    0    0  502    0  0.00000000000E+00  0.00000000000E+00  0.23269604384E+04  0.23269604384E+04  0.00000000000E+00 0. -1.
          1   -1    0    0  501    0 -0.00000000000E+00 -0.00000000000E+00 -0.65724366717E+02  0.65724366717E+02  0.00000000000E+00 0. -1.
         25    2    1    2    0    0 -0.39027474750E+02  0.19767651659E+02  0.55096833744E+03  0.56666159710E+03  0.12500141171E+03 0.  0.
          2    1    1    2  501    0  0.19956128281E+02 -0.52015452855E+02 -0.44224323886E+02  0.71131183140E+02  0.00000000000E+00 0. -1.
          1    1    1    2  502    0  0.19071346469E+02  0.32247801196E+02  0.17544920581E+04  0.17548920249E+04  0.00000000000E+00 0. -1.
         22    1    3    3    0    0  0.43283644671E+02 -0.85126668057E+01  0.14976342668E+03  0.15612502478E+03  0.00000000000E+00 0.  1.
         22    1    3    3    0    0 -0.82311119421E+02  0.28280318464E+02  0.40120491076E+03  0.41053657232E+03  0.00000000000E+00 0.  1.
</event>
<event>
 7    1  0.7961130E-006  0.1027155E+03  0.7818608E-02  0.1342809E+00
          2   -1    0    0  502    0  0.00000000000E+00  0.00000000000E+00  0.14045756622E+04  0.14045756622E+04  0.00000000000E+00 0. -1.
          1   -1    0    0  501    0 -0.00000000000E+00 -0.00000000000E+00 -0.40226739125E+02  0.40226739125E+02  0.00000000000E+00 0. -1.
         25    2    1    2    0    0  0.42223901205E+02  0.68754870574E+02  0.65291191818E+03  0.66964942335E+03  0.12500514883E+03 0.  0.
          2    1    1    2  501    0 -0.25382791810E+01 -0.10721855299E+03  0.63037758736E+02  0.12440265267E+03  0.00000000000E+00 0. -1.
          1    1    1    2  502    0 -0.39685622024E+02  0.38463682412E+02  0.64839924620E+03  0.65075032534E+03  0.00000000000E+00 0. -1.
         22    1    3    3    0    0 -0.23272835304E+02 -0.12514783789E+02  0.31199533998E+03  0.31311233902E+03  0.00000000000E+00 0.  1.
         22    1    3    3    0    0  0.65496736509E+02  0.81269654363E+02  0.34091657820E+03  0.35653708434E+03  0.00000000000E+00 0.  1.
</event>
<event>
 7    1  0.7961130E-006  0.1314944E+03  0.7818608E-02  0.1241329E+00
          2   -1    0    0  502    0  0.00000000000E+00  0.00000000000E+00  0.54472627397E+02  0.54472627397E+02  0.00000000000E+00 0. -1.
          1   -1    0    0  501    0 -0.00000000000E+00 -0.00000000000E+00 -0.14543233153E+04  0.14543233153E+04  0.00000000000E+00 0. -1.
         25    2    1    2    0    0 -0.10101819134E+03 -0.11599797106E+03 -0.97739002901E+03  0.99728374400E+03  0.12499357175E+03 0.  0.
          2    1    1    2  501    0 -0.97196954260E+01  0.12890382896E+03 -0.36263612880E+03  0.38498783294E+03  0.00000000000E+00 0. -1.
          1    1    1    2  502    0  0.11073788677E+03 -0.12905857899E+02 -0.59824530133E+02  0.12652436579E+03  0.00000000000E+00 0. -1.
         22    1    3    3    0    0 -0.35185934724E+02  0.17931113615E+01 -0.49855914481E+03  0.49980244710E+03  0.00000000000E+00 0.  1.
         22    1    3    3    0    0 -0.65832256616E+02 -0.11779108242E+03 -0.47883088419E+03  0.49748129690E+03  0.00000000000E+00 0.  1.
</event>
<event>
 7    1  0.7961130E-006  0.7983321E+02  0.7818608E-02  0.1340039E+00
          2   -1    0    0  502    0  0.00000000000E+00  0.00000000000E+00  0.12734114240E+04  0.12734114240E+04  0.00000000000E+00 0. -1.
          1   -1    0    0  501    0 -0.00000000000E+00 -0.00000000000E+00 -0.44571312267E+02  0.44571312267E+02  0.00000000000E+00 0. -1.
         25    2    1    2    0    0 -0.66845647045E+01 -0.14416480260E+02  0.41872859411E+03  0.43727526460E+03  0.12499401265E+03 0.  0.
          2    1    1    2  501    0  0.47107712149E+02  0.74998600490E+02  0.24726495742E+02  0.91952847759E+02  0.00000000000E+00 0. -1.
          1    1    1    2  502    0 -0.40423147444E+02 -0.60582120229E+02  0.78538502189E+03  0.78875462391E+03  0.00000000000E+00 0. -1.
         22    1    3    3    0    0  0.39597392153E+02  0.36732837793E+02  0.13793221092E+03  0.14813017804E+03  0.00000000000E+00 0.  1.
         22    1    3    3    0    0 -0.46281956858E+02 -0.51149318053E+02  0.28079638319E+03  0.28914508656E+03  0.00000000000E+00 0.  1.
</event>
<event>
 7    1  0.7961130E-006  0.6566783E+02  0.7818608E-02  0.1424633E+00
          2   -1    0    0  502    0  0.00000000000E+00  0.00000000000E+00  0.98572458101E+03  0.98572458101E+03  0.00000000000E+00 0. -1.
          1   -1    0    0  501    0 -0.00000000000E+00 -0.00000000000E+00 -0.53350168536E+03  0.53350168536E+03  0.00000000000E+00 0. -1.
         25    2    1    2    0    0 -0.12184407690E+01  0.53952717862E+02  0.69962659644E+03  0.71275139223E+03  0.12499916926E+03 0.  0.
          2    1    1    2  501    0  0.41632721248E+02  0.15692251588E+02 -0.52017120293E+03  0.52207050347E+03  0.00000000000E+00 0. -1.
          1    1    1    2  502    0 -0.40414280479E+02 -0.69644969450E+02  0.27276750213E+03  0.28440437067E+03  0.00000000000E+00 0. -1.
         22    1    3    3    0    0 -0.28455251182E+02  0.37387643186E+02  0.83583146265E+02  0.95883677038E+02  0.00000000000E+00 0. -1.
         22    1    3    3    0    0  0.27236810413E+02  0.16565074676E+02  0.61604345017E+03  0.61686771519E+03  0.00000000000E+00 0. -1.
</event>
<event>
 7    1  0.7961130E-006  0.1293042E+03  0.7818608E-02  0.1405928E+00
          2   -1    0    0  502    0  0.00000000000E+00  0.00000000000E+00  0.34023981517E+04  0.34023981517E+04  0.00000000000E+00 0. -1.
          1   -1    0    0  501    0 -0.00000000000E+00 -0.00000000000E+00 -0.96537674569E+01  0.96537674569E+01  0.00000000000E+00 0. -1.
         25    2    1    2    0    0 -0.10591503266E+03 -0.54981101380E+02  0.21798878389E+04  0.21867274967E+04  0.12500095665E+03 0.  0.
          2    1    1    2  501    0 -0.26115678241E+02  0.27315967721E+00  0.10107289729E+03  0.10439269051E+03  0.00000000000E+00 0. -1.
          1    1    1    2  502    0  0.13203071090E+03  0.54707941703E+02  0.11117836480E+04  0.11209317319E+04  0.00000000000E+00 0. -1.
         22    1    3    3    0    0  0.15117352986E+02  0.22666134238E+02  0.24699975484E+03  0.24849782071E+03  0.00000000000E+00 0. -1.
         22    1    3    3    0    0 -0.12103238565E+03 -0.77647235617E+02  0.19328880841E+04  0.19382296760E+04  0.00000000000E+00 0. -1.
</event>
<event>
 7    1  0.7961130E-006  0.2838087E+02  0.7818608E-02  0.1650944E+00
          2   -1    0    0  502    0  0.00000000000E+00  0.00000000000E+00  0.36970728710E+02  0.36970728710E+02  0.00000000000E+00 0. -1.
          1   -1    0    0  501    0 -0.00000000000E+00 -0.00000000000E+00 -0.31817497823E+03  0.31817497823E+03  0.00000000000E+00 0. -1.
         25    2    1    2    0    0  0.36721990833E+01 -0.20076836606E+02 -0.25771746003E+03  0.28715822520E+03  0.12499997073E+03 0.  0.
          2    1    1    2  501    0 -0.23258063081E+02 -0.13802489210E+01 -0.30226652406E+02  0.38164028889E+02  0.00000000000E+00 0. -1.
          1    1    1    2  502    0  0.19585863998E+02  0.21457085527E+02  0.67398629114E+01  0.29823452850E+02  0.00000000000E+00 0. -1.
         22    1    3    3    0    0 -0.40853846192E+02 -0.55776494207E+02 -0.15308886169E+03  0.16797694374E+03  0.00000000000E+00 0. -1.
         22    1    3    3    0    0  0.44526045275E+02  0.35699657601E+02 -0.10462859833E+03  0.11918128146E+03  0.00000000000E+00 0. -1.
</event>
<event>
 7    1  0.7961130E-006  0.8047996E+02  0.7818608E-02  0.1351927E+00
          2   -1    0    0  502    0  0.00000000000E+00  0.00000000000E+00  0.52067550496E+03  0.52067550496E+03  0.00000000000E+00 0. -1.
          1   -1    0    0  501    0 -0.00000000000E+00 -0.00000000000E+00 -0.12190659764E+03  0.12190659764E+03  0.00000000000E+00 0. -1.
         25    2    1    2    0    0  0.37296475117E+02 -0.62813145060E+01 -0.36528801316E+01  0.13069010347E+03  0.12504430272E+03 0.  0.
          2    1    1    2  501    0  0.27815770004E+02  0.59009027278E+02 -0.29731296219E+02  0.71691926575E+02  0.00000000000E+00 0. -1.
          1    1    1    2  502    0 -0.65112245121E+02 -0.52727712772E+02  0.43215308367E+03  0.44020007256E+03  0.00000000000E+00 0. -1.
         22    1    3    3    0    0 -0.18451421329E+02 -0.50489790767E+02  0.17382781620E+02  0.56496327470E+02  0.00000000000E+00 0.  1.
         22    1    3    3    0    0  0.55747896447E+02  0.44208476261E+02 -0.21035661751E+02  0.74193775998E+02  0.00000000000E+00 0.  1.
</event>
<event>
 7    1  0.7961130E-006  0.9695008E+02  0.7818608E-02  0.1403849E+00
          2   -1    0    0  502    0  0.00000000000E+00  0.00000000000E+00  0.18857078622E+04  0.18857078622E+04  0.00000000000E+00 0. -1.
          1   -1    0    0  501    0 -0.00000000000E+00 -0.00000000000E+00 -0.62737451152E+03  0.62737451152E+03  0.00000000000E+00 0. -1.
         25    2    1    2    0    0 -0.74328858323E+02 -0.38382623901E+02 -0.74341772558E+02  0.16777500319E+03  0.12499499011E+03 0.  0.
          2    1    1    2  501    0  0.96165728503E+01 -0.34075981250E+02 -0.50441208061E+03  0.50565323893E+03  0.00000000000E+00 0. -1.
          1    1    1    2  502    0  0.64712285472E+02  0.72458605152E+02  0.18370872038E+04  0.18396541315E+04  0.00000000000E+00 0. -1.
         22    1    3    3    0    0 -0.43923233134E+02 -0.50453950609E+02 -0.10397484150E+03  0.12363502419E+03  0.00000000000E+00 0. -1.
         22    1    3    3    0    0 -0.30405625189E+02  0.12071326708E+02  0.29633068943E+02  0.44139979006E+02  0.00000000000E+00 0. -1.
</event>
<event>
 7    1  0.7961130E-006  0.5216297E+02  0.7818608E-02  0.1453481E+00
          2   -1    0    0  502    0  0.00000000000E+00  0.00000000000E+00  0.49417878305E+03  0.49417878305E+03  0.00000000000E+00 0. -1.
          1   -1    0    0  501    0 -0.00000000000E+00 -0.00000000000E+00 -0.32013079098E+03  0.32013079098E+03  0.00000000000E+00 0. -1.
         25    2    1    2    0    0 -0.31454448403E+02  0.35505802208E+01  0.30777481386E+03  0.33369447745E+03  0.12499871716E+03 0.  0.
          2    1    1    2  501    0 -0.13237966957E+02  0.43149887904E+02 -0.29939754569E+03  0.30278052606E+03  0.00000000000E+00 0. -1.
          1    1    1    2  502    0  0.44692415360E+02 -0.46700468125E+02  0.16567072390E+03  0.17783457052E+03  0.00000000000E+00 0. -1.
         22    1    3    3    0    0 -0.58614079837E+02  0.42777102443E+02  0.24057096007E+03  0.25127649646E+03  0.00000000000E+00 0. -1.
         22    1    3    3    0    0  0.27159631435E+02 -0.39226522222E+02  0.67203853791E+02  0.82417980986E+02  0.00000000000E+00 0. -1.
</event>
<event>
 7    1  0.7961130E-006  0.4908973E+02  0.7818608E-02  0.1485259E+00
          2   -1    0    0  502    0  0.00000000000E+00  0.00000000000E+00  0.10073786443E+04  0.10073786443E+04  0.00000000000E+00 0. -1.
          1   -1    0    0  501    0 -0.00000000000E+00 -0.00000000000E+00 -0.14478242060E+04  0.14478242060E+04  0.00000000000E+00 0. -1.
         25    2    1    2    0    0 -0.76403859155E+02 -0.21264701706E+00 -0.25344143695E+03  0.29275039288E+03  0.12503053891E+03 0.  0.
          2    1    1    2  501    0  0.32062463622E+02 -0.20745478029E+02 -0.11738087496E+04  0.11744298008E+04  0.00000000000E+00 0. -1.
          1    1    1    2  502    0  0.44341395534E+02  0.20958125046E+02  0.98680462484E+03  0.98802265661E+03  0.00000000000E+00 0. -1.
         22    1    3    3    0    0 -0.95565211615E+02  0.35429983133E+02 -0.14700747337E+03  0.17888317585E+03  0.00000000000E+00 0.  1.
         22    1    3    3    0    0  0.19161352460E+02 -0.35642630150E+02 -0.10643396358E+03  0.11386721704E+03  0.00000000000E+00 0.  1.
</event>
<event>
 7    1  0.7961130E-006  0.7134991E+02  0.7818608E-02  0.1476384E+00
          2   -1    0    0  502    0  0.00000000000E+00  0.00000000000E+00  0.18730385989E+03  0.18730385989E+03  0.00000000000E+00 0. -1.
          1   -1    0    0  501    0 -0.00000000000E+00 -0.00000000000E+00 -0.10432984476E+04  0.10432984476E+04  0.00000000000E+00 0. -1.
         25    2    1    2    0    0 -0.27331247763E+02  0.38044320578E+02 -0.28371027975E+03  0.31354461902E+03  0.12499735137E+03 0.  0.
          2    1    1    2  501    0  0.48049539603E+02 -0.56837862176E+02 -0.74166136494E+03  0.74538639716E+03  0.00000000000E+00 0. -1.
          1    1    1    2  502    0 -0.20718291839E+02  0.18793541598E+02  0.16937705699E+03  0.17167129130E+03  0.00000000000E+00 0. -1.
         22    1    3    3    0    0  0.26253183994E+02  0.41538604130E+02 -0.38228621000E+02  0.62258435304E+02  0.00000000000E+00 0.  1.
         22    1    3    3    0    0 -0.53584431758E+02 -0.34942835518E+01 -0.24548165875E+03  0.25128618372E+03  0.00000000000E+00 0.  1.
</event>
<event>
 7    1  0.7961130E-006  0.5206866E+02  0.7818608E-02  0.1547651E+00
          2   -1    0    0  502    0  0.00000000000E+00  0.00000000000E+00  0.10317179779E+04  0.10317179779E+04  0.00000000000E+00 0. -1.
          1   -1    0    0  501    0 -0.00000000000E+00 -0.00000000000E+00 -0.48626452064E+03  0.48626452064E+03  0.00000000000E+00 0. -1.
         25    2    1    2    0    0 -0.26324444806E+02 -0.26519700584E+02 -0.68621616214E+02  0.14741791395E+03  0.12500737669E+03 0.  0.
          2    1    1    2  501    0  0.19479033469E+02  0.49179119971E+02 -0.37625329485E+03  0.37995336618E+03  0.00000000000E+00 0. -1.
          1    1    1    2  502    0  0.68454113377E+01 -0.22659419387E+02  0.99032836829E+03  0.99061121839E+03  0.00000000000E+00 0. -1.
         22    1    3    3    0    0  0.15865927083E+02 -0.37692340482E+02 -0.89972574623E+02  0.98830685303E+02  0.00000000000E+00 0.  1.
         22    1    3    3    0    0 -0.42190371889E+02  0.11172639898E+02  0.21350958409E+02  0.48587228645E+02  0.00000000000E+00 0.  1.
</event>
<event>
 7    1  0.7961130E-006  0.1268250E+03  0.7818608E-02  0.1296599E+00
          2   -1    0    0  502    0  0.00000000000E+00  0.00000000000E+00  0.82929029734E+03  0.82929029734E+03  0.00000000000E+00 0. -1.
          1   -1    0    0  501    0 -0.00000000000E+00 -0.00000000000E+00 -0.12924383254E+04  0.12924383254E+04  0.00000000000E+00 0. -1.
         25    2    1    2    0    0  0.48816606990E+02  0.78224423009E+02 -0.11469144525E+03  0.19308289612E+03  0.12499902274E+03 0.  0.
          2    1    1    2  501    0 -0.65568595000E+01 -0.13106184539E+03 -0.11333097163E+04  0.11408817260E+04  0.00000000000E+00 0. -1.
          1    1    1    2  502    0 -0.42259747490E+02  0.52837422386E+02  0.78485313350E+03  0.78776400059E+03  0.00000000000E+00 0. -1.
         22    1    3    3    0    0  0.85268975679E+02  0.80915334092E+02 -0.97344576524E+02  0.15262390404E+03  0.00000000000E+00 0. -1.
         22    1    3    3    0    0 -0.36452368689E+02 -0.26909110830E+01 -0.17346868729E+02  0.40458992081E+02  0.00000000000E+00 0. -1.
</event>
<event>
 7    1  0.7961130E-006  0.1104123E+03  0.7818608E-02  0.1325509E+00
          2   -1    0    0  502    0  0.00000000000E+00  0.00000000000E+00  0.30356702937E+04  0.30356702937E+04  0.00000000000E+00 0. -1.
          1   -1    0    0  501    0 -0.00000000000E+00 -0.00000000000E+00 -0.64745165992E+02  0.64745165992E+02  0.00000000000E+00 0. -1.
         25    2    1    2    0    0 -0.13117703885E+03  0.81271273815E+02  0.15946434071E+04  0.16069613192E+04  0.12499860049E+03 0.  0.
          2    1    1    2  501    0  0.39440442419E+02 -0.44959305169E+02 -0.41147841869E+02  0.72594989565E+02  0.00000000000E+00 0. -1.
          1    1    1    2  502    0  0.91736596434E+02 -0.36311968646E+02  0.14174295625E+04  0.14208591509E+04  0.00000000000E+00 0. -1.
         22    1    3    3    0    0 -0.96857146302E+01  0.40097380233E+02  0.12290023993E+03  0.12963827345E+03  0.00000000000E+00 0. -1.
         22    1    3    3    0    0 -0.12149132422E+03  0.41173893582E+02  0.14717431672E+04  0.14773230457E+04  0.00000000000E+00 0. -1.
</event>
<event>
 7    1  0.7961130E-006  0.7570237E+02  0.7818608E-02  0.1511902E+00
          2   -1    0    0  502    0  0.00000000000E+00  0.00000000000E+00  0.78506858890E+03  0.78506858890E+03  0.00000000000E+00 0. -1.
          1   -1    0    0  501    0 -0.00000000000E+00 -0.00000000000E+00 -0.54766941656E+02  0.54766941656E+02  0.00000000000E+00 0. -1.
         25    2    1    2    0    0  0.93541987964E+02  0.97424488409E+01  0.39311385679E+03  0.42309470393E+03  0.12500242105E+03 0.  0.
          2    1    1    2  501    0 -0.73103727672E+02 -0.12422659595E+02 -0.46355964308E+01  0.74296475187E+02  0.00000000000E+00 0. -1.
          1    1    1    2  502    0 -0.20438260292E+02  0.26802107545E+01  0.34182338688E+03  0.34244435144E+03  0.00000000000E+00 0. -1.
         22    1    3    3    0    0  0.23279770313E+02  0.49110990952E+01  0.71468045639E-01  0.23792261511E+02  0.00000000000E+00 0. -1.
         22    1    3    3    0    0  0.70262217652E+02  0.48313497457E+01  0.39304238874E+03  0.39930244242E+03  0.00000000000E+00 0. -1.
</event>
<event>
 7    1  0.7961130E-006  0.1858048E+03  0.7818608E-02  0.1166367E+00
          2   -1    0    0  502    0  0.00000000000E+00  0.00000000000E+00  0.46208169505E+03  0.46208169505E+03  0.00000000000E+00 0. -1.
          1   -1    0    0  501    0 -0.00000000000E+00 -0.00000000000E+00 -0.35797222666E+03  0.35797222666E+03  0.00000000000E+00 0. -1.
         25    2    1    2    0    0 -0.16310568006E+03 -0.58647996632E+02  0.60405850931E+02  0.22206878894E+03  0.12499051891E+03 0.  0.
          2    1    1    2  501    0  0.17110018042E+03 -0.11844992069E+03 -0.20529773371E+03  0.29232313442E+03  0.00000000000E+00 0. -1.
          1    1    1    2  502    0 -0.79945003664E+01  0.17709791732E+03  0.24900135117E+03  0.30566199836E+03  0.00000000000E+00 0. -1.
         22    1    3    3    0    0 -0.65061733435E+02 -0.35010318552E+01 -0.35540941236E+02  0.74218898440E+02  0.00000000000E+00 0. -1.
         22    1    3    3    0    0 -0.98043946620E+02 -0.55146964777E+02  0.95946792167E+02  0.14784989050E+03  0.00000000000E+00 0. -1.
</event>
<event>
 7    1  0.7961130E-006  0.7620638E+02  0.7818608E-02  0.1358663E+00
          2   -1    0    0  502    0  0.00000000000E+00  0.00000000000E+00  0.15177885833E+04  0.15177885833E+04  0.00000000000E+00 0. -1.
          1   -1    0    0  501    0 -0.00000000000E+00 -0.00000000000E+00 -0.28785952921E+04  0.28785952921E+04  0.00000000000E+00 0. -1.
         25    2    1    2    0    0  0.40171893140E+01  0.13172534449E+03  0.13699321280E+03  0.22751516183E+03  0.12501321657E+03 0.  0.
          2    1    1    2  501    0 -0.27362558993E+02 -0.70979865465E+02 -0.28320305095E+04  0.28330520041E+04  0.00000000000E+00 0. -1.
          1    1    1    2  502    0  0.23345369679E+02 -0.60745479023E+02  0.13342305880E+04  0.13358167095E+04  0.00000000000E+00 0. -1.
         22    1    3    3    0    0  0.39243043603E+02  0.98166134336E+02  0.14370334235E+03  0.17840195347E+03  0.00000000000E+00 0.  1.
         22    1    3    3    0    0 -0.35225854289E+02  0.33559210151E+02 -0.67101295435E+01  0.49113208354E+02  0.00000000000E+00 0.  1.
</event>
<event>
 7    1  0.7961130E-006  0.2697747E+03  0.7818608E-02  0.1164411E+00
          2   -1    0    0  502    0  0.00000000000E+00  0.00000000000E+00  0.30778033989E+04  0.30778033989E+04  0.00000000000E+00 0. -1.
          1   -1    0    0  501    0 -0.00000000000E+00 -0.00000000000E+00 -0.22712232507E+04  0.22712232507E+04  0.00000000000E+00 0. -1.
         25    2    1    2    0    0  0.18729901730E+03 -0.11747655213E+02  0.12736403316E+04  0.12934463632E+04  0.12499948303E+03 0.  0.
          2    1    1    2  501    0 -0.23971440832E+03  0.12509921022E+03 -0.22510465699E+04  0.22672281468E+04  0.00000000000E+00 0. -1.
          1    1    1    2  502    0  0.52415391017E+02 -0.11335155500E+03  0.17839863865E+04  0.17883521396E+04  0.00000000000E+00 0. -1.
         22    1    3    3    0    0  0.82308760458E+02  0.22544171796E+02  0.89405510829E+03  0.89811887208E+03  0.00000000000E+00 0.  1.
         22    1    3    3    0    0  0.10499025684E+03 -0.34291827009E+02  0.37958522332E+03  0.39532749107E+03  0.00000000000E+00 0.  1.
</event>
<event>
 7    1  0.7961130E-006  0.2490187E+03  0.7818608E-02  0.1302238E+00
          2   -1    0    0  502    0  0.00000000000E+00  0.00000000000E+00  0.15347039744E+04  0.15347039744E+04  0.00000000000E+00 0. -1.
          1   -1    0    0  501    0 -0.00000000000E+00 -0.00000000000E+00 -0.13614727346E+03  0.13614727346E+03  0.00000000000E+00 0. -1.
         25    2    1    2    0    0  0.25356057552E+03 -0.95809771365E+02  0.64472987952E+03  0.71047484005E+03  0.12500161219E+03 0.  0.
          2    1    1    2  501    0 -0.22165385771E+03  0.10302081004E+03  0.42252237747E+02  0.24805034073E+03  0.00000000000E+00 0. -1.
          1    1    1    2  502    0 -0.31906717806E+02 -0.72110386720E+01  0.71157458369E+03  0.71232606711E+03  0.00000000000E+00 0. -1.
         22    1    3    3    0    0  0.14880359078E+02  0.14214623332E+02  0.13915348457E+03  0.14066688619E+03  0.00000000000E+00 0. -1.
         22    1    3    3    0    0  0.23868021644E+03 -0.11002439470E+03  0.50557639495E+03  0.56980795386E+03  0.00000000000E+00 0. -1.
</event>
<event>
 7    1  0.7961130E-006  0.7460174E+02  0.7818608E-02  0.1363899E+00
          2   -1    0    0  502    0  0.00000000000E+00  0.00000000000E+00  0.11054436070E+04  0.11054436070E+04  0.00000000000E+00 0. -1.
          1   -1    0    0  501    0 -0.00000000000E+00 -0.00000000000E+00 -0.18136569620E+03  0.18136569620E+03  0.00000000000E+00 0. -1.
         25    2    1    2    0    0 -0.12077739700E+03 -0.42533469702E+02  0.16838401163E+03  0.24571440490E+03  0.12500447086E+03 0.  0.
          2    1    1    2  501    0  0.57188221915E+02  0.44532963028E+02 -0.13228438494E+03  0.15084043231E+03  0.00000000000E+00 0. -1.
          1    1    1    2  502    0  0.63589175085E+02 -0.19994933259E+01  0.88797828413E+03  0.89025446601E+03  0.00000000000E+00 0. -1.
         22    1    3    3    0    0 -0.13409114460E+03 -0.55438299103E+02  0.10349299703E+03  0.17822637431E+03  0.00000000000E+00 0. -1.
         22    1    3    3    0    0  0.13313747599E+02  0.12904829401E+02  0.64891014600E+02  0.67488030589E+02  0.00000000000E+00 0. -1.
</event>
<event>
 7    1  0.7961130E-006  0.6725624E+02  0.7818608E-02  0.1514914E+00
          2   -1    0    0  502    0  0.00000000000E+00  0.00000000000E+00  0.34942757396E+03  0.34942757396E+03  0.00000000000E+00 0. -1.
          1   -1    0    0  501    0 -0.00000000000E+00 -0.00000000000E+00 -0.10831852206E+04  0.10831852206E+04  0.00000000000E+00 0. -1.
         25    2    1    2    0    0  0.79007128708E+02 -0.37375936111E+02  0.19479327505E+03  0.24740305493E+03  0.12499905839E+03 0.  0.
          2    1    1    2  501    0 -0.64030898634E+02  0.20270178419E+02 -0.10547968688E+04  0.10569329547E+04  0.00000000000E+00 0. -1.
          1    1    1    2  502    0 -0.14976230074E+02  0.17105757692E+02  0.12624594711E+03  0.12827678502E+03  0.00000000000E+00 0. -1.
         22    1    3    3    0    0  0.19855110802E+02  0.43750065456E+02  0.38167632851E+02  0.61360099819E+02  0.00000000000E+00 0. -1.
         22    1    3    3    0    0  0.59152017906E+02 -0.81126001567E+02  0.15662564220E+03  0.18604295511E+03  0.00000000000E+00 0. -1.
</event>
<event>
 7    1  0.7961130E-006  0.5316230E+02  0.7818608E-02  0.1468607E+00
          2   -1    0    0  502    0  0.00000000000E+00  0.00000000000E+00  0.15981115211E+04  0.15981115211E+04  0.00000000000E+00 0. -1.
          1   -1    0    0  501    0 -0.00000000000E+00 -0.00000000000E+00 -0.25208101164E+02  0.25208101164E+02  0.00000000000E+00 0. -1.
         25    2    1    2    0    0 -0.12796523965E+02 -0.62439135135E+02  0.12130515807E+04  0.12211391076E+04  0.12499674407E+03 0.  0.
          2    1    1    2  501    0  0.36463176065E+02  0.15662586386E+02  0.11845769152E+01  0.39702431204E+02  0.00000000000E+00 0. -1.
          1    1    1    2  502    0 -0.23666652100E+02  0.46776548749E+02  0.35866726232E+03  0.36247808347E+03  0.00000000000E+00 0. -1.
         22    1    3    3    0    0 -0.52677147119E+02 -0.45914742191E+02  0.34451587025E+03  0.35153126494E+03  0.00000000000E+00 0. -1.
         22    1    3    3    0    0  0.39880623154E+02 -0.16524392944E+02  0.86853571048E+03  0.86960784268E+03  0.00000000000E+00 0. -1.
</event>
<event>
 7    1  0.7961130E-006  0.1073230E+03  0.7818608E-02  0.1399076E+00
          2   -1    0    0  502    0  0.00000000000E+00  0.00000000000E+00  0.57406795284E+03  0.57406795284E+03  0.00000000000E+00 0. -1.
          1   -1    0    0  501    0 -0.00000000000E+00 -0.00000000000E+00 -0.24319241349E+04  0.24319241349E+04  0.00000000000E+00 0. -1.
         25    2    1    2    0    0 -0.38843409359E+02 -0.66074328622E+02 -0.51967466493E+02  0.15556854300E+03  0.12500530646E+03 0.  0.
          2    1    1    2  501    0 -0.23855760396E+02 -0.23110153043E+02 -0.23223469228E+04  0.23225844239E+04  0.00000000000E+00 0. -1.
          1    1    1    2  502    0  0.62699169755E+02  0.89184481665E+02  0.51645820722E+03  0.52783912081E+03  0.00000000000E+00 0. -1.
         22    1    3    3    0    0 -0.83917942820E+02 -0.38267119599E+02 -0.22400504024E+02  0.94912465725E+02  0.00000000000E+00 0. -1.
         22    1    3    3    0    0  0.45074533461E+02 -0.27807209023E+02 -0.29566962468E+02  0.60656077271E+02  0.00000000000E+00 0. -1.
</event>
<event>
 7    1  0.7961130E-006  0.4665459E+02  0.7818608E-02  0.1484317E+00
          2   -1    0    0  502    0  0.00000000000E+00  0.00000000000E+00  0.27872726575E+03  0.27872726575E+03  0.00000000000E+00 0. -1.
          1   -1    0    0  501    0 -0.00000000000E+00 -0.00000000000E+00 -0.30086666021E+03  0.30086666021E+03  0.00000000000E+00 0. -1.
         25    2    1    2    0    0 -0.48734984055E+02 -0.12786018645E+02  0.49108155175E+02  0.14344013607E+03  0.12499952315E+03 0.  0.
          2    1    1    2  501    0  0.38813200069E+02 -0.26426713993E+02 -0.24923934262E+03  0.25362390586E+03  0.00000000000E+00 0. -1.
          1    1    1    2  502    0  0.99217839863E+01  0.39212732638E+02  0.17799179298E+03  0.18252988404E+03  0.00000000000E+00 0. -1.
         22    1    3    3    0    0 -0.12349424270E+02  0.15860702331E+02  0.83418051426E+02  0.85805835827E+02  0.00000000000E+00 0. -1.
         22    1    3    3    0    0 -0.36385559785E+02 -0.28646720976E+02 -0.34309896250E+02  0.57634300241E+02  0.00000000000E+00 0. -1.
</event>
<event>
 7    1  0.7961130E-006  0.4691604E+02  0.7818608E-02  0.1588190E+00
          2   -1    0    0  502    0  0.00000000000E+00  0.00000000000E+00  0.63463207402E+03  0.63463207402E+03  0.00000000000E+00 0. -1.
          1   -1    0    0  501    0 -0.00000000000E+00 -0.00000000000E+00 -0.13710411416E+03  0.13710411416E+03  0.00000000000E+00 0. -1.
         25    2    1    2    0    0 -0.36305569609E+01 -0.35906071430E+02  0.17540756018E+03  0.21839299926E+03  0.12500105218E+03 0.  0.
          2    1    1    2  501    0 -0.19512125533E+02 -0.58530537004E+01 -0.11339925686E+03  0.11521446410E+03  0.00000000000E+00 0. -1.
          1    1    1    2  502    0  0.23142682494E+02  0.41759125130E+02  0.43551965654E+03  0.43812872483E+03  0.00000000000E+00 0. -1.
         22    1    3    3    0    0 -0.45861287479E+02 -0.54319798190E+02  0.56294008475E+02  0.90680282062E+02  0.00000000000E+00 0. -1.
         22    1    3    3    0    0  0.42230730518E+02  0.18413726760E+02  0.11911355171E+03  0.12771271720E+03  0.00000000000E+00 0. -1.
</event>
<event>
 7    1  0.7961130E-006  0.7314817E+02  0.7818608E-02  0.1366067E+00
          2   -1    0    0  502    0  0.00000000000E+00  0.00000000000E+00  0.28459816639E+03  0.28459816639E+03  0.00000000000E+00 0. -1.
          1   -1    0    0  501    0 -0.00000000000E+00 -0.00000000000E+00 -0.48403282699E+03  0.48403282699E+03  0.00000000000E+00 0. -1.
         25    2    1    2    0    0 -0.97972929927E+02 -0.96633176516E+01 -0.22237059308E+03  0.27343432769E+03  0.12500230472E+03 0.  0.
          2    1    1    2  501    0  0.47146682000E+02 -0.42868805888E+02 -0.22648869298E+03  0.23528211192E+03  0.00000000000E+00 0. -1.
          1    1    1    2  502    0  0.50826247927E+02  0.52532123540E+02  0.24942462545E+03  0.25991455377E+03  0.00000000000E+00 0. -1.
         22    1    3    3    0    0 -0.32686498256E+02 -0.55968778432E+00 -0.20172786055E+03  0.20435960986E+03  0.00000000000E+00 0.  1.
         22    1    3    3    0    0 -0.65286431671E+02 -0.91036298673E+01 -0.20642732525E+02  0.69074717829E+02  0.00000000000E+00 0.  1.
</event>
<event>
 7    1  0.7961130E-006  0.8449891E+02  0.7818608E-02  0.1496607E+00
          2   -1    0    0  502    0  0.00000000000E+00  0.00000000000E+00  0.10914795147E+04  0.10914795147E+04  0.00000000000E+00 0. -1.
          1   -1    0    0  501    0 -0.00000000000E+00 -0.00000000000E+00 -0.10140404673E+03  0.10140404673E+03  0.00000000000E+00 0. -1.
         25    2    1    2    0    0  0.36246412057E+02 -0.66747233323E+02  0.28678542807E+03  0.32193132096E+03  0.12499959248E+03 0.  0.
          2    1    1    2  501    0 -0.12948220674E+02 -0.15895072159E+02 -0.80196116224E+02  0.82775158079E+02  0.00000000000E+00 0. -1.
          1    1    1    2  502    0 -0.23298191383E+02  0.82642305481E+02  0.78348615616E+03  0.78817708244E+03  0.00000000000E+00 0. -1.
         22    1    3    3    0    0 -0.10816177049E+02  0.29376391734E+01 -0.90321920762E+01  0.14394440023E+02  0.00000000000E+00 0.  1.
         22    1    3    3    0    0  0.47062589105E+02 -0.69684872496E+02  0.29581762015E+03  0.30753688094E+03  0.00000000000E+00 0.  1.
</event>
<event>
 7    1  0.7961130E-006  0.1200171E+03  0.7818608E-02  0.1254954E+00
          2   -1    0    0  502    0  0.00000000000E+00  0.00000000000E+00  0.70314977570E+03  0.70314977570E+03  0.00000000000E+00 0. -1.
          1   -1    0    0  501    0 -0.00000000000E+00 -0.00000000000E+00 -0.82340047172E+03  0.82340047172E+03  0.00000000000E+00 0. -1.
         25    2    1    2    0    0 -0.41565340753E+02 -0.34651102368E+02  0.27646695118E+03  0.30819916765E+03  0.12499750156E+03 0.  0.
          2    1    1    2  501    0 -0.23220671342E+02  0.11925661208E+03 -0.79593595993E+03  0.80515550760E+03  0.00000000000E+00 0. -1.
          1    1    1    2  502    0  0.64786012095E+02 -0.84605509713E+02  0.39921831273E+03  0.41319557217E+03  0.00000000000E+00 0. -1.
         22    1    3    3    0    0 -0.35166142131E+02 -0.80760899591E+02  0.15766741064E+03  0.18060452052E+03  0.00000000000E+00 0. -1.
         22    1    3    3    0    0 -0.63991986217E+01  0.46109797222E+02  0.11879954054E+03  0.12759464713E+03  0.00000000000E+00 0. -1.
</event>
<event>
 7    1  0.7961130E-006  0.1961464E+03  0.7818608E-02  0.1378131E+00
          2   -1    0    0  502    0  0.00000000000E+00  0.00000000000E+00  0.89034188872E+03  0.89034188872E+03  0.00000000000E+00 0. -1.
          1   -1    0    0  501    0 -0.00000000000E+00 -0.00000000000E+00 -0.68022389534E+03  0.68022389534E+03  0.00000000000E+00 0. -1.
         25    2    1    2    0    0  0.16221389048E+03  0.13518891234E+03 -0.26780921358E+03  0.36322999974E+03  0.12499947818E+03 0.  0.
          2    1    1    2  501    0 -0.31754636969E+01 -0.21276274878E+02 -0.35301835347E+03  0.35367318435E+03  0.00000000000E+00 0. -1.
          1    1    1    2  502    0 -0.15903842678E+03 -0.11391263746E+03  0.83094556044E+03  0.85366259997E+03  0.00000000000E+00 0. -1.
         22    1    3    3    0    0  0.15876214629E+03  0.15392413563E+03 -0.22072643429E+03  0.31243914194E+03  0.00000000000E+00 0. -1.
         22    1    3    3    0    0  0.34517441882E+01 -0.18735223287E+02 -0.47082779295E+02  0.50790857797E+02  0.00000000000E+00 0. -1.
</event>
<event>
 7    1  0.7961130E-006  0.1658487E+03  0.7818608E-02  0.1196492E+00
          2   -1    0    0  502    0  0.00000000000E+00  0.00000000000E+00  0.96960911988E+03  0.96960911988E+03  0.00000000000E+00 0. -1.
          1   -1    0    0  501    0 -0.00000000000E+00 -0.00000000000E+00 -0.37201976422E+03  0.37201976422E+03  0.00000000000E+00 0. -1.
         25    2    1    2    0    0  0.18269318855E+03  0.19507948328E+00  0.13627254389E+03  0.25994309610E+03  0.12499347100E+03 0.  0.
          2    1    1    2  501    0 -0.11579343153E+03  0.12469108689E+03 -0.27961886232E+03  0.32732658630E+03  0.00000000000E+00 0. -1.
          1    1    1    2  502    0 -0.66899757023E+02 -0.12488616638E+03  0.74093567409E+03  0.75435920170E+03  0.00000000000E+00 0. -1.
         22    1    3    3    0    0  0.18766969483E+03  0.19239406492E+02  0.14546088062E+03  0.23822035369E+03  0.00000000000E+00 0. -1.
         22    1    3    3    0    0 -0.49765062778E+01 -0.19044327009E+02 -0.91883367339E+01  0.21722742412E+02  0.00000000000E+00 0. -1.
</event>
<event>
 7    1  0.7961130E-006  0.4740564E+02  0.7818608E-02  0.1521497E+00
          2   -1    0    0  502    0  0.00000000000E+00  0.00000000000E+00  0.29489919856E+03  0.29489919856E+03  0.00000000000E+00 0. -1.
          1   -1    0    0  501    0 -0.00000000000E+00 -0.00000000000E+00 -0.67772790436E+02  0.67772790436E+02  0.00000000000E+00 0. -1.
         25    2    1    2    0    0 -0.20911008803E+02  0.69837301743E+02  0.28301910365E+02  0.14744287656E+03  0.12499553878E+03 0.  0.
          2    1    1    2  501    0 -0.34036060728E+01 -0.30674898806E+02  0.44412245854E+02  0.54083098403E+02  0.00000000000E+00 0. -1.
          1    1    1    2  502    0  0.24314614876E+02 -0.39162402937E+02  0.15441225190E+03  0.16114601403E+03  0.00000000000E+00 0. -1.
         22    1    3    3    0    0 -0.94248137338E+00 -0.25898416666E+02 -0.25047597611E+02  0.36041620427E+02  0.00000000000E+00 0. -1.
         22    1    3    3    0    0 -0.19968527429E+02  0.95735718408E+02  0.53349507977E+02  0.11140125613E+03  0.00000000000E+00 0. -1.
</event>
<event>
 7    1  0.7961130E-006  0.8420985E+02  0.7818608E-02  0.1435214E+00
          2   -1    0    0  502    0  0.00000000000E+00  0.00000000000E+00  0.14501339826E+04  0.14501339826E+04  0.00000000000E+00 0. -1.
          1   -1    0    0  501    0 -0.00000000000E+00 -0.00000000000E+00 -0.11062487655E+04  0.11062487655E+04  0.00000000000E+00 0. -1.
         25    2    1    2    0    0  0.51688811228E+02 -0.82047585338E+01  0.80913177252E+03  0.82040129935E+03  0.12500006160E+03 0.  0.
          2    1    1    2  501    0 -0.82720581455E+02  0.16101288988E+02 -0.10985957653E+04  0.11018233079E+04  0.00000000000E+00 0. -1.
          1    1    1    2  502    0  0.31031770228E+02 -0.78965304541E+01  0.63334920992E+03  0.63415814090E+03  0.00000000000E+00 0. -1.
         22    1    3    3    0    0 -0.33281771789E+02 -0.27470907401E+01  0.45312901257E+03  0.45435792595E+03  0.00000000000E+00 0.  1.
         22    1    3    3    0    0  0.84970583016E+02 -0.54576677938E+01  0.35600275996E+03  0.36604337340E+03  0.00000000000E+00 0.  1.
</event>
<event>
 7    1  0.7961130E-006  0.6191553E+02  0.7818608E-02  0.1478962E+00
          2   -1    0    0  502    0  0.00000000000E+00  0.00000000000E+00  0.32847041809E+03  0.32847041809E+03  0.00000000000E+00 0. -1.
          1   -1    0    0  501    0 -0.00000000000E+00 -0.00000000000E+00 -0.48285399368E+03  0.48285399368E+03  0.00000000000E+00 0. -1.
         25    2    1    2    0    0  0.17905777054E+02  0.90715512952E+02  0.27420960546E+02  0.15788298053E+03  0.12500082128E+03 0.  0.
          2    1    1    2  501    0 -0.15642176172E+02 -0.59145744012E+02 -0.41430438837E+03  0.41879711428E+03  0.00000000000E+00 0. -1.
          1    1    1    2  502    0 -0.22636008823E+01 -0.31569768940E+02  0.23249985223E+03  0.23464431697E+03  0.00000000000E+00 0. -1.
         22    1    3    3    0    0  0.28438089132E+02 -0.81737481688E+00 -0.36106460876E+02  0.45968136052E+02  0.00000000000E+00 0.  1.
         22    1    3    3    0    0 -0.10532312077E+02  0.91532887769E+02  0.63527421422E+02  0.11191484447E+03  0.00000000000E+00 0.  1.
</event>
<event>
 7    1  0.7961130E-006  0.9587049E+02  0.7818608E-02  0.1404495E+00
          2   -1    0    0  502    0  0.00000000000E+00  0.00000000000E+00  0.92647190247E+03  0.92647190247E+03  0.00000000000E+00 0. -1.
          1   -1    0    0  501    0 -0.00000000000E+00 -0.00000000000E+00 -0.42056965971E+03  0.42056965971E+03  0.00000000000E+00 0. -1.
         25    2    1    2    0    0 -0.94419785842E+01 -0.12816201383E+03  0.57421745036E+03  0.60155278384E+03  0.12500167478E+03 0.  0.
          2    1    1    2  501    0 -0.46719602765E+01  0.95453040855E+02 -0.40032458085E+03  0.41157366322E+03  0.00000000000E+00 0. -1.
          1    1    1    2  502    0  0.14113938861E+02  0.32708972970E+02  0.33200937326E+03  0.33391511513E+03  0.00000000000E+00 0. -1.
         22    1    3    3    0    0  0.36991327562E+02 -0.11289409900E+03  0.48983817002E+03  0.50403855876E+03  0.00000000000E+00 0.  1.
         22    1    3    3    0    0 -0.46433306147E+02 -0.15267914828E+02  0.84379280335E+02  0.97514225079E+02  0.00000000000E+00 0.  1.
</event>
<event>
 7    1  0.7961130E-006  0.1381393E+03  0.7818608E-02  0.1347005E+00
          2   -1    0    0  502    0  0.00000000000E+00  0.00000000000E+00  0.98617855557E+02  0.98617855557E+02  0.00000000000E+00 0. -1.
          1   -1    0    0  501    0 -0.00000000000E+00 -0.00000000000E+00 -0.11432561354E+04  0.11432561354E+04  0.00000000000E+00 0. -1.
         25    2    1    2    0    0  0.19570899638E+02 -0.10221377217E+03 -0.40624112209E+03  0.43759244986E+03  0.12499851024E+03 0.  0.
          2    1    1    2  501    0  0.14717204408E+02 -0.36804627391E+02 -0.65850074601E+03  0.65969266268E+03  0.00000000000E+00 0. -1.
          1    1    1    2  502    0 -0.34288104046E+02  0.13901839956E+03  0.20103588272E+02  0.14458887840E+03  0.00000000000E+00 0. -1.
         22    1    3    3    0    0  0.62188199156E+01 -0.75634619574E+02 -0.40008335375E+03  0.40721733675E+03  0.00000000000E+00 0.  1.
         22    1    3    3    0    0  0.13352079722E+02 -0.26579152595E+02 -0.61577683382E+01  0.30375113111E+02  0.00000000000E+00 0.  1.
</event>
<event>
 7    1  0.7961130E-006  0.1022213E+03  0.7818608E-02  0.1370605E+00
          2   -1    0    0  502    0  0.00000000000E+00  0.00000000000E+00  0.87826625309E+03  0.87826625309E+03  0.00000000000E+00 0. -1.
          1   -1    0    0  501    0 -0.00000000000E+00 -0.00000000000E+00 -0.59820952178E+03  0.59820952178E+03  0.00000000000E+00 0. -1.
         25    2    1    2    0    0 -0.34730649864E+02 -0.47446404091E+02 -0.25458819512E+03  0.28965139011E+03  0.12500159758E+03 0.  0.
          2    1    1    2  501    0 -0.26393791754E+02 -0.35096745128E+02 -0.32152780269E+03  0.32451277581E+03  0.00000000000E+00 0. -1.
          1    1    1    2  502    0  0.61124441618E+02  0.82543149218E+02  0.85617272912E+03  0.86231160896E+03  0.00000000000E+00 0. -1.
         22    1    3    3    0    0 -0.21836571245E+00 -0.38870130272E+02 -0.25090627009E+03  0.25389937196E+03  0.00000000000E+00 0.  1.
         22    1    3    3    0    0 -0.34512284151E+02 -0.85762738187E+01 -0.36819250316E+01  0.35752018151E+02  0.00000000000E+00 0.  1.
</event>
<event>
 7    1  0.7961130E-006  0.1004473E+03  0.7818608E-02  0.1310018E+00
          2   -1    0    0  502    0  0.00000000000E+00  0.00000000000E+00  0.71677088330E+03  0.71677088330E+03  0.00000000000E+00 0. -1.
          1   -1    0    0  501    0 -0.00000000000E+00 -0.00000000000E+00 -0.76893053144E+03  0.76893053144E+03  0.00000000000E+00 0. -1.
         25    2    1    2    0    0  0.55453405163E+01  0.67674635881E+02 -0.20061005515E+02  0.14366184259E+03  0.12500269570E+03 0.  0.
          2    1    1    2  501    0 -0.81029450523E+02 -0.64917585486E+02 -0.68094316284E+03  0.68881322271E+03  0.00000000000E+00 0. -1.
          1    1    1    2  502    0  0.75484110007E+02 -0.27570503943E+01  0.64884452022E+03  0.65322634944E+03  0.00000000000E+00 0. -1.
         22    1    3    3    0    0  0.54756618950E+02  0.46057383032E+02  0.22604378950E+02  0.75036842939E+02  0.00000000000E+00 0. -1.
         22    1    3    3    0    0 -0.49211278434E+02  0.21617252849E+02 -0.42665384465E+02  0.68624999653E+02  0.00000000000E+00 0. -1.
</event>
<event>
 7    1  0.7961130E-006  0.5101548E+02  0.7818608E-02  0.1535434E+00
          2   -1    0    0  502    0  0.00000000000E+00  0.00000000000E+00  0.83767007833E+03  0.83767007833E+03  0.00000000000E+00 0. -1.
          1   -1    0    0  501    0 -0.00000000000E+00 -0.00000000000E+00 -0.31593071794E+03  0.31593071794E+03  0.00000000000E+00 0. -1.
         25    2    1    2    0    0 -0.25091863450E+02 -0.15016396404E+02  0.14637954268E+03  0.19469621520E+03  0.12499820768E+03 0.  0.
          2    1    1    2  501    0  0.50538895406E+02  0.89719865164E+01 -0.28925568930E+03  0.29377462499E+03  0.00000000000E+00 0. -1.
          1    1    1    2  502    0 -0.25447031956E+02  0.60444098875E+01  0.66461550701E+03  0.66512995609E+03  0.00000000000E+00 0. -1.
         22    1    3    3    0    0 -0.18666549024E+02 -0.59417220429E+02  0.28352709134E+02  0.68430419049E+02  0.00000000000E+00 0.  1.
         22    1    3    3    0    0 -0.64253144261E+01  0.44400824025E+02  0.11802683355E+03  0.12626579615E+03  0.00000000000E+00 0.  1.
</event>
<event>
 7    1  0.7961130E-006  0.1387869E+03  0.7818608E-02  0.1422060E+00
          2   -1    0    0  502    0  0.00000000000E+00  0.00000000000E+00  0.24712025305E+04  0.24712025305E+04  0.00000000000E+00 0. -1.
          1   -1    0    0  501    0 -0.00000000000E+00 -0.00000000000E+00 -0.37148004418E+03  0.37148004418E+03  0.00000000000E+00 0. -1.
         25    2    1    2    0    0  0.27283611654E+02  0.15569982129E+03  0.51777269856E+02  0.20806908096E+03  0.12500010786E+03 0.  0.
          2    1    1    2  501    0  0.42306537539E+01 -0.21049242090E+02 -0.29089613048E+03  0.29168738017E+03  0.00000000000E+00 0. -1.
          1    1    1    2  502    0 -0.31514265408E+02 -0.13465057920E+03  0.23388413469E+04  0.23429261135E+04  0.00000000000E+00 0. -1.
         22    1    3    3    0    0  0.16923386629E+02  0.63291568107E+01  0.55424407333E+02  0.58295147047E+02  0.00000000000E+00 0. -1.
         22    1    3    3    0    0  0.10360225025E+02  0.14937066448E+03 -0.36471374772E+01  0.14977393392E+03  0.00000000000E+00 0. -1.
</event>
<event>
 7    1  0.7961130E-006  0.4280314E+02  0.7818608E-02  0.1599205E+00
          2   -1    0    0  502    0  0.00000000000E+00  0.00000000000E+00  0.13502775804E+04  0.13502775804E+04  0.00000000000E+00 0. -1.
          1   -1    0    0  501    0 -0.00000000000E+00 -0.00000000000E+00 -0.21798003226E+03  0.21798003226E+03  0.00000000000E+00 0. -1.
         25    2    1    2    0    0 -0.28440603653E+01 -0.37689204162E+02  0.28456581418E+03  0.31310086521E+03  0.12500353758E+03 0.  0.
          2    1    1    2  501    0  0.20833059979E+02 -0.14785083561E+01 -0.20273409602E+03  0.20380705597E+03  0.00000000000E+00 0. -1.
          1    1    1    2  502    0 -0.17988999614E+02  0.39167712518E+02  0.10504658299E+04  0.10513496914E+04  0.00000000000E+00 0. -1.
         22    1    3    3    0    0  0.16407710262E+02  0.43460441842E+02  0.86334214541E+02  0.98038867606E+02  0.00000000000E+00 0.  1.
         22    1    3    3    0    0 -0.19251770627E+02 -0.81149646004E+02  0.19823159964E+03  0.21506199760E+03  0.00000000000E+00 0.  1.
</event>
<event>
 7    1  0.7961130E-006  0.9388955E+02  0.7818608E-02  0.1433867E+00
          2   -1    0    0  502    0  0.00000000000E+00  0.00000000000E+00  0.25576088924E+03  0.25576088924E+03  0.00000000000E+00 0. -1.
          1   -1    0    0  501    0 -0.00000000000E+00 -0.00000000000E+00 -0.94090216149E+03  0.94090216149E+03  0.00000000000E+00 0. -1.
         25    2    1    2    0    0 -0.15450873851E+02 -0.64670720241E+02 -0.14205073008E+03  0.20055488436E+03  0.12499128035E+03 0.  0.
          2    1    1    2  501    0 -0.63958340996E+01 -0.28298516808E+02 -0.75924352339E+03  0.75979763131E+03  0.00000000000E+00 0. -1.
          1    1    1    2  502    0  0.21846707951E+02  0.92969237049E+02  0.21615298122E+03  0.23631053505E+03  0.00000000000E+00 0. -1.
         22    1    3    3    0    0 -0.62978697152E+02 -0.62229818849E+02 -0.64403107969E+02  0.10948345521E+03  0.00000000000E+00 0. -1.
         22    1    3    3    0    0  0.47527823301E+02 -0.24409013919E+01 -0.77647622115E+02  0.91071429150E+02  0.00000000000E+00 0. -1.
</event>
<event>
 7    1  0.7961130E-006  0.2492816E+02  0.7818608E-02  0.1672716E+00
          2   -1    0    0  502    0  0.00000000000E+00  0.00000000000E+00  0.20045289131E+03  0.20045289131E+03  0.00000000000E+00 0. -1.
          1   -1    0    0  501    0 -0.00000000000E+00 -0.00000000000E+00 -0.13537044733E+03  0.13537044733E+03  0.00000000000E+00 0. -1.
         25    2    1    2    0    0 -0.86599406465E+01 -0.13388643814E+02  0.86462561912E+02  0.15281935460E+03  0.12499492059E+03 0.  0.
          2    1    1    2  501    0 -0.17260930335E+02  0.15946352492E+02 -0.98677009126E+02  0.10143657133E+03  0.00000000000E+00 0. -1.
          1    1    1    2  502    0  0.25920870982E+02 -0.25577086778E+01  0.77296891195E+02  0.81567412700E+02  0.00000000000E+00 0. -1.
         22    1    3    3    0    0  0.26628443487E+01 -0.58053402556E+02  0.89421784332E+02  0.10664681806E+03  0.00000000000E+00 0.  1.
         22    1    3    3    0    0 -0.11322784995E+02  0.44664758742E+02 -0.29592224203E+01  0.46172536543E+02  0.00000000000E+00 0.  1.
</event>
<event>
 7    1  0.7961130E-006  0.1080746E+03  0.7818608E-02  0.1422381E+00
          2   -1    0    0  502    0  0.00000000000E+00  0.00000000000E+00  0.18202237060E+03  0.18202237060E+03  0.00000000000E+00 0. -1.
          1   -1    0    0  501    0 -0.00000000000E+00 -0.00000000000E+00 -0.11923839138E+04  0.11923839138E+04  0.00000000000E+00 0. -1.
         25    2    1    2    0    0 -0.37156180120E+02 -0.72476400334E+02 -0.54477057008E+03  0.56482854302E+03  0.12499159436E+03 0.  0.
          2    1    1    2  501    0 -0.14150812992E+02 -0.23584235622E+02 -0.62000976258E+03  0.62061950290E+03  0.00000000000E+00 0. -1.
          1    1    1    2  502    0  0.51306993112E+02  0.96060635955E+02  0.15441878951E+03  0.18895823844E+03  0.00000000000E+00 0. -1.
         22    1    3    3    0    0 -0.64797757900E+02 -0.87756851533E+02 -0.48617221395E+03  0.49826040987E+03  0.00000000000E+00 0.  1.
         22    1    3    3    0    0  0.27641577780E+02  0.15280451199E+02 -0.58598356128E+02  0.66568133157E+02  0.00000000000E+00 0.  1.
</event>
<event>
 7    1  0.7961130E-006  0.1359505E+03  0.7818608E-02  0.1222088E+00
          2   -1    0    0  502    0  0.00000000000E+00  0.00000000000E+00  0.18474821389E+04  0.18474821389E+04  0.00000000000E+00 0. -1.
          1   -1    0    0  501    0 -0.00000000000E+00 -0.00000000000E+00 -0.97232343477E+03  0.97232343477E+03  0.00000000000E+00 0. -1.
         25    2    1    2    0    0 -0.51691566702E+02 -0.50521632741E+02  0.19812589946E+03  0.24515758499E+03  0.12499566391E+03 0.  0.
          2    1    1    2  501    0  0.10657908785E+03 -0.84400393742E+02 -0.94064856321E+03  0.95042214194E+03  0.00000000000E+00 0. -1.
          1    1    1    2  502    0 -0.54887521151E+02  0.13492202648E+03  0.16176813679E+04  0.16242258468E+04  0.00000000000E+00 0. -1.
         22    1    3    3    0    0 -0.51528767871E+02 -0.77544551123E+02  0.19725103572E+03  0.21812001838E+03  0.00000000000E+00 0.  1.
         22    1    3    3    0    0 -0.16279883107E+00  0.27022918382E+02  0.87486374016E+00  0.27037566604E+02  0.00000000000E+00 0.  1.
</event>
<event>
 7    1  0.7961130E-006  0.2091701E+03  0.7818608E-02  0.1273120E+00
          2   -1    0    0  502    0  0.00000000000E+00  0.00000000000E+00  0.27348629877E+03  0.27348629877E+03  0.00000000000E+00 0. -1.
          1   -1    0    0  501    0 -0.00000000000E+00 -0.00000000000E+00 -0.11335106356E+04  0.11335106356E+04  0.00000000000E+00 0. -1.
         25    2    1    2    0    0 -0.29374474010E+02 -0.24321728103E+03 -0.53827779318E+03  0.60447177878E+03  0.12500257271E+03 0.  0.
          2    1    1    2  501    0  0.35665569107E+02  0.36741019317E+02 -0.51625616977E+03  0.51878932925E+03  0.00000000000E+00 0. -1.
          1    1    1    2  502    0 -0.62910950973E+01  0.20647626171E+03  0.19450962608E+03  0.28373582637E+03  0.00000000000E+00 0. -1.
         22    1    3    3    0    0  0.37724000616E+02 -0.22505278482E+02 -0.74404481644E+02  0.86403788521E+02  0.00000000000E+00 0. -1.
         22    1    3    3    0    0 -0.67098474626E+02 -0.22071200255E+03 -0.46387331154E+03  0.51806799025E+03  0.00000000000E+00 0. -1.
</event>
<event>
 7    1  0.7961130E-006  0.4642810E+02  0.7818608E-02  0.1543378E+00
          2   -1    0    0  502    0  0.00000000000E+00  0.00000000000E+00  0.78315691056E+03  0.78315691056E+03  0.00000000000E+00 0. -1.
          1   -1    0    0  501    0 -0.00000000000E+00 -0.00000000000E+00 -0.13090459112E+04  0.13090459112E+04  0.00000000000E+00 0. -1.
         25    2    1    2    0    0 -0.42194859102E+02  0.53714537291E+02 -0.56320858082E+02  0.15316941861E+03  0.12499269615E+03 0.  0.
          2    1    1    2  501    0  0.44370768019E+01 -0.26926682795E+02 -0.12034166685E+04  0.12037260535E+04  0.00000000000E+00 0. -1.
          1    1    1    2  502    0  0.37757782300E+02 -0.26787854496E+02  0.73384852598E+03  0.73530734959E+03  0.00000000000E+00 0. -1.
         22    1    3    3    0    0  0.26623934282E+02 -0.67518710428E+01  0.19965166638E+02  0.33956288344E+02  0.00000000000E+00 0. -1.
         22    1    3    3    0    0 -0.68818793384E+02  0.60466408334E+02 -0.76286024720E+02  0.11921313026E+03  0.00000000000E+00 0. -1.
</event>
<event>
 7    1  0.7961130E-006  0.1152843E+03  0.7818608E-02  0.1351458E+00
          2   -1    0    0  502    0  0.00000000000E+00  0.00000000000E+00  0.20543175243E+04  0.20543175243E+04  0.00000000000E+00 0. -1.
          1   -1    0    0  501    0 -0.00000000000E+00 -0.00000000000E+00 -0.19157152584E+02  0.19157152584E+02  0.00000000000E+00 0. -1.
         25    2    1    2    0    0  0.59285423535E+02  0.66173891748E+02  0.72873680096E+03  0.74469861252E+03  0.12499981210E+03 0.  0.
          2    1    1    2  501    0 -0.67939596487E+02 -0.11107107385E+03  0.38895707070E+03  0.41017090958E+03  0.00000000000E+00 0. -1.
          1    1    1    2  502    0  0.86541729514E+01  0.44897182098E+02  0.91746650003E+03  0.91860515476E+03  0.00000000000E+00 0. -1.
         22    1    3    3    0    0  0.69108136437E+02  0.31223520362E+02  0.18763353055E+03  0.20237881444E+03  0.00000000000E+00 0.  1.
         22    1    3    3    0    0 -0.98227129017E+01  0.34950371386E+02  0.54110327041E+03  0.54231979809E+03  0.00000000000E+00 0.  1.
</event>
<event>
 7    1  0.7961130E-006  0.2347244E+03  0.7818608E-02  0.1198366E+00
          2   -1    0    0  502    0  0.00000000000E+00  0.00000000000E+00  0.27493374108E+04  0.27493374108E+04  0.00000000000E+00 0. -1.
          1   -1    0    0  501    0 -0.00000000000E+00 -0.00000000000E+00 -0.91720768687E+03  0.91720768687E+03  0.00000000000E+00 0. -1.
         25    2    1    2    0    0  0.11540962835E+03  0.30242886282E+03  0.85370000812E+03  0.92152616886E+03  0.12499670653E+03 0.  0.
          2    1    1    2  501    0 -0.11232739632E+03 -0.20439964601E+03 -0.86657341772E+03  0.89741080200E+03  0.00000000000E+00 0. -1.
          1    1    1    2  502    0 -0.30822320321E+01 -0.98029216811E+02  0.18450031336E+04  0.18476081268E+04  0.00000000000E+00 0. -1.
         22    1    3    3    0    0  0.95098724828E+02  0.18825261046E+03  0.38815653546E+03  0.44175593808E+03  0.00000000000E+00 0. -1.
         22    1    3    3    0    0  0.20310903520E+02  0.11417625237E+03  0.46554347266E+03  0.47977023078E+03  0.00000000000E+00 0. -1.
</event>
<event>
 7    1  0.7961130E-006  0.5528410E+02  0.7818608E-02  0.1534608E+00
          2   -1    0    0  502    0  0.00000000000E+00  0.00000000000E+00  0.78991887945E+03  0.78991887945E+03  0.00000000000E+00 0. -1.
          1   -1    0    0  501    0 -0.00000000000E+00 -0.00000000000E+00 -0.85025825646E+03  0.85025825646E+03  0.00000000000E+00 0. -1.
         25    2    1    2    0    0 -0.33010775445E+02 -0.55319344456E+01  0.14500779779E+03  0.19434850025E+03  0.12499505805E+03 0.  0.
          2    1    1    2  501    0 -0.20093166624E+02 -0.13606110037E+02 -0.82412464451E+03  0.82448183198E+03  0.00000000000E+00 0. -1.
          1    1    1    2  502    0  0.53103942069E+02  0.19138044483E+02  0.61877746972E+03  0.62134680368E+03  0.00000000000E+00 0. -1.
         22    1    3    3    0    0  0.19781868740E+01 -0.41083123384E+02  0.13797381285E+03  0.14397398821E+03  0.00000000000E+00 0.  1.
         22    1    3    3    0    0 -0.34988962319E+02  0.35551188939E+02  0.70339849416E+01  0.50374512040E+02  0.00000000000E+00 0.  1.
</event>
<event>
 7    1  0.7961130E-006  0.2128805E+03  0.7818608E-02  0.1243560E+00
          2   -1    0    0  502    0  0.00000000000E+00  0.00000000000E+00  0.18533184094E+04  0.18533184094E+04  0.00000000000E+00 0. -1.
          1   -1    0    0  501    0 -0.00000000000E+00 -0.00000000000E+00 -0.23954277770E+04  0.23954277770E+04  0.00000000000E+00 0. -1.
         25    2    1    2    0    0  0.86650607187E+02 -0.21372051788E+03 -0.37138712831E+03  0.45468477110E+03  0.12500021801E+03 0.  0.
          2    1    1    2  501    0 -0.19388162748E+02  0.21075210195E+03 -0.19761137711E+04  0.19874149002E+04  0.00000000000E+00 0. -1.
          1    1    1    2  502    0 -0.67262444438E+02  0.29684159263E+01  0.18053915317E+04  0.18066465151E+04  0.00000000000E+00 0. -1.
         22    1    3    3    0    0  0.11585186103E+03 -0.14483604728E+03 -0.28899946969E+03  0.34339456573E+03  0.00000000000E+00 0.  1.
         22    1    3    3    0    0 -0.29201253844E+02 -0.68884470603E+02 -0.82387658626E+02  0.11129020536E+03  0.00000000000E+00 0.  1.
</event>
<event>
 7    1  0.7961130E-006  0.1054813E+03  0.7818608E-02  0.1321234E+00
          2   -1    0    0  502    0  0.00000000000E+00  0.00000000000E+00  0.64138464029E+03  0.64138464029E+03  0.00000000000E+00 0. -1.
          1   -1    0    0  501    0 -0.00000000000E+00 -0.00000000000E+00 -0.15949456227E+04  0.15949456227E+04  0.00000000000E+00 0. -1.
         25    2    1    2    0    0  0.58040519263E+02  0.14909455979E+02 -0.23799185685E+03  0.27542085657E+03  0.12500212218E+03 0.  0.
          2    1    1    2  501    0 -0.10907474531E+03  0.25389728023E+02 -0.13341891300E+04  0.13388810900E+04  0.00000000000E+00 0. -1.
          1    1    1    2  502    0  0.51034226048E+02 -0.40299184003E+02  0.61862000451E+03  0.62202831643E+03  0.00000000000E+00 0. -1.
         22    1    3    3    0    0  0.61381239473E+02 -0.10614031741E+02 -0.36308553850E+02  0.72101493131E+02  0.00000000000E+00 0.  1.
         22    1    3    3    0    0 -0.33407202099E+01  0.25523487720E+02 -0.20168330300E+03  0.20331936344E+03  0.00000000000E+00 0.  1.
</event>
<event>
 7    1  0.7961130E-006  0.1248320E+03  0.7818608E-02  0.1266970E+00
          2   -1    0    0  502    0  0.00000000000E+00  0.00000000000E+00  0.78088506563E+03  0.78088506563E+03  0.00000000000E+00 0. -1.
          1   -1    0    0  501    0 -0.00000000000E+00 -0.00000000000E+00 -0.17093091950E+04  0.17093091950E+04  0.00000000000E+00 0. -1.
         25    2    1    2    0    0 -0.13762165815E+02  0.37711881776E+02 -0.80738639909E+02  0.15412830562E+03  0.12500089353E+03 0.  0.
          2    1    1    2  501    0  0.36758431775E+02 -0.12581670073E+03 -0.15863772475E+04  0.15917832126E+04  0.00000000000E+00 0. -1.
          1    1    1    2  502    0 -0.22996265960E+02  0.88104818957E+02  0.73869175800E+03  0.74428274245E+03  0.00000000000E+00 0. -1.
         22    1    3    3    0    0 -0.56270196137E+02 -0.12968542453E+02 -0.12482213672E+02  0.59078961778E+02  0.00000000000E+00 0.  1.
         22    1    3    3    0    0  0.42508030322E+02  0.50680424229E+02 -0.68256426237E+02  0.95049343841E+02  0.00000000000E+00 0.  1.
</event>
<event>
 7    1  0.7961130E-006  0.9972464E+02  0.7818608E-02  0.1441957E+00
          2   -1    0    0  502    0  0.00000000000E+00  0.00000000000E+00  0.81356444615E+03  0.81356444615E+03  0.00000000000E+00 0. -1.
          1   -1    0    0  501    0 -0.00000000000E+00 -0.00000000000E+00 -0.11094595985E+04  0.11094595985E+04  0.00000000000E+00 0. -1.
         25    2    1    2    0    0  0.80555438933E+02 -0.81908070395E+02  0.10473117804E+03  0.19947808480E+03  0.12499910370E+03 0.  0.
          2    1    1    2  501    0 -0.54872154104E+02  0.83031035676E+02 -0.10595034042E+04  0.10641675477E+04  0.00000000000E+00 0. -1.
          1    1    1    2  502    0 -0.25683284829E+02 -0.11229652812E+01  0.65887707373E+03  0.65937841218E+03  0.00000000000E+00 0. -1.
         22    1    3    3    0    0  0.86801224862E+01 -0.65429149809E+02 -0.61794579414E+01  0.66291054235E+02  0.00000000000E+00 0. -1.
         22    1    3    3    0    0  0.71875316447E+02 -0.16478920586E+02  0.11091063598E+03  0.13318703057E+03  0.00000000000E+00 0. -1.
</event>
<event>
 7    1  0.7961130E-006  0.4340429E+02  0.7818608E-02  0.1590728E+00
          2   -1    0    0  502    0  0.00000000000E+00  0.00000000000E+00  0.53173594716E+03  0.53173594716E+03  0.00000000000E+00 0. -1.
          1   -1    0    0  501    0 -0.00000000000E+00 -0.00000000000E+00 -0.28404300740E+03  0.28404300740E+03  0.00000000000E+00 0. -1.
         25    2    1    2    0    0  0.45898367173E+02  0.16799056498E+02 -0.20381908562E+03  0.24404094063E+03  0.12499957053E+03 0.  0.
          2    1    1    2  501    0 -0.42435326282E+02  0.46036500336E+01 -0.52273138949E+02  0.67486528773E+02  0.00000000000E+00 0. -1.
          1    1    1    2  502    0 -0.34630408916E+01 -0.21402706531E+02  0.50378516432E+03  0.50425148516E+03  0.00000000000E+00 0. -1.
         22    1    3    3    0    0  0.53005757982E+02  0.65090214287E+02 -0.11096238266E+03  0.13913661179E+03  0.00000000000E+00 0.  1.
         22    1    3    3    0    0 -0.71073908084E+01 -0.48291157789E+02 -0.92856702960E+02  0.10490432884E+03  0.00000000000E+00 0.  1.
</event>
<event>
 7    1  0.7961130E-006  0.5079444E+02  0.7818608E-02  0.1476191E+00
          2   -1    0    0  502    0  0.00000000000E+00  0.00000000000E+00  0.21203684657E+04  0.21203684657E+04  0.00000000000E+00 0. -1.
          1   -1    0    0  501    0 -0.00000000000E+00 -0.00000000000E+00 -0.74261843590E+02  0.74261843590E+02  0.00000000000E+00 0. -1.
         25    2    1    2    0    0  0.34975564968E+02  0.75718565981E+02  0.10151744381E+04  0.10262365541E+04  0.12500293546E+03 0.  0.
          2    1    1    2  501    0 -0.27226950207E+02 -0.28404110090E+02 -0.62531085092E+02  0.73879881500E+02  0.00000000000E+00 0. -1.
          1    1    1    2  502    0 -0.77486147612E+01 -0.47314455891E+02  0.10934632691E+04  0.10945138736E+04  0.00000000000E+00 0. -1.
         22    1    3    3    0    0 -0.39949456103E+02  0.53895617432E+02  0.60467137149E+03  0.60838159417E+03  0.00000000000E+00 0. -1.
         22    1    3    3    0    0  0.74925021071E+02  0.21822948550E+02  0.41050306658E+03  0.41785495993E+03  0.00000000000E+00 0. -1.
</event>
<event>
 7    1  0.7961130E-006  0.6896243E+02  0.7818608E-02  0.1507803E+00
          2   -1    0    0  502    0  0.00000000000E+00  0.00000000000E+00  0.18279257028E+03  0.18279257028E+03  0.00000000000E+00 0. -1.
          1   -1    0    0  501    0 -0.00000000000E+00 -0.00000000000E+00 -0.37511301624E+04  0.37511301624E+04  0.00000000000E+00 0. -1.
         25    2    1    2    0    0 -0.52169218137E+02  0.64100978271E+02 -0.47958749656E+03  0.50245395064E+03  0.12500097170E+03 0.  0.
          2    1    1    2  501    0  0.28982750756E+02 -0.62184168144E+02 -0.32589570447E+04  0.32596791084E+04  0.00000000000E+00 0. -1.
          1    1    1    2  502    0  0.23186467381E+02 -0.19168101268E+01  0.17020694913E+03  0.17178967362E+03  0.00000000000E+00 0. -1.
         22    1    3    3    0    0 -0.12886246755E+02  0.66191337562E+02 -0.98678654220E+02  0.11951914207E+03  0.00000000000E+00 0.  1.
         22    1    3    3    0    0 -0.39282971381E+02 -0.20903592915E+01 -0.38090884234E+03  0.38293480857E+03  0.00000000000E+00 0.  1.
</event>
<event>
 7    1  0.7961130E-006  0.5569864E+02  0.7818608E-02  0.1419497E+00
          2   -1    0    0  502    0  0.00000000000E+00  0.00000000000E+00  0.77224865694E+02  0.77224865694E+02  0.00000000000E+00 0. -1.
          1   -1    0    0  501    0 -0.00000000000E+00 -0.00000000000E+00 -0.12801297834E+04  0.12801297834E+04  0.00000000000E+00 0. -1.
         25    2    1    2    0    0 -0.65807875648E+01 -0.48765136976E+01 -0.58141331244E+03  0.59475486110E+03  0.12499927108E+03 0.  0.
          2    1    1    2  501    0 -0.40462499643E+02  0.36603562599E+02 -0.67936374976E+03  0.68155127405E+03  0.00000000000E+00 0. -1.
          1    1    1    2  502    0  0.47043287208E+02 -0.31727048901E+02  0.57872144496E+02  0.81048513940E+02  0.00000000000E+00 0. -1.
         22    1    3    3    0    0 -0.27596523845E+02  0.35766011838E+02 -0.85191010187E+02  0.96427609883E+02  0.00000000000E+00 0.  1.
         22    1    3    3    0    0  0.21015736280E+02 -0.40642525536E+02 -0.49622230225E+03  0.49832725121E+03  0.00000000000E+00 0.  1.
</event>
<event>
 7    1  0.7961130E-006  0.3589496E+03  0.7818608E-02  0.1198801E+00
          2   -1    0    0  502    0  0.00000000000E+00  0.00000000000E+00  0.33597443408E+04  0.33597443408E+04  0.00000000000E+00 0. -1.
          1   -1    0    0  501    0 -0.00000000000E+00 -0.00000000000E+00 -0.18845649129E+03  0.18845649129E+03  0.00000000000E+00 0. -1.
         25    2    1    2    0    0  0.27916293772E+03  0.30471896046E+03  0.31490527687E+03  0.53439301774E+03  0.12499989340E+03 0.  0.
          2    1    1    2  501    0 -0.56333521826E+02 -0.30018031080E+02 -0.53021592085E+02  0.82980944189E+02  0.00000000000E+00 0. -1.
          1    1    1    2  502    0 -0.22282941589E+03 -0.27470092938E+03  0.29094041647E+04  0.29308268702E+04  0.00000000000E+00 0. -1.
         22    1    3    3    0    0  0.52470124731E+01  0.68194374435E+02  0.34707944456E+02  0.76698404500E+02  0.00000000000E+00 0.  1.
         22    1    3    3    0    0  0.27391592524E+03  0.23652458603E+03  0.28019733242E+03  0.45769461324E+03  0.00000000000E+00 0.  1.
</event>
<event>
 7    1  0.7961130E-006  0.4705758E+02  0.7818608E-02  0.1528966E+00
          2   -1    0    0  502    0  0.00000000000E+00  0.00000000000E+00  0.33535712123E+04  0.33535712123E+04  0.00000000000E+00 0. -1.
          1   -1    0    0  501    0 -0.00000000000E+00 -0.00000000000E+00 -0.15536424109E+03  0.15536424109E+03  0.00000000000E+00 0. -1.
         25    2    1    2    0    0  0.21444256528E+02  0.54108655821E+02  0.18302723486E+04  0.18354589247E+04  0.12499996542E+03 0.  0.
          2    1    1    2  501    0  0.71491719731E+01 -0.46504971969E+02 -0.14900049003E+03  0.15625290111E+03  0.00000000000E+00 0. -1.
          1    1    1    2  502    0 -0.28593428501E+02 -0.76036838520E+01  0.15169351127E+04  0.15172236276E+04  0.00000000000E+00 0. -1.
         22    1    3    3    0    0  0.26143069601E+02 -0.36323596169E+02  0.45022345021E+03  0.45244228234E+03  0.00000000000E+00 0.  1.
         22    1    3    3    0    0 -0.46988130728E+01  0.90432251991E+02  0.13800488984E+04  0.13830166423E+04  0.00000000000E+00 0.  1.
</event>
<event>
 7    1  0.7961130E-006  0.3673750E+02  0.7818608E-02  0.1541850E+00
          2   -1    0    0  502    0  0.00000000000E+00  0.00000000000E+00  0.24948363309E+03  0.24948363309E+03  0.00000000000E+00 0. -1.
          1   -1    0    0  501    0 -0.00000000000E+00 -0.00000000000E+00 -0.55643425734E+02  0.55643425734E+02  0.00000000000E+00 0. -1.
         25    2    1    2    0    0  0.38104748706E+02  0.29579898370E+02  0.16566676055E+03  0.21306245860E+03  0.12499277360E+03 0.  0.
          2    1    1    2  501    0 -0.36516389574E+02  0.52157151073E+01 -0.12097239816E+02  0.38820015491E+02  0.00000000000E+00 0. -1.
          1    1    1    2  502    0 -0.15883591323E+01 -0.34795613478E+02  0.40270686620E+02  0.53244584728E+02  0.00000000000E+00 0. -1.
         22    1    3    3    0    0  0.24944300438E+02 -0.40691752058E+02  0.21927041556E+02  0.52524584352E+02  0.00000000000E+00 0.  1.
         22    1    3    3    0    0  0.13160448268E+02  0.70271650428E+02  0.14373971900E+03  0.16053787425E+03  0.00000000000E+00 0.  1.
</event>
<event>
 7    1  0.7961130E-006  0.5216272E+02  0.7818608E-02  0.1465388E+00
          2   -1    0    0  502    0  0.00000000000E+00  0.00000000000E+00  0.19652696833E+04  0.19652696833E+04  0.00000000000E+00 0. -1.
          1   -1    0    0  501    0 -0.00000000000E+00 -0.00000000000E+00 -0.56370992049E+03  0.56370992049E+03  0.00000000000E+00 0. -1.
         25    2    1    2    0    0 -0.66784931439E+02 -0.55362657239E+02 -0.29476707610E+03  0.33171958556E+03  0.12500001363E+03 0.  0.
          2    1    1    2  501    0  0.43005291725E+02  0.21482317399E+02 -0.24793763602E+03  0.25255497705E+03  0.00000000000E+00 0. -1.
          1    1    1    2  502    0  0.23779639714E+02  0.33880339840E+02  0.19442644749E+04  0.19447050411E+04  0.00000000000E+00 0. -1.
         22    1    3    3    0    0 -0.75776708764E+02  0.66877457557E+00 -0.82603353194E+02  0.11209759502E+03  0.00000000000E+00 0.  1.
         22    1    3    3    0    0  0.89917773249E+01 -0.56031431815E+02 -0.21216372291E+03  0.21962199054E+03  0.00000000000E+00 0.  1.
</event>
<event>
 7    1  0.7961130E-006  0.1510042E+03  0.7818608E-02  0.1377228E+00
          2   -1    0    0  502    0  0.00000000000E+00  0.00000000000E+00  0.70111721732E+03  0.70111721732E+03  0.00000000000E+00 0. -1.
          1   -1    0    0  501    0 -0.00000000000E+00 -0.00000000000E+00 -0.14954851123E+03  0.14954851123E+03  0.00000000000E+00 0. -1.
         25    2    1    2    0    0  0.36436429104E+02 -0.14696508965E+03  0.23124007895E+03  0.30335301842E+03  0.12499891493E+03 0.  0.
          2    1    1    2  501    0 -0.85915614190E+01  0.15110003949E+03 -0.62288880049E+02  0.16366105657E+03  0.00000000000E+00 0. -1.
          1    1    1    2  502    0 -0.27844867685E+02 -0.41349498441E+01  0.38261750719E+03  0.38365165355E+03  0.00000000000E+00 0. -1.
         22    1    3    3    0    0 -0.93232468041E+01 -0.14817443845E+03  0.19430663272E+03  0.24453558977E+03  0.00000000000E+00 0. -1.
         22    1    3    3    0    0  0.45759675908E+02  0.12093488064E+01  0.36933446228E+02  0.58817428659E+02  0.00000000000E+00 0. -1.
</event>
<event>
 7    1  0.7961130E-006  0.1562838E+03  0.7818608E-02  0.1280735E+00
          2   -1    0    0  502    0  0.00000000000E+00  0.00000000000E+00  0.26510111124E+03  0.26510111124E+03  0.00000000000E+00 0. -1.
          1   -1    0    0  501    0 -0.00000000000E+00 -0.00000000000E+00 -0.14035623632E+04  0.14035623632E+04  0.00000000000E+00 0. -1.
         25    2    1    2    0    0 -0.23843566895E+02 -0.11931510625E+03 -0.14703104322E+03  0.22813877592E+03  0.12499825257E+03 0.  0.
          2    1    1    2  501    0  0.48245437680E+02 -0.41624104284E+02 -0.11855086829E+04  0.11872198724E+04  0.00000000000E+00 0. -1.
          1    1    1    2  502    0 -0.24401870785E+02  0.16093921053E+03  0.19407847416E+03  0.25330482608E+03  0.00000000000E+00 0. -1.
         22    1    3    3    0    0  0.51056885553E+02 -0.54867133509E+02 -0.53526459467E+02  0.92099347256E+02  0.00000000000E+00 0.  1.
         22    1    3    3    0    0 -0.74900452448E+02 -0.64447972740E+02 -0.93504583755E+02  0.13603942866E+03  0.00000000000E+00 0.  1.
</event>
<event>
 7    1  0.7961130E-006  0.6680153E+02  0.7818608E-02  0.1399638E+00
          2   -1    0    0  502    0  0.00000000000E+00  0.00000000000E+00  0.26700511330E+03  0.26700511330E+03  0.00000000000E+00 0. -1.
          1   -1    0    0  501    0 -0.00000000000E+00 -0.00000000000E+00 -0.17948143749E+03  0.17948143749E+03  0.00000000000E+00 0. -1.
         25    2    1    2    0    0 -0.42820728066E+02 -0.15471316888E+02  0.72482197673E+02  0.15148640124E+03  0.12498593675E+03 0.  0.
          2    1    1    2  501    0  0.10991040417E+02 -0.51974962741E+02 -0.12528686816E+03  0.13608452908E+03  0.00000000000E+00 0. -1.
          1    1    1    2  502    0  0.31829687649E+02  0.67446279629E+02  0.14032834630E+03  0.15891562046E+03  0.00000000000E+00 0. -1.
         22    1    3    3    0    0 -0.81159922396E+02  0.10075512521E+02  0.25455574050E+02  0.85652992978E+02  0.00000000000E+00 0.  1.
         22    1    3    3    0    0  0.38339194330E+02 -0.25546829409E+02  0.47026623623E+02  0.65833408267E+02  0.00000000000E+00 0.  1.
</event>
<event>
 7    1  0.7961130E-006  0.1194983E+03  0.7818608E-02  0.1331855E+00
          2   -1    0    0  502    0  0.00000000000E+00  0.00000000000E+00  0.32831379081E+03  0.32831379081E+03  0.00000000000E+00 0. -1.
          1   -1    0    0  501    0 -0.00000000000E+00 -0.00000000000E+00 -0.20037452023E+04  0.20037452023E+04  0.00000000000E+00 0. -1.
         25    2    1    2    0    0 -0.15966805506E+03  0.22285579245E+02  0.15983932238E+03  0.25916021520E+03  0.12499949326E+03 0.  0.
          2    1    1    2  501    0  0.11140515779E+03 -0.42313397769E+02 -0.19464277638E+04  0.19500724531E+04  0.00000000000E+00 0. -1.
          1    1    1    2  502    0  0.48262897275E+02  0.20027818523E+02  0.11115702990E+03  0.12282632480E+03  0.00000000000E+00 0. -1.
         22    1    3    3    0    0 -0.69589308889E+02  0.72810171472E+02  0.78658848187E+02  0.12779361244E+03  0.00000000000E+00 0. -1.
         22    1    3    3    0    0 -0.90078746171E+02 -0.50524592226E+02  0.81180474195E+02  0.13136660276E+03  0.00000000000E+00 0. -1.
</event>
<event>
 7    1  0.7961130E-006  0.9488190E+02  0.7818608E-02  0.1425685E+00
          2   -1    0    0  502    0  0.00000000000E+00  0.00000000000E+00  0.45784716292E+03  0.45784716292E+03  0.00000000000E+00 0. -1.
          1   -1    0    0  501    0 -0.00000000000E+00 -0.00000000000E+00 -0.98074299925E+02  0.98074299925E+02  0.00000000000E+00 0. -1.
         25    2    1    2    0    0 -0.28472335609E+02 -0.92540903916E+02 -0.17556376002E+02  0.15908460187E+03  0.12500076568E+03 0.  0.
          2    1    1    2  501    0 -0.19627742334E+01  0.89933831398E+02  0.31217865524E+03  0.32488068472E+03  0.00000000000E+00 0. -1.
          1    1    1    2  502    0  0.30435109842E+02  0.26070725174E+01  0.65150583750E+02  0.71956176255E+02  0.00000000000E+00 0. -1.
         22    1    3    3    0    0 -0.22565027626E+02 -0.44516554091E+02 -0.71131198658E+02  0.86893909352E+02  0.00000000000E+00 0. -1.
         22    1    3    3    0    0 -0.59073079827E+01 -0.48024349825E+02  0.53574822656E+02  0.72190692519E+02  0.00000000000E+00 0. -1.
</event>
<event>
 7    1  0.7961130E-006  0.1072867E+03  0.7818608E-02  0.1268523E+00
          2   -1    0    0  502    0  0.00000000000E+00  0.00000000000E+00  0.12887588096E+03  0.12887588096E+03  0.00000000000E+00 0. -1.
          1   -1    0    0  501    0 -0.00000000000E+00 -0.00000000000E+00 -0.96612982783E+03  0.96612982783E+03  0.00000000000E+00 0. -1.
         25    2    1    2    0    0 -0.50751894191E+02 -0.98048204507E+02 -0.15264390626E+03  0.22608802034E+03  0.12500570248E+03 0.  0.
          2    1    1    2  501    0 -0.63022128815E+02  0.83184521100E+02 -0.73587985142E+03  0.74324330404E+03  0.00000000000E+00 0. -1.
          1    1    1    2  502    0  0.11377402301E+03  0.14863683406E+02  0.51269810810E+02  0.12567438441E+03  0.00000000000E+00 0. -1.
         22    1    3    3    0    0 -0.85364677794E+02 -0.32299999671E+02 -0.97533212018E+02  0.13357823790E+03  0.00000000000E+00 0.  1.
         22    1    3    3    0    0  0.34612783603E+02 -0.65748204836E+02 -0.55110694244E+02  0.92509782444E+02  0.00000000000E+00 0.  1.
</event>
<event>
 7    1  0.7961130E-006  0.7619651E+02  0.7818608E-02  0.1394882E+00
          2   -1    0    0  502    0  0.00000000000E+00  0.00000000000E+00  0.35279386175E+03  0.35279386175E+03  0.00000000000E+00 0. -1.
          1   -1    0    0  501    0 -0.00000000000E+00 -0.00000000000E+00 -0.13209984309E+04  0.13209984309E+04  0.00000000000E+00 0. -1.
         25    2    1    2    0    0 -0.10268591890E+03  0.40304625898E+02 -0.86156803246E+03  0.87754967993E+03  0.12500042152E+03 0.  0.
          2    1    1    2  501    0  0.26617785265E+02 -0.40386114509E+02 -0.44592038361E+03  0.44853598881E+03  0.00000000000E+00 0. -1.
          1    1    1    2  502    0  0.76068133636E+02  0.81488610854E-01  0.33928384687E+03  0.34770662396E+03  0.00000000000E+00 0. -1.
         22    1    3    3    0    0  0.23318066308E+02 -0.14346824290E+02 -0.99205669413E+02  0.10291417991E+03  0.00000000000E+00 0. -1.
         22    1    3    3    0    0 -0.12600398521E+03  0.54651450188E+02 -0.76236236305E+03  0.77463550002E+03  0.00000000000E+00 0. -1.
</event>
<event>
 7    1  0.7961130E-006  0.2752703E+02  0.7818608E-02  0.1671100E+00
          2   -1    0    0  502    0  0.00000000000E+00  0.00000000000E+00  0.18864813302E+03  0.18864813302E+03  0.00000000000E+00 0. -1.
          1   -1    0    0  501    0 -0.00000000000E+00 -0.00000000000E+00 -0.16830065694E+04  0.16830065694E+04  0.00000000000E+00 0. -1.
         25    2    1    2    0    0  0.29825640341E+02  0.18774029696E+02 -0.25185174755E+03  0.28337478409E+03  0.12501972845E+03 0.  0.
          2    1    1    2  501    0 -0.20282398565E+02  0.70438078361E+01 -0.14142157341E+04  0.14143787094E+04  0.00000000000E+00 0. -1.
          1    1    1    2  502    0 -0.95432417761E+01 -0.25817837532E+02  0.17170904535E+03  0.17390120889E+03  0.00000000000E+00 0. -1.
         22    1    3    3    0    0  0.18127515696E+02  0.69812365822E+02 -0.10432269591E+03  0.12682901138E+03  0.00000000000E+00 0. -1.
         22    1    3    3    0    0  0.11698124645E+02 -0.51038336126E+02 -0.14752905164E+03  0.15654577271E+03  0.00000000000E+00 0. -1.
</event>
<event>
 7    1  0.7961130E-006  0.1316408E+03  0.7818608E-02  0.1345931E+00
          2   -1    0    0  502    0  0.00000000000E+00  0.00000000000E+00  0.49878430379E+03  0.49878430379E+03  0.00000000000E+00 0. -1.
          1   -1    0    0  501    0 -0.00000000000E+00 -0.00000000000E+00 -0.19322930787E+04  0.19322930787E+04  0.00000000000E+00 0. -1.
         25    2    1    2    0    0  0.72630640509E+02  0.15731813014E+03  0.25448466248E+03  0.33228200092E+03  0.12499872273E+03 0.  0.
          2    1    1    2  501    0 -0.53962652275E+02 -0.11971746292E+03 -0.18889458762E+04  0.18935048883E+04  0.00000000000E+00 0. -1.
          1    1    1    2  502    0 -0.18667988234E+02 -0.37600667222E+02  0.20095243881E+03  0.20529049327E+03  0.00000000000E+00 0. -1.
         22    1    3    3    0    0  0.76010167925E+02  0.27877687935E+02  0.70835848447E+02  0.10757522269E+03  0.00000000000E+00 0. -1.
         22    1    3    3    0    0 -0.33795274160E+01  0.12944044221E+03  0.18364881404E+03  0.22470677823E+03  0.00000000000E+00 0. -1.
</event>
<event>
 7    1  0.7961130E-006  0.7257601E+02  0.7818608E-02  0.1455188E+00
          2   -1    0    0  502    0  0.00000000000E+00  0.00000000000E+00  0.19883248730E+04  0.19883248730E+04  0.00000000000E+00 0. -1.
          1   -1    0    0  501    0 -0.00000000000E+00 -0.00000000000E+00 -0.46764442240E+03  0.46764442240E+03  0.00000000000E+00 0. -1.
         25    2    1    2    0    0 -0.41130630434E+02 -0.21546568393E+02  0.20967681575E+03  0.24848372165E+03  0.12499523788E+03 0.  0.
          2    1    1    2  501    0 -0.11704256160E+02 -0.29822681510E+02 -0.44689559621E+03  0.44804247104E+03  0.00000000000E+00 0. -1.
          1    1    1    2  502    0  0.52834886595E+02  0.51369249903E+02  0.17578992311E+04  0.17594431027E+04  0.00000000000E+00 0. -1.
         22    1    3    3    0    0 -0.47763106811E+02  0.37133488843E+01  0.21629915675E+03  0.22154103129E+03  0.00000000000E+00 0. -1.
         22    1    3    3    0    0  0.66324763762E+01 -0.25259917278E+02 -0.66223410013E+01  0.26942690365E+02  0.00000000000E+00 0. -1.
</event>
<event>
 7    1  0.7961130E-006  0.5058959E+02  0.7818608E-02  0.1499421E+00
          2   -1    0    0  502    0  0.00000000000E+00  0.00000000000E+00  0.55300705153E+03  0.55300705153E+03  0.00000000000E+00 0. -1.
          1   -1    0    0  501    0 -0.00000000000E+00 -0.00000000000E+00 -0.25953829836E+03  0.25953829836E+03  0.00000000000E+00 0. -1.
         25    2    1    2    0    0  0.80068854838E+02 -0.76242740933E+01  0.22691322229E+03  0.27126365244E+03  0.12500083047E+03 0.  0.
          2    1    1    2  501    0 -0.33367393175E+02 -0.38233307968E+01 -0.23425598401E+03  0.23665136135E+03  0.00000000000E+00 0. -1.
          1    1    1    2  502    0 -0.46701461664E+02  0.11447604890E+02  0.30081151489E+03  0.30463033610E+03  0.00000000000E+00 0. -1.
         22    1    3    3    0    0 -0.21715326800E+02 -0.26682589737E+02  0.19768836067E+02  0.39677737997E+02  0.00000000000E+00 0.  1.
         22    1    3    3    0    0  0.10178418164E+03  0.19058315644E+02  0.20714438622E+03  0.23158591444E+03  0.00000000000E+00 0.  1.
</event>
<event>
 7    1  0.7961130E-006  0.3349423E+02  0.7818608E-02  0.1590262E+00
          2   -1    0    0  502    0  0.00000000000E+00  0.00000000000E+00  0.24023536097E+02  0.24023536097E+02  0.00000000000E+00 0. -1.
          1   -1    0    0  501    0 -0.00000000000E+00 -0.00000000000E+00 -0.26673729893E+04  0.26673729893E+04  0.00000000000E+00 0. -1.
         25    2    1    2    0    0  0.37607084184E+02  0.35740488377E+01 -0.11823002390E+04  0.11894913739E+04  0.12501522596E+03 0.  0.
          2    1    1    2  501    0 -0.12120702211E+02 -0.25435520113E+02 -0.14674517590E+04  0.14677222292E+04  0.00000000000E+00 0. -1.
          1    1    1    2  502    0 -0.25486381973E+02  0.21861471275E+02  0.64025448911E+01  0.34182922249E+02  0.00000000000E+00 0. -1.
         22    1    3    3    0    0  0.31318493274E+02 -0.58263320367E+02 -0.71984276592E+03  0.72287555649E+03  0.00000000000E+00 0. -1.
         22    1    3    3    0    0  0.62885909093E+01  0.61837369205E+02 -0.46245747313E+03  0.46661581741E+03  0.00000000000E+00 0. -1.
</event>
<event>
 7    1  0.7961130E-006  0.1261444E+03  0.7818608E-02  0.1333359E+00
          2   -1    0    0  502    0  0.00000000000E+00  0.00000000000E+00  0.83467081112E+03  0.83467081112E+03  0.00000000000E+00 0. -1.
          1   -1    0    0  501    0 -0.00000000000E+00 -0.00000000000E+00 -0.14162842467E+04  0.14162842467E+04  0.00000000000E+00 0. -1.
         25    2    1    2    0    0  0.79311545561E+02 -0.90953799320E+02 -0.39466864703E+03  0.43122057871E+03  0.12499972674E+03 0.  0.
          2    1    1    2  501    0 -0.11533544417E+03  0.57956442081E+02 -0.99845059625E+03  0.10067595577E+04  0.00000000000E+00 0. -1.
          1    1    1    2  502    0  0.36023898612E+02  0.32997357239E+02  0.81150580772E+03  0.81297492139E+03  0.00000000000E+00 0. -1.
         22    1    3    3    0    0  0.22608153321E+02 -0.93375179004E+02 -0.33652013405E+03  0.34996550298E+03  0.00000000000E+00 0. -1.
         22    1    3    3    0    0  0.56703392239E+02  0.24213796842E+01 -0.58148512977E+02  0.81255075733E+02  0.00000000000E+00 0. -1.
</event>
<event>
 7    1  0.7961130E-006  0.1106851E+03  0.7818608E-02  0.1365571E+00
          2   -1    0    0  502    0  0.00000000000E+00  0.00000000000E+00  0.57047712001E+03  0.57047712001E+03  0.00000000000E+00 0. -1.
          1   -1    0    0  501    0 -0.00000000000E+00 -0.00000000000E+00 -0.21525727777E+04  0.21525727777E+04  0.00000000000E+00 0. -1.
         25    2    1    2    0    0 -0.87391556238E+02 -0.89752712601E+02  0.24651348595E+03  0.30345704018E+03  0.12499777181E+03 0.  0.
          2    1    1    2  501    0  0.99139400144E+02  0.49130861214E+02 -0.21211387947E+04  0.21240226572E+04  0.00000000000E+00 0. -1.
          1    1    1    2  502    0 -0.11747843907E+02  0.40621851388E+02  0.29252965096E+03  0.29557020036E+03  0.00000000000E+00 0. -1.
         22    1    3    3    0    0 -0.27084070067E+01 -0.57559996455E+02  0.22576584953E+02  0.61888535680E+02  0.00000000000E+00 0.  1.
         22    1    3    3    0    0 -0.84683149231E+02 -0.32192716146E+02  0.22393690100E+03  0.24156850450E+03  0.00000000000E+00 0.  1.
</event>
<event>
 7    1  0.7961130E-006  0.1619894E+03  0.7818608E-02  0.1332865E+00
          2   -1    0    0  502    0  0.00000000000E+00  0.00000000000E+00  0.59542006983E+03  0.59542006983E+03  0.00000000000E+00 0. -1.
          1   -1    0    0  501    0 -0.00000000000E+00 -0.00000000000E+00 -0.13132035557E+04  0.13132035557E+04  0.00000000000E+00 0. -1.
         25    2    1    2    0    0 -0.56780530276E+02 -0.11706134486E+03  0.34942511963E+02  0.18377465300E+03  0.12499902745E+03 0.  0.
          2    1    1    2  501    0 -0.19144700472E+02 -0.33064723850E+02 -0.12239233991E+04  0.12245196129E+04  0.00000000000E+00 0. -1.
          1    1    1    2  502    0  0.75925230748E+02  0.15012606871E+03  0.47119740125E+03  0.50032935964E+03  0.00000000000E+00 0. -1.
         22    1    3    3    0    0  0.18427371968E+02 -0.69100917327E+02 -0.25611626886E+02  0.75963545500E+02  0.00000000000E+00 0. -1.
         22    1    3    3    0    0 -0.75207902244E+02 -0.47960427534E+02  0.60554138849E+02  0.10781110750E+03  0.00000000000E+00 0. -1.
</event>
<event>
 7    1  0.7961130E-006  0.7861577E+02  0.7818608E-02  0.1334105E+00
          2   -1    0    0  502    0  0.00000000000E+00  0.00000000000E+00  0.26747276613E+03  0.26747276613E+03  0.00000000000E+00 0. -1.
          1   -1    0    0  501    0 -0.00000000000E+00 -0.00000000000E+00 -0.89576757293E+03  0.89576757293E+03  0.00000000000E+00 0. -1.
         25    2    1    2    0    0  0.10550283112E+03 -0.31664553210E+02 -0.13634235541E+03  0.21528587047E+03  0.12500110736E+03 0.  0.
          2    1    1    2  501    0 -0.69167864951E+02 -0.37217170084E+02 -0.71107725503E+03  0.71540210644E+03  0.00000000000E+00 0. -1.
          1    1    1    2  502    0 -0.36334966169E+02  0.68881723295E+02  0.21912480363E+03  0.23255236214E+03  0.00000000000E+00 0. -1.
         22    1    3    3    0    0  0.11837585937E+03 -0.58080959072E+02 -0.13011703092E+03  0.18524762785E+03  0.00000000000E+00 0.  1.
         22    1    3    3    0    0 -0.12873028247E+02  0.26416405862E+02 -0.62253244833E+01  0.30038242622E+02  0.00000000000E+00 0.  1.
</event>
<event>
 7    1  0.7961130E-006  0.1698958E+03  0.7818608E-02  0.1289513E+00
          2   -1    0    0  502    0  0.00000000000E+00  0.00000000000E+00  0.33726974008E+03  0.33726974008E+03  0.00000000000E+00 0. -1.
          1   -1    0    0  501    0 -0.00000000000E+00 -0.00000000000E+00 -0.18605398897E+03  0.18605398897E+03  0.00000000000E+00 0. -1.
         25    2    1    2    0    0 -0.96262178510E+02 -0.18276985716E+03  0.91719236999E+02  0.25828067660E+03  0.12500104709E+03 0.  0.
          2    1    1    2  501    0  0.56649888276E+02  0.14613803134E+03 -0.30917545924E+02  0.15975427597E+03  0.00000000000E+00 0. -1.
          1    1    1    2  502    0  0.39612290235E+02  0.36631825816E+02  0.90414060040E+02  0.10528877648E+03  0.00000000000E+00 0. -1.
         22    1    3    3    0    0  0.16100338640E+02 -0.10149514151E+03  0.38075747893E+02  0.10959127353E+03  0.00000000000E+00 0. -1.
         22    1    3    3    0    0 -0.11236251715E+03 -0.81274715642E+02  0.53643489106E+02  0.14868940307E+03  0.00000000000E+00 0. -1.
</event>
<event>
 7    1  0.7961130E-006  0.1095168E+03  0.7818608E-02  0.1419751E+00
          2   -1    0    0  502    0  0.00000000000E+00  0.00000000000E+00  0.46425253136E+03  0.46425253136E+03  0.00000000000E+00 0. -1.
          1   -1    0    0  501    0 -0.00000000000E+00 -0.00000000000E+00 -0.32004047187E+03  0.32004047187E+03  0.00000000000E+00 0. -1.
         25    2    1    2    0    0  0.11494263785E+03  0.67071615702E+02  0.19411701910E+03  0.26649738175E+03  0.12501610195E+03 0.  0.
          2    1    1    2  501    0 -0.98958746016E+02 -0.44454136609E+02 -0.27259557310E+03  0.29338941724E+03  0.00000000000E+00 0. -1.
          1    1    1    2  502    0 -0.15983891839E+02 -0.22617479093E+02  0.22269061350E+03  0.22440620424E+03  0.00000000000E+00 0. -1.
         22    1    3    3    0    0  0.48354475778E+02 -0.34263311327E+02  0.83311607414E+02  0.10223968780E+03  0.00000000000E+00 0.  1.
         22    1    3    3    0    0  0.66588162076E+02  0.10133492703E+03  0.11080541169E+03  0.16425769396E+03  0.00000000000E+00 0.  1.
</event>
<event>
 7    1  0.7961130E-006  0.8055144E+02  0.7818608E-02  0.1350410E+00
          2   -1    0    0  502    0  0.00000000000E+00  0.00000000000E+00  0.29973828212E+04  0.29973828212E+04  0.00000000000E+00 0. -1.
          1   -1    0    0  501    0 -0.00000000000E+00 -0.00000000000E+00 -0.11552303344E+04  0.11552303344E+04  0.00000000000E+00 0. -1.
         25    2    1    2    0    0  0.43648263657E+01  0.11124452488E+03  0.65896651583E+03  0.67989571835E+03  0.12500769103E+03 0.  0.
          2    1    1    2  501    0 -0.48531830317E+02 -0.44767595567E+02 -0.11431287705E+04  0.11450340004E+04  0.00000000000E+00 0. -1.
          1    1    1    2  502    0  0.44167003952E+02 -0.66476929317E+02  0.23263147414E+04  0.23276834369E+04  0.00000000000E+00 0. -1.
         22    1    3    3    0    0  0.57167836426E+02  0.63998404733E+02  0.23777968493E+03  0.25279069582E+03  0.00000000000E+00 0. -1.
         22    1    3    3    0    0 -0.52803010060E+02  0.47246120151E+02  0.42118683091E+03  0.42710502253E+03  0.00000000000E+00 0. -1.
</event>
<event>
 7    1  0.7961130E-006  0.1345210E+03  0.7818608E-02  0.1288136E+00
          2   -1    0    0  502    0  0.00000000000E+00  0.00000000000E+00  0.53900145406E+03  0.53900145406E+03  0.00000000000E+00 0. -1.
          1   -1    0    0  501    0 -0.00000000000E+00 -0.00000000000E+00 -0.52311166676E+03  0.52311166676E+03  0.00000000000E+00 0. -1.
         25    2    1    2    0    0  0.23275134317E+01 -0.68075725693E+02  0.21816669790E+03  0.26050952789E+03  0.12501513629E+03 0.  0.
          2    1    1    2  501    0 -0.38940730314E+01  0.13708620904E+03 -0.48839089256E+03  0.50728045148E+03  0.00000000000E+00 0. -1.
          1    1    1    2  502    0  0.15665595997E+01 -0.69010483343E+02  0.28611398197E+03  0.29432314146E+03  0.00000000000E+00 0. -1.
         22    1    3    3    0    0  0.87270540576E+01 -0.10311688967E+03  0.18425872806E+03  0.21133038890E+03  0.00000000000E+00 0. -1.
         22    1    3    3    0    0 -0.63995406259E+01  0.35041163974E+02  0.33907969835E+02  0.49179138984E+02  0.00000000000E+00 0. -1.
</event>
<event>
 7    1  0.7961130E-006  0.3855103E+02  0.7818608E-02  0.1554614E+00
          2   -1    0    0  502    0  0.00000000000E+00  0.00000000000E+00  0.14288798042E+04  0.14288798042E+04  0.00000000000E+00 0. -1.
          1   -1    0    0  501    0 -0.00000000000E+00 -0.00000000000E+00 -0.88017886032E+01  0.88017886032E+01  0.00000000000E+00 0. -1.
         25    2    1    2    0    0 -0.62354163100E+01  0.21469952307E+02  0.59499047676E+03  0.60838998898E+03  0.12499948798E+03 0.  0.
          2    1    1    2  501    0  0.10786983858E+02 -0.51703909375E+02  0.52716744506E+03  0.52980672740E+03  0.00000000000E+00 0. -1.
          1    1    1    2  502    0 -0.45515675483E+01  0.30233957068E+02  0.29792009373E+03  0.29948487638E+03  0.00000000000E+00 0. -1.
         22    1    3    3    0    0 -0.48666930760E+02 -0.49058962706E+01  0.48644938890E+03  0.48890238896E+03  0.00000000000E+00 0.  1.
         22    1    3    3    0    0  0.42431514450E+02  0.26375848577E+02  0.10854108786E+03  0.11948760003E+03  0.00000000000E+00 0.  1.
</event>
<event>
 7    1  0.7961130E-006  0.8081956E+02  0.7818608E-02  0.1424184E+00
          2   -1    0    0  502    0  0.00000000000E+00  0.00000000000E+00  0.11660318424E+04  0.11660318424E+04  0.00000000000E+00 0. -1.
          1   -1    0    0  501    0 -0.00000000000E+00 -0.00000000000E+00 -0.30448234510E+02  0.30448234510E+02  0.00000000000E+00 0. -1.
         25    2    1    2    0    0  0.12494740809E+02  0.53477122942E+02  0.52689837294E+03  0.54430017670E+03  0.12499946290E+03 0.  0.
          2    1    1    2  501    0  0.13944474662E+02  0.33487732901E+02 -0.47247918252E+00  0.36278090703E+02  0.00000000000E+00 0. -1.
          1    1    1    2  502    0 -0.26439215471E+02 -0.86964855843E+02  0.60915771415E+03  0.61590180952E+03  0.00000000000E+00 0. -1.
         22    1    3    3    0    0  0.63532093080E+02  0.16765160609E+01  0.22912401884E+03  0.23777500619E+03  0.00000000000E+00 0.  1.
         22    1    3    3    0    0 -0.51037352271E+02  0.51800606881E+02  0.29777435410E+03  0.30652517052E+03  0.00000000000E+00 0.  1.
</event>
<event>
 7    1  0.7961130E-006  0.2580930E+02  0.7818608E-02  0.1656460E+00
          2   -1    0    0  502    0  0.00000000000E+00  0.00000000000E+00  0.45997399583E+02  0.45997399583E+02  0.00000000000E+00 0. -1.
          1   -1    0    0  501    0 -0.00000000000E+00 -0.00000000000E+00 -0.10568660712E+04  0.10568660712E+04  0.00000000000E+00 0. -1.
         25    2    1    2    0    0 -0.58324186891E+01 -0.29742872273E+02 -0.10623874514E+03  0.16678433219E+03  0.12494673639E+03 0.  0.
          2    1    1    2  501    0 -0.16845008942E+02  0.19610001677E+02 -0.91024667123E+03  0.91061369909E+03  0.00000000000E+00 0. -1.
          1    1    1    2  502    0  0.22677427631E+02  0.10132870596E+02  0.56167447049E+01  0.25465439552E+02  0.00000000000E+00 0. -1.
         22    1    3    3    0    0 -0.24295958322E+02  0.42725827248E+02 -0.21164831259E+02  0.53513923300E+02  0.00000000000E+00 0.  1.
         22    1    3    3    0    0  0.18463539633E+02 -0.72468699521E+02 -0.85073913882E+02  0.11327040889E+03  0.00000000000E+00 0.  1.
</event>
<event>
 7    1  0.7961130E-006  0.8229613E+02  0.7818608E-02  0.1324817E+00
          2   -1    0    0  502    0  0.00000000000E+00  0.00000000000E+00  0.12610961371E+04  0.12610961371E+04  0.00000000000E+00 0. -1.
          1   -1    0    0  501    0 -0.00000000000E+00 -0.00000000000E+00 -0.85494363314E+03  0.85494363314E+03  0.00000000000E+00 0. -1.
         25    2    1    2    0    0  0.10052534499E+02 -0.71208358633E+02 -0.85456658036E+02  0.16762482977E+03  0.12499423733E+03 0.  0.
          2    1    1    2  501    0  0.68013916073E+02  0.43497874392E+02 -0.72475271120E+03  0.72923552454E+03  0.00000000000E+00 0. -1.
          1    1    1    2  502    0 -0.78066450572E+02  0.27710484241E+02  0.12163618732E+04  0.12191794159E+04  0.00000000000E+00 0. -1.
         22    1    3    3    0    0  0.12253560952E+02 -0.72761049742E+02  0.79198667176E+01  0.74209463038E+02  0.00000000000E+00 0.  1.
         22    1    3    3    0    0 -0.22010264530E+01  0.15526911091E+01 -0.93376524753E+02  0.93415366734E+02  0.00000000000E+00 0.  1.
</event>
<event>
 7    1  0.7961130E-006  0.1132089E+03  0.7818608E-02  0.1345524E+00
          2   -1    0    0  502    0  0.00000000000E+00  0.00000000000E+00  0.17028749514E+03  0.17028749514E+03  0.00000000000E+00 0. -1.
          1   -1    0    0  501    0 -0.00000000000E+00 -0.00000000000E+00 -0.10125259094E+04  0.10125259094E+04  0.00000000000E+00 0. -1.
         25    2    1    2    0    0 -0.12328153973E+03  0.20950667296E+02 -0.17702475354E+03  0.25020437130E+03  0.12500878190E+03 0.  0.
          2    1    1    2  501    0  0.95016271413E+02 -0.60958753645E+02 -0.79027445929E+03  0.79829680100E+03  0.00000000000E+00 0. -1.
          1    1    1    2  502    0  0.28265268320E+02  0.40008086349E+02  0.12506079861E+03  0.13431223219E+03  0.00000000000E+00 0. -1.
         22    1    3    3    0    0 -0.16118162150E+02 -0.15889922640E+02 -0.12227517598E+03  0.12435233594E+03  0.00000000000E+00 0. -1.
         22    1    3    3    0    0 -0.10716337758E+03  0.36840589936E+02 -0.54749577563E+02  0.12585203536E+03  0.00000000000E+00 0. -1.
</event>
<event>
 7    1  0.7961130E-006  0.6007987E+02  0.7818608E-02  0.1481724E+00
          2   -1    0    0  502    0  0.00000000000E+00  0.00000000000E+00  0.22726385721E+04  0.22726385721E+04  0.00000000000E+00 0. -1.
          1   -1    0    0  501    0 -0.00000000000E+00 -0.00000000000E+00 -0.38954364929E+02  0.38954364929E+02  0.00000000000E+00 0. -1.
         25    2    1    2    0    0 -0.36232806464E+02  0.65712195367E+02  0.72912136903E+03  0.74355967702E+03  0.12502845126E+03 0.  0.
          2    1    1    2  501    0  0.31309186769E+02 -0.65547782526E+01 -0.22948871038E+02  0.39368527735E+02  0.00000000000E+00 0. -1.
          1    1    1    2  502    0  0.49236196950E+01 -0.59157417115E+02  0.15275117092E+04  0.15286647323E+04  0.00000000000E+00 0. -1.
         22    1    3    3    0    0 -0.70780541895E+02  0.27084600601E+02  0.23952774683E+03  0.25123097381E+03  0.00000000000E+00 0.  1.
         22    1    3    3    0    0  0.34547735431E+02  0.38627594766E+02  0.48959362221E+03  0.49232870321E+03  0.00000000000E+00 0.  1.
</event>
<event>
 7    1  0.7961130E-006  0.7587134E+02  0.7818608E-02  0.1476820E+00
          2   -1    0    0  502    0  0.00000000000E+00  0.00000000000E+00  0.26377114822E+03  0.26377114822E+03  0.00000000000E+00 0. -1.
          1   -1    0    0  501    0 -0.00000000000E+00 -0.00000000000E+00 -0.17394940403E+04  0.17394940403E+04  0.00000000000E+00 0. -1.
         25    2    1    2    0    0 -0.89666981446E+02 -0.77922421455E+01 -0.28198534474E+03  0.32131228672E+03  0.12499985740E+03 0.  0.
          2    1    1    2  501    0  0.18687533833E+02 -0.18397659538E+02 -0.14318601194E+04  0.14321002407E+04  0.00000000000E+00 0. -1.
          1    1    1    2  502    0  0.70979447613E+02  0.26189901683E+02  0.23812257208E+03  0.24985266112E+03  0.00000000000E+00 0. -1.
         22    1    3    3    0    0 -0.99956433204E+02 -0.49165458996E+02 -0.20507527865E+03  0.23337609306E+03  0.00000000000E+00 0. -1.
         22    1    3    3    0    0  0.10289451758E+02  0.41373216851E+02 -0.76910066087E+02  0.87936193661E+02  0.00000000000E+00 0. -1.
</event>
<event>
 7    1  0.7961130E-006  0.6221521E+02  0.7818608E-02  0.1439297E+00
          2   -1    0    0  502    0  0.00000000000E+00  0.00000000000E+00  0.17071599524E+04  0.17071599524E+04  0.00000000000E+00 0. -1.
          1   -1    0    0  501    0 -0.00000000000E+00 -0.00000000000E+00 -0.17458622693E+03  0.17458622693E+03  0.00000000000E+00 0. -1.
         25    2    1    2    0    0  0.65982379829E+02  0.63995860802E+02  0.30708096251E+03  0.34405275610E+03  0.12499774716E+03 0.  0.
          2    1    1    2  501    0 -0.90821238675E+01 -0.41040496815E+02 -0.15257569173E+03  0.15825975186E+03  0.00000000000E+00 0. -1.
          1    1    1    2  502    0 -0.56900255961E+02 -0.22955363987E+02  0.13780684547E+04  0.13794336714E+04  0.00000000000E+00 0. -1.
         22    1    3    3    0    0  0.89681649379E+02  0.37966004454E+02  0.12427169175E+03  0.15788498694E+03  0.00000000000E+00 0. -1.
         22    1    3    3    0    0 -0.23699269550E+02  0.26029856348E+02  0.18280927076E+03  0.18616776917E+03  0.00000000000E+00 0. -1.
</event>
<event>
 7    1  0.7961130E-006  0.3549867E+03  0.7818608E-02  0.1281255E+00
          2   -1    0    0  502    0  0.00000000000E+00  0.00000000000E+00  0.33061967767E+03  0.33061967767E+03  0.00000000000E+00 0. -1.
          1   -1    0    0  501    0 -0.00000000000E+00 -0.00000000000E+00 -0.26937545972E+04  0.26937545972E+04  0.00000000000E+00 0. -1.
         25    2    1    2    0    0 -0.15529892361E+03 -0.34184737879E+03 -0.16801509154E+04  0.17261242966E+04  0.12498240970E+03 0.  0.
          2    1    1    2  501    0 -0.63945027842E+01  0.27172138567E+02 -0.88860891111E+03  0.88904724941E+03  0.00000000000E+00 0. -1.
          1    1    1    2  502    0  0.16169342639E+03  0.31467524022E+03  0.20562490697E+03  0.40920272887E+03  0.00000000000E+00 0. -1.
         22    1    3    3    0    0 -0.68212964395E+02 -0.36310654290E+02 -0.37264803113E+03  0.38057591521E+03  0.00000000000E+00 0.  1.
         22    1    3    3    0    0 -0.87085959215E+02 -0.30553672450E+03 -0.13075028842E+04  0.13455483814E+04  0.00000000000E+00 0.  1.
</event>
<event>
 7    1  0.7961130E-006  0.1046716E+03  0.7818608E-02  0.1308805E+00
          2   -1    0    0  502    0  0.00000000000E+00  0.00000000000E+00  0.11146262202E+04  0.11146262202E+04  0.00000000000E+00 0. -1.
          1   -1    0    0  501    0 -0.00000000000E+00 -0.00000000000E+00 -0.34540847433E+03  0.34540847433E+03  0.00000000000E+00 0. -1.
         25    2    1    2    0    0 -0.81194533993E+02 -0.12157962045E+03 -0.19445199008E+02  0.19333179278E+03  0.12499963950E+03 0.  0.
          2    1    1    2  501    0  0.88803712066E+02  0.48686075697E+02 -0.22691226100E+03  0.24848663432E+03  0.00000000000E+00 0. -1.
          1    1    1    2  502    0 -0.76091780735E+01  0.72893544753E+02  0.10155752059E+04  0.10182162675E+04  0.00000000000E+00 0. -1.
         22    1    3    3    0    0 -0.76300692238E+02 -0.12803662268E+03 -0.53475548278E+02  0.15835026570E+03  0.00000000000E+00 0.  1.
         22    1    3    3    0    0 -0.48938417544E+01  0.64570022340E+01  0.34030349270E+02  0.34981527074E+02  0.00000000000E+00 0.  1.
</event>
<event>
 7    1  0.1422450E-005  0.1202755E+03  0.7818608E-02  0.1382597E+00
          2   -1    0    0  502    0  0.00000000000E+00  0.00000000000E+00  0.89085374188E+03  0.89085374188E+03  0.00000000000E+00 0. -1.
          1   -1    0    0  501    0 -0.00000000000E+00 -0.00000000000E+00 -0.19014927371E+04  0.19014927371E+04  0.00000000000E+00 0. -1.
         25    2    1    2    0    0 -0.11309055996E+03 -0.96240140918E+02 -0.45824985760E+03  0.49767598353E+03  0.12504724353E+03 0.  0.
          2    1    1    2  501    0  0.11893721054E+02  0.31668004846E+02 -0.14191918219E+04  0.14195949248E+04  0.00000000000E+00 0. -1.
          1    1    1    2  502    0  0.10119683890E+03  0.64572136072E+02  0.86680268426E+03  0.87507557068E+03  0.00000000000E+00 0. -1.
         22    1    3    3    0    0 -0.76878382133E+02 -0.43982670414E+02 -0.40551156771E+03  0.41507155104E+03  0.00000000000E+00 0.  1.
         22    1    3    3    0    0 -0.36212177825E+02 -0.52257470504E+02 -0.52738289896E+02  0.82604432493E+02  0.00000000000E+00 0.  1.
</event>
<event>
 7    1  0.7961130E-006  0.1183400E+03  0.7818608E-02  0.1376515E+00
          2   -1    0    0  502    0  0.00000000000E+00  0.00000000000E+00  0.16247673863E+03  0.16247673863E+03  0.00000000000E+00 0. -1.
          1   -1    0    0  501    0 -0.00000000000E+00 -0.00000000000E+00 -0.11749536317E+04  0.11749536317E+04  0.00000000000E+00 0. -1.
         25    2    1    2    0    0  0.12803476958E+03  0.83172828214E+02 -0.58852140196E+03  0.62071903176E+03  0.12499621691E+03 0.  0.
          2    1    1    2  501    0 -0.32753233067E+02 -0.15252455303E+02 -0.54625665991E+03  0.54745022620E+03  0.00000000000E+00 0. -1.
          1    1    1    2  502    0 -0.95281536510E+02 -0.67920372911E+02  0.12230116883E+03  0.16926111235E+03  0.00000000000E+00 0. -1.
         22    1    3    3    0    0  0.29693250573E+02 -0.16317363214E+02 -0.31027397131E+02  0.45941754914E+02  0.00000000000E+00 0. -1.
         22    1    3    3    0    0  0.98341519004E+02  0.99490191428E+02 -0.55749400483E+03  0.57477727684E+03  0.00000000000E+00 0. -1.
</event>
<event>
 7    1  0.7961130E-006  0.7958624E+02  0.7818608E-02  0.1443860E+00
          2   -1    0    0  502    0  0.00000000000E+00  0.00000000000E+00  0.40213788768E+03  0.40213788768E+03  0.00000000000E+00 0. -1.
          1   -1    0    0  501    0 -0.00000000000E+00 -0.00000000000E+00 -0.50753035576E+03  0.50753035576E+03  0.00000000000E+00 0. -1.
         25    2    1    2    0    0 -0.69784988279E+02  0.84948876298E+02  0.34458926189E+02  0.16999714770E+03  0.12500142583E+03 0.  0.
          2    1    1    2  501    0  0.46636098099E+02 -0.63204610329E+02 -0.43539621187E+03  0.44242469385E+03  0.00000000000E+00 0. -1.
          1    1    1    2  502    0  0.23148890180E+02 -0.21744265968E+02  0.29554481761E+03  0.29724640189E+03  0.00000000000E+00 0. -1.
         22    1    3    3    0    0 -0.18098430982E+02  0.47577782833E+02  0.77735617920E+02  0.92919453919E+02  0.00000000000E+00 0.  1.
         22    1    3    3    0    0 -0.51686557296E+02  0.37371093465E+02 -0.43276691731E+02  0.77077693784E+02  0.00000000000E+00 0.  1.
</event>
<event>
 7    1  0.7961130E-006  0.1522904E+03  0.7818608E-02  0.1216879E+00
          2   -1    0    0  502    0  0.00000000000E+00  0.00000000000E+00  0.25875187958E+04  0.25875187958E+04  0.00000000000E+00 0. -1.
          1   -1    0    0  501    0 -0.00000000000E+00 -0.00000000000E+00 -0.26454685129E+03  0.26454685129E+03  0.00000000000E+00 0. -1.
         25    2    1    2    0    0 -0.35257789750E+02 -0.67266756304E+02  0.52602990809E+03  0.54598535940E+03  0.12499848091E+03 0.  0.
          2    1    1    2  501    0  0.27396344791E+02 -0.12088965027E+03 -0.23486309295E+03  0.26556645060E+03  0.00000000000E+00 0. -1.
          1    1    1    2  502    0  0.78614449595E+01  0.18815640658E+03  0.20318051294E+04  0.20405138371E+04  0.00000000000E+00 0. -1.
         22    1    3    3    0    0 -0.16734896357E+02 -0.10405902122E+02  0.34636453060E+01  0.20008408079E+02  0.00000000000E+00 0.  1.
         22    1    3    3    0    0 -0.18522893393E+02 -0.56860854182E+02  0.52256626279E+03  0.52597695132E+03  0.00000000000E+00 0.  1.
</event>
<event>
 7    1  0.7961130E-006  0.4466595E+02  0.7818608E-02  0.1516776E+00
          2   -1    0    0  502    0  0.00000000000E+00  0.00000000000E+00  0.81380952087E+03  0.81380952087E+03  0.00000000000E+00 0. -1.
          1   -1    0    0  501    0 -0.00000000000E+00 -0.00000000000E+00 -0.51428508249E+02  0.51428508249E+02  0.00000000000E+00 0. -1.
         25    2    1    2    0    0  0.15498828503E+02  0.31548090327E+02  0.25376774177E+03  0.28505871782E+03  0.12499964062E+03 0.  0.
          2    1    1    2  501    0  0.28469170031E+02 -0.18233951434E+02 -0.26587777718E+02  0.43010237748E+02  0.00000000000E+00 0. -1.
          1    1    1    2  502    0 -0.43967998534E+02 -0.13314138893E+02  0.53520104857E+03  0.53716907355E+03  0.00000000000E+00 0. -1.
         22    1    3    3    0    0  0.53059739167E+02  0.43429454326E+02  0.22774924363E+03  0.23784694952E+03  0.00000000000E+00 0. -1.
         22    1    3    3    0    0 -0.37560910663E+02 -0.11881363999E+02  0.26018498142E+02  0.47211768299E+02  0.00000000000E+00 0. -1.
</event>
<event>
 7    1  0.7961130E-006  0.5401988E+02  0.7818608E-02  0.1502410E+00
          2   -1    0    0  502    0  0.00000000000E+00  0.00000000000E+00  0.69017686447E+02  0.69017686447E+02  0.00000000000E+00 0. -1.
          1   -1    0    0  501    0 -0.00000000000E+00 -0.00000000000E+00 -0.21903178692E+04  0.21903178692E+04  0.00000000000E+00 0. -1.
         25    2    1    2    0    0 -0.76950259187E+02 -0.33070106960E+02 -0.10360556471E+04  0.10469245781E+04  0.12499917567E+03 0.  0.
          2    1    1    2  501    0  0.30012773018E+02  0.69830946592E+01 -0.11372435906E+04  0.11376609840E+04  0.00000000000E+00 0. -1.
          1    1    1    2  502    0  0.46937486168E+02  0.26087012301E+02  0.51999054969E+02  0.74749993553E+02  0.00000000000E+00 0. -1.
         22    1    3    3    0    0 -0.45352936488E+02  0.22256216963E+02 -0.82292973060E+03  0.82447896853E+03  0.00000000000E+00 0. -1.
         22    1    3    3    0    0 -0.31597322699E+02 -0.55326323922E+02 -0.21312591649E+03  0.22244560953E+03  0.00000000000E+00 0. -1.
</event>
<event>
 7    1  0.7961130E-006  0.1039846E+03  0.7818608E-02  0.1340094E+00
          2   -1    0    0  502    0  0.00000000000E+00  0.00000000000E+00  0.98663117232E+03  0.98663117232E+03  0.00000000000E+00 0. -1.
          1   -1    0    0  501    0 -0.00000000000E+00 -0.00000000000E+00 -0.98796994371E+03  0.98796994371E+03  0.00000000000E+00 0. -1.
         25    2    1    2    0    0 -0.20846473711E+02  0.15443149871E+03  0.45651237480E+03  0.49830903477E+03  0.12499873010E+03 0.  0.
          2    1    1    2  501    0  0.29916339117E+02 -0.99284208820E+02 -0.96274566681E+03  0.96831377169E+03  0.00000000000E+00 0. -1.
          1    1    1    2  502    0 -0.90698654064E+01 -0.55147289894E+02  0.50489452062E+03  0.50797830957E+03  0.00000000000E+00 0. -1.
         22    1    3    3    0    0 -0.58627943012E+02  0.23928693218E+02  0.12785146318E+03  0.14267380523E+03  0.00000000000E+00 0. -1.
         22    1    3    3    0    0  0.37781469302E+02  0.13050280550E+03  0.32866091162E+03  0.35563522954E+03  0.00000000000E+00 0. -1.
</event>
<event>
 7    1  0.7961130E-006  0.1591462E+03  0.7818608E-02  0.1335352E+00
          2   -1    0    0  502    0  0.00000000000E+00  0.00000000000E+00  0.96825477113E+03  0.96825477113E+03  0.00000000000E+00 0. -1.
          1   -1    0    0  501    0 -0.00000000000E+00 -0.00000000000E+00 -0.69244415029E+02  0.69244415029E+02  0.00000000000E+00 0. -1.
         25    2    1    2    0    0 -0.13321926073E+03 -0.17685117469E+02  0.47916240352E+03  0.51310910897E+03  0.12499685577E+03 0.  0.
          2    1    1    2  501    0  0.16005227692E+03  0.44667897504E+02  0.83632202280E+02  0.18602767986E+03  0.00000000000E+00 0. -1.
          1    1    1    2  502    0 -0.26833016187E+02 -0.26982780035E+02  0.33621575030E+03  0.33836239733E+03  0.00000000000E+00 0. -1.
         22    1    3    3    0    0 -0.10280854398E+03 -0.10147789742E+02  0.46889210806E+03  0.48013787952E+03  0.00000000000E+00 0. -1.
         22    1    3    3    0    0 -0.30410716755E+02 -0.75373277271E+01  0.10270295465E+02  0.32971229455E+02  0.00000000000E+00 0. -1.
</event>
<event>
 7    1  0.7961130E-006  0.6341399E+02  0.7818608E-02  0.1431610E+00
          2   -1    0    0  502    0  0.00000000000E+00  0.00000000000E+00  0.29194891938E+03  0.29194891938E+03  0.00000000000E+00 0. -1.
          1   -1    0    0  501    0 -0.00000000000E+00 -0.00000000000E+00 -0.13427088175E+04  0.13427088175E+04  0.00000000000E+00 0. -1.
         25    2    1    2    0    0  0.52773317067E+02 -0.84043777511E+02 -0.89507277496E+02  0.18298819358E+03  0.12499898692E+03 0.  0.
          2    1    1    2  501    0 -0.36743489869E+02  0.23644142530E+02 -0.12020763306E+04  0.12028701652E+04  0.00000000000E+00 0. -1.
          1    1    1    2  502    0 -0.16029827197E+02  0.60399634982E+02  0.24082371001E+03  0.24879937816E+03  0.00000000000E+00 0. -1.
         22    1    3    3    0    0  0.41013418531E+02 -0.35538234739E+02 -0.11483971208E+03  0.12701663709E+03  0.00000000000E+00 0.  1.
         22    1    3    3    0    0  0.11759898536E+02 -0.48505542773E+02  0.25332434583E+02  0.55971556483E+02  0.00000000000E+00 0.  1.
</event>
<event>
 7    1  0.7961130E-006  0.6622099E+02  0.7818608E-02  0.1449889E+00
          2   -1    0    0  502    0  0.00000000000E+00  0.00000000000E+00  0.14945948445E+04  0.14945948445E+04  0.00000000000E+00 0. -1.
          1   -1    0    0  501    0 -0.00000000000E+00 -0.00000000000E+00 -0.22679510087E+02  0.22679510087E+02  0.00000000000E+00 0. -1.
         25    2    1    2    0    0 -0.76284980344E+02  0.36383699980E+02  0.43041089079E+03  0.45609438455E+03  0.12500152339E+03 0.  0.
          2    1    1    2  501    0  0.63097537785E+02 -0.23446449373E+01  0.95588103294E+02  0.11455951347E+03  0.00000000000E+00 0. -1.
          1    1    1    2  502    0  0.13187442558E+02 -0.34039055043E+02  0.94591634032E+03  0.94662045657E+03  0.00000000000E+00 0. -1.
         22    1    3    3    0    0  0.15755133743E+02 -0.96415360911E+01  0.60533836337E+01  0.19437770214E+02  0.00000000000E+00 0.  1.
         22    1    3    3    0    0 -0.92040114087E+02  0.46025236071E+02  0.42435750716E+03  0.43665661433E+03  0.00000000000E+00 0.  1.
</event>
<event>
 7    1  0.1428554E-005  0.5519481E+02  0.7818608E-02  0.1421084E+00
          2   -1    0    0  502    0  0.00000000000E+00  0.00000000000E+00  0.99930922217E+03  0.99930922217E+03  0.00000000000E+00 0. -1.
          1   -1    0    0  501    0 -0.00000000000E+00 -0.00000000000E+00 -0.10337141891E+04  0.10337141891E+04  0.00000000000E+00 0. -1.
         25    2    1    2    0    0  0.51035361854E+02  0.33008508521E+02 -0.33912968379E+03  0.36650945264E+03  0.12500426654E+03 0.  0.
          2    1    1    2  501    0 -0.10146649285E+00 -0.54392301771E+02 -0.67903224866E+03  0.68120725738E+03  0.00000000000E+00 0. -1.
          1    1    1    2  502    0 -0.50933895361E+02  0.21383793250E+02  0.98375696552E+03  0.98530670125E+03  0.00000000000E+00 0. -1.
         22    1    3    3    0    0  0.66388206017E+02 -0.85113808249E+00 -0.31560734815E+03  0.32251529660E+03  0.00000000000E+00 0. -1.
         22    1    3    3    0    0 -0.15352844163E+02  0.33859646604E+02 -0.23522335646E+02  0.43994156046E+02  0.00000000000E+00 0. -1.
</event>
<event>
 7    1  0.7961130E-006  0.4615363E+02  0.7818608E-02  0.1571214E+00
          2   -1    0    0  502    0  0.00000000000E+00  0.00000000000E+00  0.12850678300E+04  0.12850678300E+04  0.00000000000E+00 0. -1.
          1   -1    0    0  501    0 -0.00000000000E+00 -0.00000000000E+00 -0.17209869716E+02  0.17209869716E+02  0.00000000000E+00 0. -1.
         25    2    1    2    0    0 -0.45159001904E+02 -0.45038232967E+02  0.86411903266E+03  0.87543953493E+03  0.12499959535E+03 0.  0.
          2    1    1    2  501    0  0.99665294030E+01  0.20725132144E+02  0.22831613621E+01  0.23110076515E+02  0.00000000000E+00 0. -1.
          1    1    1    2  502    0  0.35192472501E+02  0.24313100823E+02  0.40145576631E+03  0.40372808832E+03  0.00000000000E+00 0. -1.
         22    1    3    3    0    0  0.21828174126E+02  0.18813269497E+02  0.66571849475E+02  0.72541156852E+02  0.00000000000E+00 0. -1.
         22    1    3    3    0    0 -0.66987176030E+02 -0.63851502464E+02  0.79754718318E+03  0.80289837808E+03  0.00000000000E+00 0. -1.
</event>
<event>
 7    1  0.7961130E-006  0.9385542E+02  0.7818608E-02  0.1349621E+00
          2   -1    0    0  502    0  0.00000000000E+00  0.00000000000E+00  0.27179534049E+04  0.27179534049E+04  0.00000000000E+00 0. -1.
          1   -1    0    0  501    0 -0.00000000000E+00 -0.00000000000E+00 -0.19394798320E+02  0.19394798320E+02  0.00000000000E+00 0. -1.
         25    2    1    2    0    0 -0.59908171191E+02  0.12205431470E+03  0.12246586225E+04  0.12385069983E+04  0.12499839353E+03 0.  0.
          2    1    1    2  501    0  0.14405118868E+02 -0.87643390270E+02  0.15451871112E+03  0.17822711184E+03  0.00000000000E+00 0. -1.
          1    1    1    2  502    0  0.45503052324E+02 -0.34410924429E+02  0.13193812729E+04  0.13206140931E+04  0.00000000000E+00 0. -1.
         22    1    3    3    0    0  0.63551994293E+01  0.13586731475E+02  0.12010553062E+02  0.19215650310E+02  0.00000000000E+00 0. -1.
         22    1    3    3    0    0 -0.66263370621E+02  0.10846758322E+03  0.12126480695E+04  0.12192913480E+04  0.00000000000E+00 0. -1.
</event>
<event>
 7    1  0.1079307E-005  0.1280786E+03  0.7818608E-02  0.1305372E+00
          2   -1    0    0  502    0  0.00000000000E+00  0.00000000000E+00  0.22383258568E+04  0.22383258568E+04  0.00000000000E+00 0. -1.
          1   -1    0    0  501    0 -0.00000000000E+00 -0.00000000000E+00 -0.74793303487E+03  0.74793303487E+03  0.00000000000E+00 0. -1.
         25    2    1    2    0    0 -0.36030497290E+02 -0.76144809853E+02 -0.85305071983E+02  0.17320067135E+03  0.12500115379E+03 0.  0.
          2    1    1    2  501    0  0.32396570045E+02 -0.52627336261E+02 -0.61524013907E+03  0.61833615695E+03  0.00000000000E+00 0. -1.
          1    1    1    2  502    0  0.36339272452E+01  0.12877214611E+03  0.21909380329E+04  0.21947220633E+04  0.00000000000E+00 0. -1.
         22    1    3    3    0    0 -0.15372287354E+02  0.31478164613E+02 -0.11873604317E+01  0.35051275165E+02  0.00000000000E+00 0. -1.
         22    1    3    3    0    0 -0.20658209936E+02 -0.10762297447E+03 -0.84117711551E+02  0.13814939619E+03  0.00000000000E+00 0. -1.
</event>
<event>
 7    1  0.7961130E-006  0.7581103E+02  0.7818608E-02  0.1391645E+00
          2   -1    0    0  502    0  0.00000000000E+00  0.00000000000E+00  0.89286943705E+03  0.89286943705E+03  0.00000000000E+00 0. -1.
          1   -1    0    0  501    0 -0.00000000000E+00 -0.00000000000E+00 -0.44340016729E+03  0.44340016729E+03  0.00000000000E+00 0. -1.
         25    2    1    2    0    0  0.14142675002E+02 -0.81678582484E+02 -0.15432452311E+03  0.21518235375E+03  0.12496391815E+03 0.  0.
          2    1    1    2  501    0 -0.55344838456E+02  0.53547980037E+02 -0.25217208228E+03  0.26366872472E+03  0.00000000000E+00 0. -1.
          1    1    1    2  502    0  0.41202163454E+02  0.28130602448E+02  0.85596587516E+03  0.85741852587E+03  0.00000000000E+00 0. -1.
         22    1    3    3    0    0 -0.46073202021E+02 -0.19910865853E+02 -0.10358353335E+03  0.11510313160E+03  0.00000000000E+00 0. -1.
         22    1    3    3    0    0  0.60215877023E+02 -0.61767716632E+02 -0.50740989758E+02  0.10007922214E+03  0.00000000000E+00 0. -1.
</event>
<event>
 7    1  0.7961130E-006  0.5648198E+02  0.7818608E-02  0.1535963E+00
          2   -1    0    0  502    0  0.00000000000E+00  0.00000000000E+00  0.23605387498E+04  0.23605387498E+04  0.00000000000E+00 0. -1.
          1   -1    0    0  501    0 -0.00000000000E+00 -0.00000000000E+00 -0.27395797478E+02  0.27395797478E+02  0.00000000000E+00 0. -1.
         25    2    1    2    0    0  0.62849545936E+02 -0.10607916540E+02  0.15998027316E+04  0.16059431435E+04  0.12498802675E+03 0.  0.
          2    1    1    2  501    0 -0.15529020036E+02 -0.17693852274E+02 -0.17371609542E+02  0.29257404014E+02  0.00000000000E+00 0. -1.
          1    1    1    2  502    0 -0.47320525900E+02  0.28301768814E+02  0.75071183027E+03  0.75273399976E+03  0.00000000000E+00 0. -1.
         22    1    3    3    0    0  0.76089543701E+02 -0.50069353556E+02  0.82279172085E+03  0.82781808069E+03  0.00000000000E+00 0.  1.
         22    1    3    3    0    0 -0.13239997765E+02  0.39461437016E+02  0.77701101073E+03  0.77812506280E+03  0.00000000000E+00 0.  1.
</event>
<event>
 7    1  0.7961130E-006  0.4221008E+02  0.7818608E-02  0.1591041E+00
          2   -1    0    0  502    0  0.00000000000E+00  0.00000000000E+00  0.23778108907E+04  0.23778108907E+04  0.00000000000E+00 0. -1.
          1   -1    0    0  501    0 -0.00000000000E+00 -0.00000000000E+00 -0.92638184199E+02  0.92638184199E+02  0.00000000000E+00 0. -1.
         25    2    1    2    0    0  0.54779327479E+02  0.32507693675E+02  0.94940527511E+02  0.16940114404E+03  0.12500207587E+03 0.  0.
          2    1    1    2  501    0 -0.20983041602E+02 -0.74070549310E+01 -0.52968265089E+02  0.57452498676E+02  0.00000000000E+00 0. -1.
          1    1    1    2  502    0 -0.33796285877E+02 -0.25100638744E+02  0.22432004440E+04  0.22435954322E+04  0.00000000000E+00 0. -1.
         22    1    3    3    0    0 -0.19980222602E+02  0.14977021834E+01  0.85616813261E+02  0.87930035369E+02  0.00000000000E+00 0. -1.
         22    1    3    3    0    0  0.74759550081E+02  0.31009991492E+02  0.93237142501E+01  0.81471108670E+02  0.00000000000E+00 0. -1.
</event>
<event>
 7    1  0.7961130E-006  0.1502825E+03  0.7818608E-02  0.1220377E+00
          2   -1    0    0  502    0  0.00000000000E+00  0.00000000000E+00  0.20578032091E+04  0.20578032091E+04  0.00000000000E+00 0. -1.
          1   -1    0    0  501    0 -0.00000000000E+00 -0.00000000000E+00 -0.42965792371E+03  0.42965792371E+03  0.00000000000E+00 0. -1.
         25    2    1    2    0    0  0.50594536996E+02 -0.15954974942E+03  0.54930606736E+03  0.58768888279E+03  0.12500055037E+03 0.  0.
          2    1    1    2  501    0 -0.13323642866E+03  0.71070529542E+02 -0.39400962569E+03  0.42195562708E+03  0.00000000000E+00 0. -1.
          1    1    1    2  502    0  0.82641891659E+02  0.88479219882E+02  0.14728488437E+04  0.14778166230E+04  0.00000000000E+00 0. -1.
         22    1    3    3    0    0  0.81600368530E+02 -0.15681853977E+03  0.48581587646E+03  0.51697943903E+03  0.00000000000E+00 0.  1.
         22    1    3    3    0    0 -0.31005831534E+02 -0.27312096581E+01  0.63490190906E+02  0.70709443758E+02  0.00000000000E+00 0.  1.
</event>
<event>
 7    1  0.7961130E-006  0.5110654E+02  0.7818608E-02  0.1522691E+00
          2   -1    0    0  502    0  0.00000000000E+00  0.00000000000E+00  0.15645385480E+04  0.15645385480E+04  0.00000000000E+00 0. -1.
          1   -1    0    0  501    0 -0.00000000000E+00 -0.00000000000E+00 -0.78799106498E+03  0.78799106498E+03  0.00000000000E+00 0. -1.
         25    2    1    2    0    0  0.14134922733E+02  0.71052772017E+02  0.61704468794E+02  0.15710121181E+03  0.12500022732E+03 0.  0.
          2    1    1    2  501    0 -0.24580651837E+02 -0.44642425365E+02 -0.73927679386E+03  0.74103126285E+03  0.00000000000E+00 0. -1.
          1    1    1    2  502    0  0.10445729103E+02 -0.26410346652E+02  0.14541198081E+04  0.14543971383E+04  0.00000000000E+00 0. -1.
         22    1    3    3    0    0  0.30520690064E+02  0.92318315894E+02  0.78902350346E+02  0.12521886783E+03  0.00000000000E+00 0.  1.
         22    1    3    3    0    0 -0.16385767331E+02 -0.21265543877E+02 -0.17197881552E+02  0.31882343974E+02  0.00000000000E+00 0.  1.
</event>
<event>
 7    1  0.7961130E-006  0.2161765E+03  0.7818608E-02  0.1322082E+00
          2   -1    0    0  502    0  0.00000000000E+00  0.00000000000E+00  0.40020795849E+03  0.40020795849E+03  0.00000000000E+00 0. -1.
          1   -1    0    0  501    0 -0.00000000000E+00 -0.00000000000E+00 -0.10888191851E+04  0.10888191851E+04  0.00000000000E+00 0. -1.
         25    2    1    2    0    0 -0.17946404649E+03  0.85463694276E+02  0.20818999645E+02  0.23573326656E+03  0.12500142077E+03 0.  0.
          2    1    1    2  501    0 -0.30518582143E+02 -0.77631857606E+01 -0.93496501320E+03  0.93549517734E+03  0.00000000000E+00 0. -1.
          1    1    1    2  502    0  0.20998262863E+03 -0.77700508516E+02  0.22553478699E+03  0.31779869964E+03  0.00000000000E+00 0. -1.
         22    1    3    3    0    0 -0.19868087691E+03  0.74133453397E+02  0.23067576745E+02  0.21331191448E+03  0.00000000000E+00 0.  1.
         22    1    3    3    0    0  0.19216830425E+02  0.11330240879E+02 -0.22485770994E+01  0.22421352076E+02  0.00000000000E+00 0.  1.
</event>
<event>
 7    1  0.7961130E-006  0.7014261E+02  0.7818608E-02  0.1446019E+00
          2   -1    0    0  502    0  0.00000000000E+00  0.00000000000E+00  0.15596217631E+03  0.15596217631E+03  0.00000000000E+00 0. -1.
          1   -1    0    0  501    0 -0.00000000000E+00 -0.00000000000E+00 -0.33495830260E+03  0.33495830260E+03  0.00000000000E+00 0. -1.
         25    2    1    2    0    0 -0.10277456367E+03  0.15829930598E+02  0.27017880498E+02  0.16483526874E+03  0.12501000886E+03 0.  0.
          2    1    1    2  501    0  0.67568846924E+02 -0.11564960373E+02 -0.25587518275E+03  0.26489886095E+03  0.00000000000E+00 0. -1.
          1    1    1    2  502    0  0.35205716748E+02 -0.42649702248E+01  0.49861175961E+02  0.61186349221E+02  0.00000000000E+00 0. -1.
         22    1    3    3    0    0 -0.29470579646E+02  0.56164962294E+02 -0.22868072427E+02  0.67423785052E+02  0.00000000000E+00 0. -1.
         22    1    3    3    0    0 -0.73303984026E+02 -0.40335031696E+02  0.49885952925E+02  0.97411483693E+02  0.00000000000E+00 0. -1.
</event>
<event>
 7    1  0.7961130E-006  0.9357796E+02  0.7818608E-02  0.1295696E+00
          2   -1    0    0  502    0  0.00000000000E+00  0.00000000000E+00  0.18229044816E+03  0.18229044816E+03  0.00000000000E+00 0. -1.
          1   -1    0    0  501    0 -0.00000000000E+00 -0.00000000000E+00 -0.17353344841E+04  0.17353344841E+04  0.00000000000E+00 0. -1.
         25    2    1    2    0    0  0.12346910578E+03 -0.74648924204E+02 -0.49279545253E+03  0.52847906781E+03  0.12500274038E+03 0.  0.
          2    1    1    2  501    0 -0.31239051278E+02  0.87031234535E+02 -0.12096251085E+04  0.12131542430E+04  0.00000000000E+00 0. -1.
          1    1    1    2  502    0 -0.92230054502E+02 -0.12382310331E+02  0.14937652513E+03  0.17599162146E+03  0.00000000000E+00 0. -1.
         22    1    3    3    0    0 -0.15225926377E+00  0.15553513946E+02 -0.17570705173E+03  0.17639416942E+03  0.00000000000E+00 0. -1.
         22    1    3    3    0    0  0.12362136504E+03 -0.90202438150E+02 -0.31708840081E+03  0.35208489838E+03  0.00000000000E+00 0. -1.
</event>
<event>
 7    1  0.7961130E-006  0.3436617E+03  0.7818608E-02  0.1258935E+00
          2   -1    0    0  502    0  0.00000000000E+00  0.00000000000E+00  0.32936813176E+03  0.32936813176E+03  0.00000000000E+00 0. -1.
          1   -1    0    0  501    0 -0.00000000000E+00 -0.00000000000E+00 -0.47836574211E+03  0.47836574211E+03  0.00000000000E+00 0. -1.
         25    2    1    2    0    0 -0.36011490752E+03 -0.17469036359E+02 -0.17679363018E+03  0.42055787252E+03  0.12500009046E+03 0.  0.
          2    1    1    2  501    0  0.24263215197E+02  0.26296019202E+02 -0.29481263572E+02  0.46360857837E+02  0.00000000000E+00 0. -1.
          1    1    1    2  502    0  0.33585169232E+03 -0.88269828429E+01  0.57277283409E+02  0.34081514352E+03  0.00000000000E+00 0. -1.
         22    1    3    3    0    0 -0.27553224347E+02  0.65054184590E+00  0.19683711690E+02  0.33868154400E+02  0.00000000000E+00 0.  1.
         22    1    3    3    0    0 -0.33256168317E+03 -0.18119578205E+02 -0.19647734187E+03  0.38668971812E+03  0.00000000000E+00 0.  1.
</event>
<event>
 7    1  0.7961130E-006  0.1022777E+03  0.7818608E-02  0.1283538E+00
          2   -1    0    0  502    0  0.00000000000E+00  0.00000000000E+00  0.95755315907E+03  0.95755315907E+03  0.00000000000E+00 0. -1.
          1   -1    0    0  501    0 -0.00000000000E+00 -0.00000000000E+00 -0.36765537348E+03  0.36765537348E+03  0.00000000000E+00 0. -1.
         25    2    1    2    0    0  0.86560032046E+02  0.51358494917E+01 -0.10315619610E+03  0.18380256157E+03  0.12499265878E+03 0.  0.
          2    1    1    2  501    0 -0.38673681290E+02  0.86565706447E+02 -0.21106785551E+03  0.23138477648E+03  0.00000000000E+00 0. -1.
          1    1    1    2  502    0 -0.47886350756E+02 -0.91701555939E+02  0.90412183720E+03  0.91002119450E+03  0.00000000000E+00 0. -1.
         22    1    3    3    0    0 -0.26146276724E+02 -0.21041146241E+02 -0.93268985634E+01  0.34833154587E+02  0.00000000000E+00 0.  1.
         22    1    3    3    0    0  0.11270630877E+03  0.26176995733E+02 -0.93829297532E+02  0.14896940698E+03  0.00000000000E+00 0.  1.
</event>
<event>
 7    1  0.7961130E-006  0.1169717E+03  0.7818608E-02  0.1366592E+00
          2   -1    0    0  502    0  0.00000000000E+00  0.00000000000E+00  0.10260532813E+03  0.10260532813E+03  0.00000000000E+00 0. -1.
          1   -1    0    0  501    0 -0.00000000000E+00 -0.00000000000E+00 -0.22707958376E+04  0.22707958376E+04  0.00000000000E+00 0. -1.
         25    2    1    2    0    0 -0.86056687746E+02  0.16757988817E+02 -0.32891585954E+03  0.36262516943E+03  0.12499914861E+03 0.  0.
          2    1    1    2  501    0 -0.34728200886E+02 -0.19184728363E+02 -0.18821619425E+04  0.18825800593E+04  0.00000000000E+00 0. -1.
          1    1    1    2  502    0  0.12078488863E+03  0.24267395456E+01  0.42887292639E+02  0.12819593697E+03  0.00000000000E+00 0. -1.
         22    1    3    3    0    0 -0.10017916129E+03 -0.26925052066E+02 -0.19220142717E+03  0.21840835925E+03  0.00000000000E+00 0. -1.
         22    1    3    3    0    0  0.14122473542E+02  0.43683040883E+02 -0.13671443237E+03  0.14421681018E+03  0.00000000000E+00 0. -1.
</event>
<event>
 7    1  0.7961130E-006  0.6723182E+02  0.7818608E-02  0.1475732E+00
          2   -1    0    0  502    0  0.00000000000E+00  0.00000000000E+00  0.39032584731E+03  0.39032584731E+03  0.00000000000E+00 0. -1.
          1   -1    0    0  501    0 -0.00000000000E+00 -0.00000000000E+00 -0.19476760750E+04  0.19476760750E+04  0.00000000000E+00 0. -1.
         25    2    1    2    0    0  0.13069147599E+02  0.95919341330E+02 -0.36968572500E+03  0.40207464910E+03  0.12500066207E+03 0.  0.
          2    1    1    2  501    0 -0.49163514528E+01 -0.29415314396E+02 -0.15586523123E+04  0.15589376068E+04  0.00000000000E+00 0. -1.
          1    1    1    2  502    0 -0.81527961466E+01 -0.66504026934E+02  0.37098780963E+03  0.37698966641E+03  0.00000000000E+00 0. -1.
         22    1    3    3    0    0 -0.42090066146E+02  0.81053970623E+02 -0.28989639512E+03  0.30394282312E+03  0.00000000000E+00 0.  1.
         22    1    3    3    0    0  0.55159213745E+02  0.14865370707E+02 -0.79789329878E+02  0.98131825978E+02  0.00000000000E+00 0.  1.
</event>
<event>
 7    1  0.7961130E-006  0.9371842E+02  0.7818608E-02  0.1411805E+00
          2   -1    0    0  502    0  0.00000000000E+00  0.00000000000E+00  0.20770061435E+03  0.20770061435E+03  0.00000000000E+00 0. -1.
          1   -1    0    0  501    0 -0.00000000000E+00 -0.00000000000E+00 -0.13016666453E+04  0.13016666453E+04  0.00000000000E+00 0. -1.
         25    2    1    2    0    0 -0.20488742782E+02  0.10468445892E+03 -0.51880229549E+02  0.17232270590E+03  0.12499972892E+03 0.  0.
          2    1    1    2  501    0 -0.24795409596E+02 -0.23867688302E+02 -0.11747404517E+04  0.11752444885E+04  0.00000000000E+00 0. -1.
          1    1    1    2  502    0  0.45284152377E+02 -0.80816770617E+02  0.13265465031E+03  0.16180006526E+03  0.00000000000E+00 0. -1.
         22    1    3    3    0    0 -0.22067708212E+02 -0.22730058659E+02  0.62079000858E+01  0.32282771502E+02  0.00000000000E+00 0. -1.
         22    1    3    3    0    0  0.15789654302E+01  0.12741451758E+03 -0.58088129635E+02  0.14003993440E+03  0.00000000000E+00 0. -1.
</event>
<event>
 7    1  0.7961130E-006  0.9128011E+02  0.7818608E-02  0.1312739E+00
          2   -1    0    0  502    0  0.00000000000E+00  0.00000000000E+00  0.67473896563E+02  0.67473896563E+02  0.00000000000E+00 0. -1.
          1   -1    0    0  501    0 -0.00000000000E+00 -0.00000000000E+00 -0.30815194193E+04  0.30815194193E+04  0.00000000000E+00 0. -1.
         25    2    1    2    0    0  0.70033010961E+01 -0.14202906730E+02 -0.20561332748E+03  0.24114759143E+03  0.12499820650E+03 0.  0.
          2    1    1    2  501    0 -0.76900784601E+02  0.55327294110E+02 -0.28237290169E+04  0.28253177522E+04  0.00000000000E+00 0. -1.
          1    1    1    2  502    0  0.69897483505E+02 -0.41124387380E+02  0.15296821681E+02  0.82527972175E+02  0.00000000000E+00 0. -1.
         22    1    3    3    0    0  0.52376224268E+02 -0.44822583970E+02 -0.13707318557E+03  0.15343204067E+03  0.00000000000E+00 0. -1.
         22    1    3    3    0    0 -0.45372923171E+02  0.30619677240E+02 -0.68540141912E+02  0.87715550757E+02  0.00000000000E+00 0. -1.
</event>
<event>
 7    1  0.7961130E-006  0.8108758E+02  0.7818608E-02  0.1482925E+00
          2   -1    0    0  502    0  0.00000000000E+00  0.00000000000E+00  0.39367798471E+03  0.39367798471E+03  0.00000000000E+00 0. -1.
          1   -1    0    0  501    0 -0.00000000000E+00 -0.00000000000E+00 -0.74342935369E+03  0.74342935369E+03  0.00000000000E+00 0. -1.
         25    2    1    2    0    0 -0.59685194138E+02 -0.11351600117E+02 -0.25792382220E+02  0.14135668146E+03  0.12500113275E+03 0.  0.
          2    1    1    2  501    0  0.77583652960E+02  0.26581597840E+02 -0.65689079249E+03  0.66199042124E+03  0.00000000000E+00 0. -1.
          1    1    1    2  502    0 -0.17898458822E+02 -0.15229997723E+02  0.33293180574E+03  0.33376023570E+03  0.00000000000E+00 0. -1.
         22    1    3    3    0    0 -0.80647429988E+02  0.23713670484E+01 -0.58859086008E+02  0.99870032297E+02  0.00000000000E+00 0. -1.
         22    1    3    3    0    0  0.20962235850E+02 -0.13722967165E+02  0.33066703788E+02  0.41486649166E+02  0.00000000000E+00 0. -1.
</event>
<event>
 7    1  0.7961130E-006  0.1969320E+03  0.7818608E-02  0.1185938E+00
          2   -1    0    0  502    0  0.00000000000E+00  0.00000000000E+00  0.15024002557E+04  0.15024002557E+04  0.00000000000E+00 0. -1.
          1   -1    0    0  501    0 -0.00000000000E+00 -0.00000000000E+00 -0.10204994980E+03  0.10204994980E+03  0.00000000000E+00 0. -1.
         25    2    1    2    0    0  0.51869680766E+02  0.11778250248E+03  0.37999792131E+03  0.42022026655E+03  0.12499388202E+03 0.  0.
          2    1    1    2  501    0  0.11194514963E+03  0.73715266694E+02  0.84517150488E+00  0.13403869361E+03  0.00000000000E+00 0. -1.
          1    1    1    2  502    0 -0.16381483040E+03 -0.19149776917E+03  0.10195072131E+04  0.10501912454E+04  0.00000000000E+00 0. -1.
         22    1    3    3    0    0  0.34824343394E+02  0.14293437726E+03  0.33551224561E+03  0.36634879289E+03  0.00000000000E+00 0. -1.
         22    1    3    3    0    0  0.17045337371E+02 -0.25151874788E+02  0.44485675703E+02  0.53871473660E+02  0.00000000000E+00 0. -1.
</event>
<event>
 7    1  0.7961130E-006  0.6437964E+02  0.7818608E-02  0.1390500E+00
          2   -1    0    0  502    0  0.00000000000E+00  0.00000000000E+00  0.13580821185E+04  0.13580821185E+04  0.00000000000E+00 0. -1.
          1   -1    0    0  501    0 -0.00000000000E+00 -0.00000000000E+00 -0.13548462421E+03  0.13548462421E+03  0.00000000000E+00 0. -1.
         25    2    1    2    0    0 -0.11291971018E+03  0.27559053645E+02  0.58503891914E+03  0.60943418302E+03  0.12501649545E+03 0.  0.
          2    1    1    2  501    0  0.59267249997E+02 -0.16466304865E+01 -0.11491230538E+03  0.12930644316E+03  0.00000000000E+00 0. -1.
          1    1    1    2  502    0  0.53652460181E+02 -0.25912423159E+02  0.75247088052E+03  0.75482611653E+03  0.00000000000E+00 0. -1.
         22    1    3    3    0    0 -0.76728008440E+02  0.75808384480E+02  0.32262107669E+03  0.34017415769E+03  0.00000000000E+00 0.  1.
         22    1    3    3    0    0 -0.36191701739E+02 -0.48249330835E+02  0.26241784245E+03  0.26926002533E+03  0.00000000000E+00 0.  1.
</event>
<event>
 7    1  0.7961130E-006  0.9030610E+02  0.7818608E-02  0.1483895E+00
          2   -1    0    0  502    0  0.00000000000E+00  0.00000000000E+00  0.23872172738E+03  0.23872172738E+03  0.00000000000E+00 0. -1.
          1   -1    0    0  501    0 -0.00000000000E+00 -0.00000000000E+00 -0.42146463925E+03  0.42146463925E+03  0.00000000000E+00 0. -1.
         25    2    1    2    0    0 -0.70802604547E+02 -0.61132945702E+02 -0.63553329097E+02  0.16856527947E+03  0.12499992776E+03 0.  0.
          2    1    1    2  501    0 -0.89358984513E+01  0.18958323789E+02 -0.29408640886E+03  0.29483229843E+03  0.00000000000E+00 0. -1.
          1    1    1    2  502    0  0.79738502999E+02  0.42174621913E+02  0.17489682609E+03  0.19678878873E+03  0.00000000000E+00 0. -1.
         22    1    3    3    0    0  0.13254992294E+02 -0.95054154515E+01 -0.67891812709E+02  0.69823677764E+02  0.00000000000E+00 0. -1.
         22    1    3    3    0    0 -0.84057596841E+02 -0.51627530250E+02  0.43384836118E+01  0.98741601701E+02  0.00000000000E+00 0. -1.
</event>
<event>
 7    1  0.7961130E-006  0.1148148E+03  0.7818608E-02  0.1410787E+00
          2   -1    0    0  502    0  0.00000000000E+00  0.00000000000E+00  0.16627434108E+03  0.16627434108E+03  0.00000000000E+00 0. -1.
          1   -1    0    0  501    0 -0.00000000000E+00 -0.00000000000E+00 -0.22911892128E+04  0.22911892128E+04  0.00000000000E+00 0. -1.
         25    2    1    2    0    0 -0.25259371142E+02  0.13962637989E+03 -0.21231750226E+03  0.28431910664E+03  0.12500028337E+03 0.  0.
          2    1    1    2  501    0  0.18752436133E+02 -0.11206795393E+03 -0.20397321061E+04  0.20428945016E+04  0.00000000000E+00 0. -1.
          1    1    1    2  502    0  0.65069350089E+01 -0.27558425965E+02  0.12713473668E+03  0.13024994555E+03  0.00000000000E+00 0. -1.
         22    1    3    3    0    0  0.10591753051E+02  0.12626426422E+03 -0.21089595590E+03  0.24603242442E+03  0.00000000000E+00 0.  1.
         22    1    3    3    0    0 -0.35851124193E+02  0.13362115676E+02 -0.14215463564E+01  0.38286682218E+02  0.00000000000E+00 0.  1.
</event>
<event>
 7    1  0.7961130E-006  0.7230619E+02  0.7818608E-02  0.1430989E+00
          2   -1    0    0  502    0  0.00000000000E+00  0.00000000000E+00  0.97423010926E+02  0.97423010926E+02  0.00000000000E+00 0. -1.
          1   -1    0    0  501    0 -0.00000000000E+00 -0.00000000000E+00 -0.24672866676E+03  0.24672866676E+03  0.00000000000E+00 0. -1.
         25    2    1    2    0    0 -0.19812877986E+02  0.45384133821E+02 -0.32985298278E+02  0.13843881587E+03  0.12500002440E+03 0.  0.
          2    1    1    2  501    0 -0.16250991767E+01 -0.77363869465E+02 -0.14039302698E+03  0.16030599262E+03  0.00000000000E+00 0. -1.
          1    1    1    2  502    0  0.21437977163E+02  0.31979735644E+02  0.24072669427E+02  0.45406869195E+02  0.00000000000E+00 0. -1.
         22    1    3    3    0    0  0.33104173176E+02 -0.71960591525E+01 -0.51438521375E+02  0.61592134484E+02  0.00000000000E+00 0.  1.
         22    1    3    3    0    0 -0.52917051162E+02  0.52580192973E+02  0.18453223097E+02  0.76846681382E+02  0.00000000000E+00 0.  1.
</event>
<event>
 7    1  0.7961130E-006  0.9307442E+02  0.7818608E-02  0.1397270E+00
          2   -1    0    0  502    0  0.00000000000E+00  0.00000000000E+00  0.20193863256E+03  0.20193863256E+03  0.00000000000E+00 0. -1.
          1   -1    0    0  501    0 -0.00000000000E+00 -0.00000000000E+00 -0.12823727113E+03  0.12823727113E+03  0.00000000000E+00 0. -1.
         25    2    1    2    0    0  0.88712449724E+02  0.29256039235E+02  0.40388695188E+02  0.16119378640E+03  0.12500550191E+03 0.  0.
          2    1    1    2  501    0 -0.70639373955E+02 -0.63648164137E+02 -0.25546771273E+02  0.98456322668E+02  0.00000000000E+00 0. -1.
          1    1    1    2  502    0 -0.18073075769E+02  0.34392124902E+02  0.58859437512E+02  0.70525794624E+02  0.00000000000E+00 0. -1.
         22    1    3    3    0    0  0.64152559826E+02  0.57427567195E+02  0.72004159543E+02  0.11224114842E+03  0.00000000000E+00 0.  1.
         22    1    3    3    0    0  0.24559889897E+02 -0.28171527960E+02 -0.31615464355E+02  0.48952637985E+02  0.00000000000E+00 0.  1.
</event>
<event>
 7    1  0.7961130E-006  0.1560579E+03  0.7818608E-02  0.1380478E+00
          2   -1    0    0  502    0  0.00000000000E+00  0.00000000000E+00  0.25872779057E+04  0.25872779057E+04  0.00000000000E+00 0. -1.
          1   -1    0    0  501    0 -0.00000000000E+00 -0.00000000000E+00 -0.43045475553E+03  0.43045475553E+03  0.00000000000E+00 0. -1.
         25    2    1    2    0    0 -0.46479049031E+02  0.13565841016E+03  0.92185783808E+03  0.94128149425E+03  0.12500188613E+03 0.  0.
          2    1    1    2  501    0  0.13933997030E+02  0.22570100185E+02 -0.41637969678E+03  0.41722370209E+03  0.00000000000E+00 0. -1.
          1    1    1    2  502    0  0.32545052001E+02 -0.15822851035E+03  0.16513450089E+04  0.16592274649E+04  0.00000000000E+00 0. -1.
         22    1    3    3    0    0 -0.32832261917E+02 -0.13563116277E+02  0.10647901369E+03  0.11224836703E+03  0.00000000000E+00 0. -1.
         22    1    3    3    0    0 -0.13646787114E+02  0.14922152644E+03  0.81537882440E+03  0.82903312722E+03  0.00000000000E+00 0. -1.
</event>
<event>
 7    1  0.7961130E-006  0.2094817E+03  0.7818608E-02  0.1229962E+00
          2   -1    0    0  502    0  0.00000000000E+00  0.00000000000E+00  0.57659590340E+03  0.57659590340E+03  0.00000000000E+00 0. -1.
          1   -1    0    0  501    0 -0.00000000000E+00 -0.00000000000E+00 -0.32368475044E+03  0.32368475044E+03  0.00000000000E+00 0. -1.
         25    2    1    2    0    0  0.26511492883E+03 -0.37575732064E+02  0.10676636113E+03  0.31420231344E+03  0.12500470700E+03 0.  0.
          2    1    1    2  501    0 -0.70130106333E+02  0.35515390749E+02 -0.18543629146E+03  0.20141050863E+03  0.00000000000E+00 0. -1.
          1    1    1    2  502    0 -0.19498482250E+03  0.20603413142E+01  0.33158108329E+03  0.38466783178E+03  0.00000000000E+00 0. -1.
         22    1    3    3    0    0  0.22066812488E+02  0.27147325751E+02 -0.10730059516E+02  0.36593109816E+02  0.00000000000E+00 0.  1.
         22    1    3    3    0    0  0.24304811634E+03 -0.64723057814E+02  0.11749642065E+03  0.27760920362E+03  0.00000000000E+00 0.  1.
</event>
<event>
 7    1  0.7961130E-006  0.6408012E+02  0.7818608E-02  0.1402676E+00
          2   -1    0    0  502    0  0.00000000000E+00  0.00000000000E+00  0.18413333561E+04  0.18413333561E+04  0.00000000000E+00 0. -1.
          1   -1    0    0  501    0 -0.00000000000E+00 -0.00000000000E+00 -0.93823141013E+03  0.93823141013E+03  0.00000000000E+00 0. -1.
         25    2    1    2    0    0  0.72870434990E+02 -0.91882411224E+02  0.80015362881E+03  0.81830543130E+03  0.12500188567E+03 0.  0.
          2    1    1    2  501    0 -0.44914591519E+02  0.45604498770E+02 -0.92734347802E+03  0.92954990026E+03  0.00000000000E+00 0. -1.
          1    1    1    2  502    0 -0.27955843471E+02  0.46277912454E+02  0.10302917952E+04  0.10317094347E+04  0.00000000000E+00 0. -1.
         22    1    3    3    0    0  0.59299584965E+02 -0.77892612341E+02  0.79052988939E+03  0.79656839370E+03  0.00000000000E+00 0. -1.
         22    1    3    3    0    0  0.13570850025E+02 -0.13989798883E+02  0.96237394198E+01  0.21737037600E+02  0.00000000000E+00 0. -1.
</event>
<event>
 7    1  0.7961130E-006  0.2575285E+03  0.7818608E-02  0.1206085E+00
          2   -1    0    0  502    0  0.00000000000E+00  0.00000000000E+00  0.12698974631E+04  0.12698974631E+04  0.00000000000E+00 0. -1.
          1   -1    0    0  501    0 -0.00000000000E+00 -0.00000000000E+00 -0.18898500874E+03  0.18898500874E+03  0.00000000000E+00 0. -1.
         25    2    1    2    0    0  0.11480789713E+03 -0.19900796610E+03  0.69109553516E+03  0.73893350464E+03  0.12499864698E+03 0.  0.
          2    1    1    2  501    0  0.19027645441E+02 -0.79999588743E+02 -0.10681353735E+03  0.13480028654E+03  0.00000000000E+00 0. -1.
          1    1    1    2  502    0 -0.13383554257E+03  0.27900755484E+03  0.49663045658E+03  0.58514868069E+03  0.00000000000E+00 0. -1.
         22    1    3    3    0    0  0.91017540476E+02 -0.43970501364E+02  0.21305348398E+03  0.23581642161E+03  0.00000000000E+00 0. -1.
         22    1    3    3    0    0  0.23790356653E+02 -0.15503746474E+03  0.47804205118E+03  0.50311708303E+03  0.00000000000E+00 0. -1.
</event>
<event>
 7    1  0.7961130E-006  0.8040563E+02  0.7818608E-02  0.1329461E+00
          2   -1    0    0  502    0  0.00000000000E+00  0.00000000000E+00  0.14680772752E+04  0.14680772752E+04  0.00000000000E+00 0. -1.
          1   -1    0    0  501    0 -0.00000000000E+00 -0.00000000000E+00 -0.48782772080E+03  0.48782772080E+03  0.00000000000E+00 0. -1.
         25    2    1    2    0    0 -0.21900969156E-01 -0.86262711098E+01  0.13176540795E+03  0.18182797135E+03  0.12499950160E+03 0.  0.
          2    1    1    2  501    0  0.76042575360E+02  0.31228813407E+02 -0.45793388177E+03  0.46525385772E+03  0.00000000000E+00 0. -1.
          1    1    1    2  502    0 -0.76020674390E+02 -0.22602542297E+02  0.13064180282E+04  0.13088231669E+04  0.00000000000E+00 0. -1.
         22    1    3    3    0    0 -0.52214830692E+02 -0.32018342805E+02  0.97534507850E+02  0.11517179794E+03  0.00000000000E+00 0. -1.
         22    1    3    3    0    0  0.52192929723E+02  0.23392071695E+02  0.34230900103E+02  0.66656173406E+02  0.00000000000E+00 0. -1.
</event>
<event>
 7    1  0.7961130E-006  0.8459707E+02  0.7818608E-02  0.1318610E+00
          2   -1    0    0  502    0  0.00000000000E+00  0.00000000000E+00  0.34670199673E+04  0.34670199673E+04  0.00000000000E+00 0. -1.
          1   -1    0    0  501    0 -0.00000000000E+00 -0.00000000000E+00 -0.54060101950E+03  0.54060101950E+03  0.00000000000E+00 0. -1.
         25    2    1    2    0    0 -0.78184855497E+02  0.11970247050E+03  0.34007809430E+03  0.38951122503E+03  0.12499732448E+03 0.  0.
          2    1    1    2  501    0  0.75805013282E+02 -0.36732927168E+02 -0.51188630043E+03  0.51877094420E+03  0.00000000000E+00 0. -1.
          1    1    1    2  502    0  0.23798422143E+01 -0.82969543328E+02  0.30982271540E+04  0.30993388176E+04  0.00000000000E+00 0. -1.
         22    1    3    3    0    0  0.21333730989E+02  0.77268049878E+02  0.12048592474E+03  0.14471467676E+03  0.00000000000E+00 0.  1.
         22    1    3    3    0    0 -0.99518586486E+02  0.42434420617E+02  0.21959216956E+03  0.24479654827E+03  0.00000000000E+00 0.  1.
</event>
<event>
 7    1  0.7961130E-006  0.9985371E+02  0.7818608E-02  0.1432851E+00
          2   -1    0    0  502    0  0.00000000000E+00  0.00000000000E+00  0.12006378599E+04  0.12006378599E+04  0.00000000000E+00 0. -1.
          1   -1    0    0  501    0 -0.00000000000E+00 -0.00000000000E+00 -0.84364700843E+03  0.84364700843E+03  0.00000000000E+00 0. -1.
         25    2    1    2    0    0  0.52512230371E+02  0.50130226802E+02 -0.64342733249E+03  0.65946838373E+03  0.12501697071E+03 0.  0.
          2    1    1    2  501    0  0.22034886689E+02  0.16435780576E+02 -0.18910986363E+03  0.19109738784E+03  0.00000000000E+00 0. -1.
          1    1    1    2  502    0 -0.74547117061E+02 -0.66566007378E+02  0.11895280476E+04  0.11937190967E+04  0.00000000000E+00 0. -1.
         22    1    3    3    0    0  0.76819777911E+02 -0.15992177783E+01 -0.23966419370E+03  0.25167987904E+03  0.00000000000E+00 0. -1.
         22    1    3    3    0    0 -0.24307547540E+02  0.51729444580E+02 -0.40376313879E+03  0.40778850468E+03  0.00000000000E+00 0. -1.
</event>
<event>
 7    1  0.7961130E-006  0.6679434E+02  0.7818608E-02  0.1515453E+00
          2   -1    0    0  502    0  0.00000000000E+00  0.00000000000E+00  0.23533871331E+04  0.23533871331E+04  0.00000000000E+00 0. -1.
          1   -1    0    0  501    0 -0.00000000000E+00 -0.00000000000E+00 -0.19140286280E+03  0.19140286280E+03  0.00000000000E+00 0. -1.
         25    2    1    2    0    0 -0.87846325873E+02  0.12868562937E+02  0.36461061193E+03  0.39553569041E+03  0.12500002868E+03 0.  0.
          2    1    1    2  501    0  0.22384807717E+02 -0.43813532143E+01 -0.17464648842E+03  0.17612970162E+03  0.00000000000E+00 0. -1.
          1    1    1    2  502    0  0.65461518155E+02 -0.84872097227E+01  0.19720201468E+04  0.19731246039E+04  0.00000000000E+00 0. -1.
         22    1    3    3    0    0 -0.64752295655E+02  0.50430092437E+02  0.11059667795E+03  0.13772319772E+03  0.00000000000E+00 0.  1.
         22    1    3    3    0    0 -0.23094030218E+02 -0.37561529500E+02  0.25401393398E+03  0.25781249269E+03  0.00000000000E+00 0.  1.
</event>
<event>
 7    1  0.7961130E-006  0.1241935E+03  0.7818608E-02  0.1240159E+00
          2   -1    0    0  502    0  0.00000000000E+00  0.00000000000E+00  0.14386011857E+04  0.14386011857E+04  0.00000000000E+00 0. -1.
          1   -1    0    0  501    0 -0.00000000000E+00 -0.00000000000E+00 -0.21436678554E+03  0.21436678554E+03  0.00000000000E+00 0. -1.
         25    2    1    2    0    0  0.93024461783E+02 -0.51130150430E+02  0.27113259075E+03  0.31686996663E+03  0.12500340480E+03 0.  0.
          2    1    1    2  501    0  0.15350235464E+02  0.12324116711E+03 -0.16718914990E+03  0.20826960134E+03  0.00000000000E+00 0. -1.
          1    1    1    2  502    0 -0.10837469725E+03 -0.72111016678E+02  0.11202909593E+04  0.11278284032E+04  0.00000000000E+00 0. -1.
         22    1    3    3    0    0 -0.21794383657E+01  0.18672068792E+02  0.13659510829E+03  0.13788263021E+03  0.00000000000E+00 0.  1.
         22    1    3    3    0    0  0.95203900149E+02 -0.69802219222E+02  0.13453748247E+03  0.17898733643E+03  0.00000000000E+00 0.  1.
</event>
<event>
 7    1  0.7961130E-006  0.3876723E+02  0.7818608E-02  0.1598670E+00
          2   -1    0    0  502    0  0.00000000000E+00  0.00000000000E+00  0.65720831822E+02  0.65720831822E+02  0.00000000000E+00 0. -1.
          1   -1    0    0  501    0 -0.00000000000E+00 -0.00000000000E+00 -0.90658384962E+03  0.90658384962E+03  0.00000000000E+00 0. -1.
         25    2    1    2    0    0 -0.22309609493E+02 -0.21590918139E+02 -0.63792902630E+03  0.65080103881E+03  0.12499865238E+03 0.  0.
          2    1    1    2  501    0  0.15919757895E+02 -0.16785507497E+02 -0.25525623606E+03  0.25630243464E+03  0.00000000000E+00 0. -1.
          1    1    1    2  502    0  0.63898515978E+01  0.38376425635E+02  0.52322244562E+02  0.65201207995E+02  0.00000000000E+00 0. -1.
         22    1    3    3    0    0  0.18226442541E+02  0.32461852715E+02 -0.44170154249E+03  0.44326767052E+03  0.00000000000E+00 0. -1.
         22    1    3    3    0    0 -0.40536052034E+02 -0.54052770854E+02 -0.19622748381E+03  0.20753336829E+03  0.00000000000E+00 0. -1.
</event>
<event>
 7    1  0.7961130E-006  0.6976741E+02  0.7818608E-02  0.1385987E+00
          2   -1    0    0  502    0  0.00000000000E+00  0.00000000000E+00  0.17967422096E+04  0.17967422096E+04  0.00000000000E+00 0. -1.
          1   -1    0    0  501    0 -0.00000000000E+00 -0.00000000000E+00 -0.11803011163E+04  0.11803011163E+04  0.00000000000E+00 0. -1.
         25    2    1    2    0    0 -0.96458778313E+02 -0.73113528203E+02  0.16650189902E+03  0.24082549567E+03  0.12499661223E+03 0.  0.
          2    1    1    2  501    0  0.33215705705E+02  0.45998014848E+02 -0.11416914784E+04  0.11431004034E+04  0.00000000000E+00 0. -1.
          1    1    1    2  502    0  0.63243072608E+02  0.27115513355E+02  0.15916306727E+04  0.15931174268E+04  0.00000000000E+00 0. -1.
         22    1    3    3    0    0 -0.10183642838E+03 -0.11637212032E+02  0.14036966226E+03  0.17380945007E+03  0.00000000000E+00 0.  1.
         22    1    3    3    0    0  0.53776500719E+01 -0.61476316171E+02  0.26132236757E+02  0.67016045602E+02  0.00000000000E+00 0.  1.
</event>
<event>
 7    1  0.7961130E-006  0.7715026E+02  0.7818608E-02  0.1404257E+00
          2   -1    0    0  502    0  0.00000000000E+00  0.00000000000E+00  0.85861092480E+03  0.85861092480E+03  0.00000000000E+00 0. -1.
          1   -1    0    0  501    0 -0.00000000000E+00 -0.00000000000E+00 -0.41826591183E+02  0.41826591183E+02  0.00000000000E+00 0. -1.
         25    2    1    2    0    0 -0.92107399731E+02 -0.48943776729E+02  0.24631932271E+03  0.29525788137E+03  0.12499896562E+03 0.  0.
          2    1    1    2  501    0  0.69901900366E+02  0.10552020638E+02  0.59805005224E+02  0.92597297283E+02  0.00000000000E+00 0. -1.
          1    1    1    2  502    0  0.22205499364E+02  0.38391756091E+02  0.51066000568E+03  0.51258233733E+03  0.00000000000E+00 0. -1.
         22    1    3    3    0    0  0.27935846558E+02 -0.22999282618E+02  0.32304482252E+02  0.48507299424E+02  0.00000000000E+00 0.  1.
         22    1    3    3    0    0 -0.12004324629E+03 -0.25944494111E+02  0.21401484046E+03  0.24675058195E+03  0.00000000000E+00 0.  1.
</event>
<event>
 7    1  0.7961130E-006  0.7394644E+02  0.7818608E-02  0.1400232E+00
          2   -1    0    0  502    0  0.00000000000E+00  0.00000000000E+00  0.12133024493E+04  0.12133024493E+04  0.00000000000E+00 0. -1.
          1   -1    0    0  501    0 -0.00000000000E+00 -0.00000000000E+00 -0.42565360648E+03  0.42565360648E+03  0.00000000000E+00 0. -1.
         25    2    1    2    0    0 -0.17630192163E+02  0.90753629690E+02  0.18713043372E+03  0.24328926854E+03  0.12499929594E+03 0.  0.
          2    1    1    2  501    0 -0.25123198101E+02 -0.69452159645E+02 -0.39356573194E+03  0.40043571634E+03  0.00000000000E+00 0. -1.
          1    1    1    2  502    0  0.42753390263E+02 -0.21301470045E+02  0.99408414102E+03  0.99523107088E+03  0.00000000000E+00 0. -1.
         22    1    3    3    0    0  0.56312703485E+01  0.10846476723E+03  0.87544574540E+02  0.13950042820E+03  0.00000000000E+00 0.  1.
         22    1    3    3    0    0 -0.23261462511E+02 -0.17711137542E+02  0.99585859175E+02  0.10378884034E+03  0.00000000000E+00 0.  1.
</event>
<event>
 7    1  0.7961130E-006  0.4397836E+02  0.7818608E-02  0.1484922E+00
          2   -1    0    0  502    0  0.00000000000E+00  0.00000000000E+00  0.69202962328E+03  0.69202962328E+03  0.00000000000E+00 0. -1.
          1   -1    0    0  501    0 -0.00000000000E+00 -0.00000000000E+00 -0.96823638162E+02  0.96823638162E+02  0.00000000000E+00 0. -1.
         25    2    1    2    0    0 -0.82099253571E+02 -0.22094006204E+02  0.20010671695E+03  0.25079183605E+03  0.12500165725E+03 0.  0.
          2    1    1    2  501    0  0.39869187136E+02  0.15590630794E+02 -0.63989376895E+02  0.76988701813E+02  0.00000000000E+00 0. -1.
          1    1    1    2  502    0  0.42230066435E+02  0.65033754096E+01  0.45908864506E+03  0.46107272357E+03  0.00000000000E+00 0. -1.
         22    1    3    3    0    0 -0.76501149163E+02 -0.67367765347E+02  0.11111669436E+03  0.15079045525E+03  0.00000000000E+00 0.  1.
         22    1    3    3    0    0 -0.55981044080E+01  0.45273759143E+02  0.88990022598E+02  0.10000138080E+03  0.00000000000E+00 0.  1.
</event>
<event>
 7    1  0.7961130E-006  0.3965475E+02  0.7818608E-02  0.1551702E+00
          2   -1    0    0  502    0  0.00000000000E+00  0.00000000000E+00  0.12418427416E+03  0.12418427416E+03  0.00000000000E+00 0. -1.
          1   -1    0    0  501    0 -0.00000000000E+00 -0.00000000000E+00 -0.10588354489E+04  0.10588354489E+04  0.00000000000E+00 0. -1.
         25    2    1    2    0    0 -0.90650687048E+01 -0.57957396449E+02 -0.47410332499E+03  0.49380075668E+03  0.12499595696E+03 0.  0.
          2    1    1    2  501    0  0.23136792984E+02  0.31143026486E+02 -0.57220983514E+03  0.57352357817E+03  0.00000000000E+00 0. -1.
          1    1    1    2  502    0 -0.14071724280E+02  0.26814369963E+02  0.11166198542E+03  0.11569538819E+03  0.00000000000E+00 0. -1.
         22    1    3    3    0    0  0.49855861164E+02 -0.25554727389E+02 -0.10897711851E+03  0.12253433537E+03  0.00000000000E+00 0. -1.
         22    1    3    3    0    0 -0.58920929869E+02 -0.32402669060E+02 -0.36512620647E+03  0.37126642131E+03  0.00000000000E+00 0. -1.
</event>
<event>
 7    1  0.7961130E-006  0.1854727E+03  0.7818608E-02  0.1326719E+00
          2   -1    0    0  502    0  0.00000000000E+00  0.00000000000E+00  0.79605257106E+03  0.79605257106E+03  0.00000000000E+00 0. -1.
          1   -1    0    0  501    0 -0.00000000000E+00 -0.00000000000E+00 -0.11704120709E+04  0.11704120709E+04  0.00000000000E+00 0. -1.
         25    2    1    2    0    0 -0.89500067733E+02  0.12387517712E+03  0.45996191367E+03  0.50054330713E+03  0.12499327443E+03 0.  0.
          2    1    1    2  501    0  0.98050252687E+02 -0.15804589754E+03 -0.11415893041E+04  0.11566410407E+04  0.00000000000E+00 0. -1.
          1    1    1    2  502    0 -0.85501849535E+01  0.34170720425E+02  0.30726789056E+03  0.30928029417E+03  0.00000000000E+00 0. -1.
         22    1    3    3    0    0  0.33614627415E+01  0.45175375102E+02  0.27770522661E+03  0.28137573960E+03  0.00000000000E+00 0.  1.
         22    1    3    3    0    0 -0.92861530475E+02  0.78699802014E+02  0.18225668706E+03  0.21916756753E+03  0.00000000000E+00 0.  1.
</event>
<event>
 7    1  0.7961130E-006  0.3534251E+02  0.7818608E-02  0.1564925E+00
          2   -1    0    0  502    0  0.00000000000E+00  0.00000000000E+00  0.15297301858E+04  0.15297301858E+04  0.00000000000E+00 0. -1.
          1   -1    0    0  501    0 -0.00000000000E+00 -0.00000000000E+00 -0.28263119291E+02  0.28263119291E+02  0.00000000000E+00 0. -1.
         25    2    1    2    0    0  0.52370853775E+02 -0.35926531315E+02  0.86110376189E+03  0.87244377714E+03  0.12500013424E+03 0.  0.
          2    1    1    2  501    0 -0.22525087501E+02  0.26698794920E+02 -0.84869662585E+01  0.35947653795E+02  0.00000000000E+00 0. -1.
          1    1    1    2  502    0 -0.29845766274E+02  0.92277363951E+01  0.64885027088E+03  0.64960187415E+03  0.00000000000E+00 0. -1.
         22    1    3    3    0    0 -0.22444069527E+02 -0.66135669310E+01  0.56925393164E+03  0.56973459980E+03  0.00000000000E+00 0.  1.
         22    1    3    3    0    0  0.74814923303E+02 -0.29312964384E+02  0.29184983024E+03  0.30270917734E+03  0.00000000000E+00 0.  1.
</event>
<event>
 7    1  0.7961130E-006  0.9130449E+02  0.7818608E-02  0.1342624E+00
          2   -1    0    0  502    0  0.00000000000E+00  0.00000000000E+00  0.48253826855E+03  0.48253826855E+03  0.00000000000E+00 0. -1.
          1   -1    0    0  501    0 -0.00000000000E+00 -0.00000000000E+00 -0.21283632332E+04  0.21283632332E+04  0.00000000000E+00 0. -1.
         25    2    1    2    0    0  0.38140274282E+02  0.34130063462E+02 -0.23809173659E+03  0.27373809014E+03  0.12500130083E+03 0.  0.
          2    1    1    2  501    0 -0.17817502529E+02 -0.92993132845E+02 -0.18691584430E+04  0.18715550944E+04  0.00000000000E+00 0. -1.
          1    1    1    2  502    0 -0.20322771753E+02  0.58863069383E+02  0.46142521501E+03  0.46560831719E+03  0.00000000000E+00 0. -1.
         22    1    3    3    0    0  0.29200635411E+02  0.67999458564E+02 -0.69421949507E+02  0.10146925912E+03  0.00000000000E+00 0.  1.
         22    1    3    3    0    0  0.89396388711E+01 -0.33869395102E+02 -0.16866978708E+03  0.17226883102E+03  0.00000000000E+00 0.  1.
</event>
<event>
 7    1  0.7961130E-006  0.4548208E+02  0.7818608E-02  0.1593706E+00
          2   -1    0    0  502    0  0.00000000000E+00  0.00000000000E+00  0.10481510201E+03  0.10481510201E+03  0.00000000000E+00 0. -1.
          1   -1    0    0  501    0 -0.00000000000E+00 -0.00000000000E+00 -0.19796077734E+04  0.19796077734E+04  0.00000000000E+00 0. -1.
         25    2    1    2    0    0  0.21223801092E+02 -0.13798836213E+02 -0.10611739326E+02  0.12797727726E+03  0.12499886748E+03 0.  0.
          2    1    1    2  501    0 -0.39301712926E+02  0.23076447871E+02 -0.19077903297E+04  0.19083346376E+04  0.00000000000E+00 0. -1.
          1    1    1    2  502    0  0.18077911834E+02 -0.92776116581E+01  0.43609397554E+02  0.48110960595E+02  0.00000000000E+00 0. -1.
         22    1    3    3    0    0  0.60617664928E+02  0.41307149414E+01  0.30761508396E+02  0.68101648336E+02  0.00000000000E+00 0. -1.
         22    1    3    3    0    0 -0.39393863836E+02 -0.17929551154E+02 -0.41373247722E+02  0.59875628928E+02  0.00000000000E+00 0. -1.
</event>
<event>
 7    1  0.7961130E-006  0.7179722E+02  0.7818608E-02  0.1428098E+00
          2   -1    0    0  502    0  0.00000000000E+00  0.00000000000E+00  0.40714372100E+04  0.40714372100E+04  0.00000000000E+00 0. -1.
          1   -1    0    0  501    0 -0.00000000000E+00 -0.00000000000E+00 -0.59422851059E+02  0.59422851059E+02  0.00000000000E+00 0. -1.
         25    2    1    2    0    0  0.20003059297E+02  0.40934357252E+02  0.19064374016E+04  0.19110742378E+04  0.12500172895E+03 0.  0.
          2    1    1    2  501    0  0.45592647752E+01 -0.72038732797E+02 -0.34036677907E+02  0.79805146208E+02  0.00000000000E+00 0. -1.
          1    1    1    2  502    0 -0.24562324072E+02  0.31104375545E+02  0.21396136352E+04  0.21399806770E+04  0.00000000000E+00 0. -1.
         22    1    3    3    0    0 -0.21417668264E+02 -0.33765310518E+02  0.94650405927E+03  0.94734827119E+03  0.00000000000E+00 0.  1.
         22    1    3    3    0    0  0.41420727560E+02  0.74699667771E+02  0.95993334236E+03  0.96372596666E+03  0.00000000000E+00 0.  1.
</event>
<event>
 7    1  0.7961130E-006  0.1094210E+03  0.7818608E-02  0.1322425E+00
          2   -1    0    0  502    0  0.00000000000E+00  0.00000000000E+00  0.12890900534E+04  0.12890900534E+04  0.00000000000E+00 0. -1.
          1   -1    0    0  501    0 -0.00000000000E+00 -0.00000000000E+00 -0.39306703207E+03  0.39306703207E+03  0.00000000000E+00 0. -1.
         25    2    1    2    0    0 -0.12494453812E+03 -0.43778695450E+02 -0.36145146823E+02  0.18563206525E+03  0.12500032092E+03 0.  0.
          2    1    1    2  501    0  0.73811667359E+02  0.78884973860E+02 -0.27101016600E+03  0.29174905555E+03  0.00000000000E+00 0. -1.
          1    1    1    2  502    0  0.51132870757E+02 -0.35106278410E+02  0.12031783342E+04  0.12047759647E+04  0.00000000000E+00 0. -1.
         22    1    3    3    0    0  0.22153618854E+02  0.67039044353E+01 -0.17462609108E+02  0.28994273225E+02  0.00000000000E+00 0.  1.
         22    1    3    3    0    0 -0.14709815697E+03 -0.50482599886E+02 -0.18682537715E+02  0.15663779203E+03  0.00000000000E+00 0.  1.
</event>
<event>
 7    1  0.7961130E-006  0.1901186E+03  0.7818608E-02  0.1235825E+00
          2   -1    0    0  502    0  0.00000000000E+00  0.00000000000E+00  0.23301711000E+04  0.23301711000E+04  0.00000000000E+00 0. -1.
          1   -1    0    0  501    0 -0.00000000000E+00 -0.00000000000E+00 -0.74485519384E+02  0.74485519384E+02  0.00000000000E+00 0. -1.
         25    2    1    2    0    0  0.20629080281E+03  0.71062107059E+02  0.26963143633E+03  0.36868927932E+03  0.12499981940E+03 0.  0.
          2    1    1    2  501    0 -0.17689260121E+02 -0.79610730865E+02  0.61416258345E+02  0.10209179782E+03  0.00000000000E+00 0. -1.
          1    1    1    2  502    0 -0.18860154269E+03  0.85486238061E+01  0.19246378860E+04  0.19338755423E+04  0.00000000000E+00 0. -1.
         22    1    3    3    0    0  0.10872635354E+03  0.76077247693E+02  0.22515026198E+03  0.26134614603E+03  0.00000000000E+00 0.  1.
         22    1    3    3    0    0  0.97564449262E+02 -0.50151406337E+01  0.44481174345E+02  0.10734313330E+03  0.00000000000E+00 0.  1.
</event>
<event>
 7    1  0.7961130E-006  0.8037737E+02  0.7818608E-02  0.1342734E+00
          2   -1    0    0  502    0  0.00000000000E+00  0.00000000000E+00  0.13834428619E+03  0.13834428619E+03  0.00000000000E+00 0. -1.
          1   -1    0    0  501    0 -0.00000000000E+00 -0.00000000000E+00 -0.69243798285E+03  0.69243798285E+03  0.00000000000E+00 0. -1.
         25    2    1    2    0    0 -0.30625157043E+02  0.14202210797E+03 -0.51791144748E+03  0.55223618128E+03  0.12499741234E+03 0.  0.
          2    1    1    2  501    0  0.31556968552E+02 -0.63234519955E+02 -0.13486883570E+03  0.15226309343E+03  0.00000000000E+00 0. -1.
          1    1    1    2  502    0 -0.93181150954E+00 -0.78787588011E+02  0.98686586515E+02  0.12628299432E+03  0.00000000000E+00 0. -1.
         22    1    3    3    0    0  0.31200086435E+02 -0.54013510669E+01 -0.93435927466E+02  0.98655423208E+02  0.00000000000E+00 0.  1.
         22    1    3    3    0    0 -0.61825243478E+02  0.14742345903E+03 -0.42447552001E+03  0.45358075807E+03  0.00000000000E+00 0.  1.
</event>
<event>
 7    1  0.7961130E-006  0.1122132E+03  0.7818608E-02  0.1348662E+00
          2   -1    0    0  502    0  0.00000000000E+00  0.00000000000E+00  0.10984364403E+04  0.10984364403E+04  0.00000000000E+00 0. -1.
          1   -1    0    0  501    0 -0.00000000000E+00 -0.00000000000E+00 -0.86586250666E+03  0.86586250666E+03  0.00000000000E+00 0. -1.
         25    2    1    2    0    0  0.14828668069E+03 -0.86293258196E+01 -0.44235189342E+03  0.48307683870E+03  0.12499851815E+03 0.  0.
          2    1    1    2  501    0 -0.41326432791E+02 -0.24629456722E+02 -0.39878902565E+03  0.40168043414E+03  0.00000000000E+00 0. -1.
          1    1    1    2  502    0 -0.10696024790E+03  0.33258782542E+02  0.10737148527E+04  0.10795416741E+04  0.00000000000E+00 0. -1.
         22    1    3    3    0    0  0.10271076730E+03  0.53915031570E+02 -0.24429135181E+03  0.27043408978E+03  0.00000000000E+00 0. -1.
         22    1    3    3    0    0  0.45575913389E+02 -0.62544357389E+02 -0.19806054161E+03  0.21264274891E+03  0.00000000000E+00 0. -1.
</event>
<event>
 7    1  0.7961130E-006  0.1492093E+03  0.7818608E-02  0.1218422E+00
          2   -1    0    0  502    0  0.00000000000E+00  0.00000000000E+00  0.13956434134E+03  0.13956434134E+03  0.00000000000E+00 0. -1.
          1   -1    0    0  501    0 -0.00000000000E+00 -0.00000000000E+00 -0.26267256899E+04  0.26267256899E+04  0.00000000000E+00 0. -1.
         25    2    1    2    0    0  0.44439979278E+02  0.27069539726E+02 -0.22881901328E+03  0.26587953011E+03  0.12500444773E+03 0.  0.
          2    1    1    2  501    0  0.12131535795E+03  0.27861079320E+02 -0.23138382413E+04  0.23171838646E+04  0.00000000000E+00 0. -1.
          1    1    1    2  502    0 -0.16575533723E+03 -0.54930619046E+02  0.55495906006E+02  0.18322663647E+03  0.00000000000E+00 0. -1.
         22    1    3    3    0    0 -0.48883892847E+01 -0.46136853301E+02 -0.66084011079E+02  0.80744053048E+02  0.00000000000E+00 0. -1.
         22    1    3    3    0    0  0.49328368563E+02  0.73206393027E+02 -0.16273500220E+03  0.18513547706E+03  0.00000000000E+00 0. -1.
</event>
<event>
 7    1  0.7961130E-006  0.6674761E+02  0.7818608E-02  0.1433568E+00
          2   -1    0    0  502    0  0.00000000000E+00  0.00000000000E+00  0.18485613885E+04  0.18485613885E+04  0.00000000000E+00 0. -1.
          1   -1    0    0  501    0 -0.00000000000E+00 -0.00000000000E+00 -0.27119556585E+03  0.27119556585E+03  0.00000000000E+00 0. -1.
         25    2    1    2    0    0 -0.99898188643E+02 -0.13191642310E+02  0.87357847666E+03  0.88821104542E+03  0.12500335512E+03 0.  0.
          2    1    1    2  501    0  0.40525761714E+02 -0.55346242515E+01 -0.26128529363E+03  0.26446734032E+03  0.00000000000E+00 0. -1.
          1    1    1    2  502    0  0.59372426929E+02  0.18726266562E+02  0.96507263960E+03  0.96707856860E+03  0.00000000000E+00 0. -1.
         22    1    3    3    0    0  0.22831686605E+02  0.21768078547E+02  0.13080520342E+03  0.13455532839E+03  0.00000000000E+00 0. -1.
         22    1    3    3    0    0 -0.12272987525E+03 -0.34959720857E+02  0.74277327324E+03  0.75365571703E+03  0.00000000000E+00 0. -1.
</event>
<event>
 7    1  0.7961130E-006  0.5062777E+02  0.7818608E-02  0.1466075E+00
          2   -1    0    0  502    0  0.00000000000E+00  0.00000000000E+00  0.24046835170E+03  0.24046835170E+03  0.00000000000E+00 0. -1.
          1   -1    0    0  501    0 -0.00000000000E+00 -0.00000000000E+00 -0.19219681707E+04  0.19219681707E+04  0.00000000000E+00 0. -1.
         25    2    1    2    0    0 -0.50195113792E+02  0.11399042185E+02 -0.13618561270E+03  0.19188848332E+03  0.12500072525E+03 0.  0.
          2    1    1    2  501    0  0.24031328275E+02 -0.44810928746E+02 -0.17554417732E+04  0.17561780500E+04  0.00000000000E+00 0. -1.
          1    1    1    2  502    0  0.26163785517E+02  0.33411886562E+02  0.21012756693E+03  0.21436998908E+03  0.00000000000E+00 0. -1.
         22    1    3    3    0    0  0.35240961043E+01  0.13415678778E+02 -0.13741901299E+03  0.13811728647E+03  0.00000000000E+00 0. -1.
         22    1    3    3    0    0 -0.53719209896E+02 -0.20166365934E+01  0.12334002856E+01  0.53771196856E+02  0.00000000000E+00 0. -1.
</event>
<event>
 7    1  0.7961130E-006  0.5543597E+02  0.7818608E-02  0.1522917E+00
          2   -1    0    0  502    0  0.00000000000E+00  0.00000000000E+00  0.13121691446E+04  0.13121691446E+04  0.00000000000E+00 0. -1.
          1   -1    0    0  501    0 -0.00000000000E+00 -0.00000000000E+00 -0.26142978484E+03  0.26142978484E+03  0.00000000000E+00 0. -1.
         25    2    1    2    0    0  0.27494525629E+02  0.71602121448E+02 -0.21511180840E+01  0.14666830837E+03  0.12499661050E+03 0.  0.
          2    1    1    2  501    0 -0.20001129443E+02 -0.16835953484E+02 -0.18548685976E+03  0.18732023290E+03  0.00000000000E+00 0. -1.
          1    1    1    2  502    0 -0.74933961859E+01 -0.54766167964E+02  0.12383773376E+04  0.12396103882E+04  0.00000000000E+00 0. -1.
         22    1    3    3    0    0  0.68977112643E+02  0.78594545901E+02 -0.60245815775E+00  0.10457202145E+03  0.00000000000E+00 0.  1.
         22    1    3    3    0    0 -0.41482587013E+02 -0.69924244526E+01 -0.15486599262E+01  0.42096286922E+02  0.00000000000E+00 0.  1.
</event>
<event>
 7    1  0.7961130E-006  0.9195748E+02  0.7818608E-02  0.1334617E+00
          2   -1    0    0  502    0  0.00000000000E+00  0.00000000000E+00  0.10225840382E+03  0.10225840382E+03  0.00000000000E+00 0. -1.
          1   -1    0    0  501    0 -0.00000000000E+00 -0.00000000000E+00 -0.85276716274E+03  0.85276716274E+03  0.00000000000E+00 0. -1.
         25    2    1    2    0    0 -0.88081673956E+02 -0.11626671380E+03 -0.17259810985E+03  0.25824530978E+03  0.12499680986E+03 0.  0.
          2    1    1    2  501    0  0.23020579468E+02  0.62155336333E+02 -0.60446575533E+03  0.60808887696E+03  0.00000000000E+00 0. -1.
          1    1    1    2  502    0  0.65061094487E+02  0.54111377463E+02  0.26555106250E+02  0.88691379822E+02  0.00000000000E+00 0. -1.
         22    1    3    3    0    0 -0.36986358139E+02 -0.12255608709E+03 -0.16061112748E+03  0.20538724264E+03  0.00000000000E+00 0.  1.
         22    1    3    3    0    0 -0.51095315817E+02  0.62893732925E+01 -0.11986982368E+02  0.52858067134E+02  0.00000000000E+00 0.  1.
</event>
<event>
 7    1  0.7961130E-006  0.1134240E+03  0.7818608E-02  0.1424634E+00
          2   -1    0    0  502    0  0.00000000000E+00  0.00000000000E+00  0.52655451154E+02  0.52655451154E+02  0.00000000000E+00 0. -1.
          1   -1    0    0  501    0 -0.00000000000E+00 -0.00000000000E+00 -0.14125498304E+04  0.14125498304E+04  0.00000000000E+00 0. -1.
         25    2    1    2    0    0  0.86925669064E+02  0.38249004242E+02 -0.51279267775E+03  0.53628558427E+03  0.12500735688E+03 0.  0.
          2    1    1    2  501    0 -0.11249446225E+03 -0.41371522090E+02 -0.87944327802E+03  0.88757370743E+03  0.00000000000E+00 0. -1.
          1    1    1    2  502    0  0.25568793186E+02  0.31225178476E+01  0.32341576536E+02  0.41345989836E+02  0.00000000000E+00 0. -1.
         22    1    3    3    0    0  0.15972304999E+02  0.32972782253E+02 -0.27513206169E+02  0.45818068600E+02  0.00000000000E+00 0. -1.
         22    1    3    3    0    0  0.70953364064E+02  0.52762219894E+01 -0.48527947158E+03  0.49046751567E+03  0.00000000000E+00 0. -1.
</event>
<event>
 7    1  0.7961130E-006  0.5905863E+02  0.7818608E-02  0.1478949E+00
          2   -1    0    0  502    0  0.00000000000E+00  0.00000000000E+00  0.95006339291E+03  0.95006339291E+03  0.00000000000E+00 0. -1.
          1   -1    0    0  501    0 -0.00000000000E+00 -0.00000000000E+00 -0.16149363173E+03  0.16149363173E+03  0.00000000000E+00 0. -1.
         25    2    1    2    0    0 -0.70241821868E+02 -0.17004486442E+02  0.88308875262E+02  0.16925595249E+03  0.12500421555E+03 0.  0.
          2    1    1    2  501    0  0.44661005209E+02  0.38143544068E+02 -0.11353600779E+03  0.12782785457E+03  0.00000000000E+00 0. -1.
          1    1    1    2  502    0  0.25580816659E+02 -0.21139057626E+02  0.81379689371E+03  0.81447321757E+03  0.00000000000E+00 0. -1.
         22    1    3    3    0    0 -0.10576855111E+03 -0.23836019733E+01  0.68460036861E+02  0.12601366834E+03  0.00000000000E+00 0.  1.
         22    1    3    3    0    0  0.35526729238E+02 -0.14620884469E+02  0.19848838401E+02  0.43242284154E+02  0.00000000000E+00 0.  1.
</event>
<event>
 7    1  0.7961130E-006  0.5726510E+02  0.7818608E-02  0.1494577E+00
          2   -1    0    0  502    0  0.00000000000E+00  0.00000000000E+00  0.80938679678E+03  0.80938679678E+03  0.00000000000E+00 0. -1.
          1   -1    0    0  501    0 -0.00000000000E+00 -0.00000000000E+00 -0.14578566257E+03  0.14578566257E+03  0.00000000000E+00 0. -1.
         25    2    1    2    0    0 -0.63417081981E+02 -0.43011536421E+01  0.54443150649E+02  0.15042242284E+03  0.12499048936E+03 0.  0.
          2    1    1    2  501    0  0.15197437945E+02 -0.26650303081E+02 -0.94195963903E+02  0.99066040549E+02  0.00000000000E+00 0. -1.
          1    1    1    2  502    0  0.48219644036E+02  0.30951456723E+02  0.70335394746E+03  0.70568399596E+03  0.00000000000E+00 0. -1.
         22    1    3    3    0    0  0.17212799677E+02 -0.41125088748E+02  0.41375941247E+02  0.60823695311E+02  0.00000000000E+00 0. -1.
         22    1    3    3    0    0 -0.80629881658E+02  0.36823935106E+02  0.13067209402E+02  0.89598727527E+02  0.00000000000E+00 0. -1.
</event>
<event>
 7    1  0.7961130E-006  0.8028238E+02  0.7818608E-02  0.1394257E+00
          2   -1    0    0  502    0  0.00000000000E+00  0.00000000000E+00  0.25191583873E+02  0.25191583873E+02  0.00000000000E+00 0. -1.
          1   -1    0    0  501    0 -0.00000000000E+00 -0.00000000000E+00 -0.26658408658E+04  0.26658408658E+04  0.00000000000E+00 0. -1.
         25    2    1    2    0    0 -0.54975235056E+02  0.69303493040E+02 -0.90384666728E+03  0.91672666549E+03  0.12499492247E+03 0.  0.
          2    1    1    2  501    0  0.75677307067E+02 -0.28072124940E+02 -0.17247272462E+04  0.17266149463E+04  0.00000000000E+00 0. -1.
          1    1    1    2  502    0 -0.20702072010E+02 -0.41231368101E+02 -0.12075368530E+02  0.47690837968E+02  0.00000000000E+00 0. -1.
         22    1    3    3    0    0  0.28992535801E+02  0.79842083968E+01 -0.45508466182E+03  0.45607714713E+03  0.00000000000E+00 0. -1.
         22    1    3    3    0    0 -0.83967770858E+02  0.61319284644E+02 -0.44876200546E+03  0.46064951835E+03  0.00000000000E+00 0. -1.
</event>
<event>
 7    1  0.7961130E-006  0.7654180E+03  0.7818608E-02  0.1178457E+00
          2   -1    0    0  502    0  0.00000000000E+00  0.00000000000E+00  0.16034039012E+04  0.16034039012E+04  0.00000000000E+00 0. -1.
          1   -1    0    0  501    0 -0.00000000000E+00 -0.00000000000E+00 -0.14259220056E+04  0.14259220056E+04  0.00000000000E+00 0. -1.
         25    2    1    2    0    0 -0.74116984954E+03  0.12783954810E+03  0.60951775236E+03  0.97612156597E+03  0.12500290070E+03 0.  0.
          2    1    1    2  501    0 -0.21809785210E+02  0.30503946880E+02 -0.10549343785E+04  0.10556006349E+04  0.00000000000E+00 0. -1.
          1    1    1    2  502    0  0.76297963475E+03 -0.15834349498E+03  0.62289852176E+03  0.99760370581E+03  0.00000000000E+00 0. -1.
         22    1    3    3    0    0 -0.55245878723E+03  0.72016818486E+02  0.38312628621E+03  0.67615300407E+03  0.00000000000E+00 0. -1.
         22    1    3    3    0    0 -0.18871106231E+03  0.55822729611E+02  0.22639146615E+03  0.29996856190E+03  0.00000000000E+00 0. -1.
</event>
<event>
 7    1  0.7961130E-006  0.8492673E+02  0.7818608E-02  0.1322224E+00
          2   -1    0    0  502    0  0.00000000000E+00  0.00000000000E+00  0.29979262189E+04  0.29979262189E+04  0.00000000000E+00 0. -1.
          1   -1    0    0  501    0 -0.00000000000E+00 -0.00000000000E+00 -0.74523876754E+02  0.74523876754E+02  0.00000000000E+00 0. -1.
         25    2    1    2    0    0  0.14898291400E+03 -0.27123903491E+02  0.64715517469E+03  0.67628874956E+03  0.12500015138E+03 0.  0.
          2    1    1    2  501    0 -0.68264353222E+02  0.41820791551E+02 -0.32176205008E+02  0.86280407367E+02  0.00000000000E+00 0. -1.
          1    1    1    2  502    0 -0.80718560774E+02 -0.14696888060E+02  0.23084233724E+04  0.23098809387E+04  0.00000000000E+00 0. -1.
         22    1    3    3    0    0  0.97992887025E+02 -0.39225251378E+02  0.58740153983E+03  0.59680968093E+03  0.00000000000E+00 0.  1.
         22    1    3    3    0    0  0.50990026971E+02  0.12101347887E+02  0.59753634855E+02  0.79479068625E+02  0.00000000000E+00 0.  1.
</event>
<event>
 7    1  0.7961130E-006  0.4444009E+02  0.7818608E-02  0.1488886E+00
          2   -1    0    0  502    0  0.00000000000E+00  0.00000000000E+00  0.36071818278E+03  0.36071818278E+03  0.00000000000E+00 0. -1.
          1   -1    0    0  501    0 -0.00000000000E+00 -0.00000000000E+00 -0.19718881665E+04  0.19718881665E+04  0.00000000000E+00 0. -1.
         25    2    1    2    0    0  0.80146428365E+02 -0.29173542261E+02 -0.43823743138E+03  0.46362817215E+03  0.12499796077E+03 0.  0.
          2    1    1    2  501    0 -0.37711861871E+02  0.16409647640E+02 -0.15192654051E+04  0.15198219738E+04  0.00000000000E+00 0. -1.
          1    1    1    2  502    0 -0.42434566494E+02  0.12763894621E+02  0.34633285272E+03  0.34915620332E+03  0.00000000000E+00 0. -1.
         22    1    3    3    0    0 -0.11207200232E+02 -0.77960439425E+01  0.17364500107E+01  0.13762081850E+02  0.00000000000E+00 0. -1.
         22    1    3    3    0    0  0.91353628597E+02 -0.21377498319E+02 -0.43997388139E+03  0.44986609030E+03  0.00000000000E+00 0. -1.
</event>
<event>
 7    1  0.7961130E-006  0.5429811E+02  0.7818608E-02  0.1481207E+00
          2   -1    0    0  502    0  0.00000000000E+00  0.00000000000E+00  0.23713131792E+04  0.23713131792E+04  0.00000000000E+00 0. -1.
          1   -1    0    0  501    0 -0.00000000000E+00 -0.00000000000E+00 -0.15900703467E+04  0.15900703467E+04  0.00000000000E+00 0. -1.
         25    2    1    2    0    0 -0.17522194605E+02 -0.71300524447E+02  0.19952190969E+03  0.24662788969E+03  0.12500212571E+03 0.  0.
          2    1    1    2  501    0 -0.18122717719E+02  0.30552943067E+02 -0.15659748074E+04  0.15663776725E+04  0.00000000000E+00 0. -1.
          1    1    1    2  502    0  0.35644912324E+02  0.40747581380E+02  0.21476957303E+04  0.21483779637E+04  0.00000000000E+00 0. -1.
         22    1    3    3    0    0 -0.67882950263E+01 -0.10565614958E+03  0.12458692625E+03  0.16349680451E+03  0.00000000000E+00 0.  1.
         22    1    3    3    0    0 -0.10733899579E+02  0.34355625132E+02  0.74934983441E+02  0.83131085171E+02  0.00000000000E+00 0.  1.
</event>
<event>
 7    1  0.7961130E-006  0.5788149E+02  0.7818608E-02  0.1451313E+00
          2   -1    0    0  502    0  0.00000000000E+00  0.00000000000E+00  0.16746977938E+04  0.16746977938E+04  0.00000000000E+00 0. -1.
          1   -1    0    0  501    0 -0.00000000000E+00 -0.00000000000E+00 -0.33851968842E+02  0.33851968842E+02  0.00000000000E+00 0. -1.
         25    2    1    2    0    0 -0.14258621387E+02  0.23515107605E+02  0.50924818149E+03  0.52508545924E+03  0.12499904232E+03 0.  0.
          2    1    1    2  501    0 -0.49251909202E+01 -0.60121420579E+02  0.10048588804E+02  0.61154042017E+02  0.00000000000E+00 0. -1.
          1    1    1    2  502    0  0.19183812307E+02  0.36606312973E+02  0.11215490547E+04  0.11223102614E+04  0.00000000000E+00 0. -1.
         22    1    3    3    0    0  0.80469553706E+01  0.47151370356E+02  0.70855617305E+02  0.85489904204E+02  0.00000000000E+00 0. -1.
         22    1    3    3    0    0 -0.22305576757E+02 -0.23636262751E+02  0.43839256418E+03  0.43959555503E+03  0.00000000000E+00 0. -1.
</event>
<event>
 7    1  0.7961130E-006  0.8167731E+02  0.7818608E-02  0.1359804E+00
          2   -1    0    0  502    0  0.00000000000E+00  0.00000000000E+00  0.17699668685E+04  0.17699668685E+04  0.00000000000E+00 0. -1.
          1   -1    0    0  501    0 -0.00000000000E+00 -0.00000000000E+00 -0.80642987081E+02  0.80642987081E+02  0.00000000000E+00 0. -1.
         25    2    1    2    0    0  0.13546040651E+03 -0.20203973763E+01  0.85072953237E+03  0.87047084999E+03  0.12500063881E+03 0.  0.
          2    1    1    2  501    0 -0.77919966395E+02  0.19503571260E+02 -0.46627711960E+02  0.92876552356E+02  0.00000000000E+00 0. -1.
          1    1    1    2  502    0 -0.57540440117E+02 -0.17483173883E+02  0.88522206101E+03  0.88726245323E+03  0.00000000000E+00 0. -1.
         22    1    3    3    0    0  0.12173024486E+02 -0.45712215688E+02  0.13919390472E+03  0.14701269435E+03  0.00000000000E+00 0.  1.
         22    1    3    3    0    0  0.12328738203E+03  0.43691818312E+02  0.71153562765E+03  0.72345815564E+03  0.00000000000E+00 0.  1.
</event>
<event>
 7    1  0.7961130E-006  0.1760396E+03  0.7818608E-02  0.1194487E+00
          2   -1    0    0  502    0  0.00000000000E+00  0.00000000000E+00  0.24401887317E+04  0.24401887317E+04  0.00000000000E+00 0. -1.
          1   -1    0    0  501    0 -0.00000000000E+00 -0.00000000000E+00 -0.10230330919E+03  0.10230330919E+03  0.00000000000E+00 0. -1.
         25    2    1    2    0    0 -0.13698319135E+03 -0.20069449795E+03  0.94439423848E+03  0.98313293515E+03  0.12500885676E+03 0.  0.
          2    1    1    2  501    0  0.34083984871E+01  0.17290684926E+03  0.14403669450E+02  0.17353922149E+03  0.00000000000E+00 0. -1.
          1    1    1    2  502    0  0.13357479286E+03  0.27787648690E+02  0.13790875146E+04  0.13858198843E+04  0.00000000000E+00 0. -1.
         22    1    3    3    0    0  0.16104099422E+02 -0.40554745750E+00  0.11940147580E+03  0.12048327233E+03  0.00000000000E+00 0. -1.
         22    1    3    3    0    0 -0.15308729077E+03 -0.20028895049E+03  0.82499276268E+03  0.86264966282E+03  0.00000000000E+00 0. -1.
</event>
<event>
 7    1  0.7961130E-006  0.1346078E+03  0.7818608E-02  0.1328229E+00
          2   -1    0    0  502    0  0.00000000000E+00  0.00000000000E+00  0.17132004779E+04  0.17132004779E+04  0.00000000000E+00 0. -1.
          1   -1    0    0  501    0 -0.00000000000E+00 -0.00000000000E+00 -0.29606703781E+03  0.29606703781E+03  0.00000000000E+00 0. -1.
         25    2    1    2    0    0  0.81997127047E+02  0.10580187495E+03 -0.12988806830E+03  0.22452974445E+03  0.12500052108E+03 0.  0.
          2    1    1    2  501    0 -0.42269864002E+02 -0.13254794292E+03 -0.77672290750E+02  0.15933826698E+03  0.00000000000E+00 0. -1.
          1    1    1    2  502    0 -0.39727263045E+02  0.26746067971E+02  0.16246937991E+04  0.16253995043E+04  0.00000000000E+00 0. -1.
         22    1    3    3    0    0  0.11849324648E+02  0.25922691447E+02 -0.11342884535E+03  0.11695509986E+03  0.00000000000E+00 0. -1.
         22    1    3    3    0    0  0.70147802399E+02  0.79879183501E+02 -0.16459222948E+02  0.10757464459E+03  0.00000000000E+00 0. -1.
</event>
<event>
 7    1  0.7961130E-006  0.4042316E+02  0.7818608E-02  0.1520253E+00
          2   -1    0    0  502    0  0.00000000000E+00  0.00000000000E+00  0.13696670050E+04  0.13696670050E+04  0.00000000000E+00 0. -1.
          1   -1    0    0  501    0 -0.00000000000E+00 -0.00000000000E+00 -0.84582348258E+01  0.84582348258E+01  0.00000000000E+00 0. -1.
         25    2    1    2    0    0  0.29603139814E+02  0.42681917829E+01  0.69093619474E+03  0.70279137828E+03  0.12501333066E+03 0.  0.
          2    1    1    2  501    0 -0.74824974171E+01 -0.39724604513E+02  0.35891802056E+03  0.36118717787E+03  0.00000000000E+00 0. -1.
          1    1    1    2  502    0 -0.22120642397E+02  0.35456412730E+02  0.31135455485E+03  0.31414668365E+03  0.00000000000E+00 0. -1.
         22    1    3    3    0    0 -0.18286401511E+02  0.17668947926E+02  0.27349970886E+02  0.37344412011E+02  0.00000000000E+00 0.  1.
         22    1    3    3    0    0  0.47889541324E+02 -0.13400756143E+02  0.66358622385E+03  0.66544696627E+03  0.00000000000E+00 0.  1.
</event>
<event>
 7    1  0.7961130E-006  0.7813264E+02  0.7818608E-02  0.1464159E+00
          2   -1    0    0  502    0  0.00000000000E+00  0.00000000000E+00  0.86176017260E+03  0.86176017260E+03  0.00000000000E+00 0. -1.
          1   -1    0    0  501    0 -0.00000000000E+00 -0.00000000000E+00 -0.41650604251E+02  0.41650604251E+02  0.00000000000E+00 0. -1.
         25    2    1    2    0    0 -0.81007533533E+02  0.38163613235E+02  0.30981277146E+03  0.34587288366E+03  0.12500166570E+03 0.  0.
          2    1    1    2  501    0  0.24271844412E+02  0.13718736099E+02 -0.11462422269E+02  0.30144871464E+02  0.00000000000E+00 0. -1.
          1    1    1    2  502    0  0.56735689121E+02 -0.51882349334E+02  0.52175921916E+03  0.52739302173E+03  0.00000000000E+00 0. -1.
         22    1    3    3    0    0 -0.73994374427E+02  0.75321218201E+02  0.16254628372E+03  0.19382917146E+03  0.00000000000E+00 0.  1.
         22    1    3    3    0    0 -0.70131591055E+01 -0.37157604966E+02  0.14726648774E+03  0.15204371220E+03  0.00000000000E+00 0.  1.
</event>
<event>
 7    1  0.7961130E-006  0.2079674E+03  0.7818608E-02  0.1227730E+00
          2   -1    0    0  502    0  0.00000000000E+00  0.00000000000E+00  0.13395024857E+04  0.13395024857E+04  0.00000000000E+00 0. -1.
          1   -1    0    0  501    0 -0.00000000000E+00 -0.00000000000E+00 -0.65089718033E+03  0.65089718033E+03  0.00000000000E+00 0. -1.
         25    2    1    2    0    0  0.13879266286E+03  0.28683662627E+02  0.39944343377E+02  0.19315101434E+03  0.12500243200E+03 0.  0.
          2    1    1    2  501    0  0.62151495134E+02  0.51994514944E+02 -0.56177909216E+03  0.56759315211E+03  0.00000000000E+00 0. -1.
          1    1    1    2  502    0 -0.20094415800E+03 -0.80678177571E+02  0.12104400541E+04  0.12296554995E+04  0.00000000000E+00 0. -1.
         22    1    3    3    0    0  0.43855826421E+02  0.71973781210E+02  0.23714620515E+02  0.87555364878E+02  0.00000000000E+00 0.  1.
         22    1    3    3    0    0  0.94936836440E+02 -0.43290118583E+02  0.16229722863E+02  0.10559564946E+03  0.00000000000E+00 0.  1.
</event>
<event>
 7    1  0.7961130E-006  0.1379157E+03  0.7818608E-02  0.1247976E+00
          2   -1    0    0  502    0  0.00000000000E+00  0.00000000000E+00  0.19413020316E+04  0.19413020316E+04  0.00000000000E+00 0. -1.
          1   -1    0    0  501    0 -0.00000000000E+00 -0.00000000000E+00 -0.12532738558E+04  0.12532738558E+04  0.00000000000E+00 0. -1.
         25    2    1    2    0    0 -0.63621567753E+02  0.69989776172E+02 -0.25582914806E+02  0.15883387740E+03  0.12500976934E+03 0.  0.
          2    1    1    2  501    0 -0.76168995415E+02 -0.63878784932E+02 -0.11563189017E+04  0.11605841708E+04  0.00000000000E+00 0. -1.
          1    1    1    2  502    0  0.13979056317E+03 -0.61109912402E+01  0.18699299923E+04  0.18751578392E+04  0.00000000000E+00 0. -1.
         22    1    3    3    0    0  0.18115554804E+02  0.37437865538E+02 -0.52360588198E+02  0.66868515000E+02  0.00000000000E+00 0. -1.
         22    1    3    3    0    0 -0.81737122557E+02  0.32551910634E+02  0.26777673392E+02  0.91965362404E+02  0.00000000000E+00 0. -1.
</event>
<event>
 7    1  0.7961130E-006  0.7045576E+02  0.7818608E-02  0.1363601E+00
          2   -1    0    0  502    0  0.00000000000E+00  0.00000000000E+00  0.92094366939E+03  0.92094366939E+03  0.00000000000E+00 0. -1.
          1   -1    0    0  501    0 -0.00000000000E+00 -0.00000000000E+00 -0.97915995716E+02  0.97915995716E+02  0.00000000000E+00 0. -1.
         25    2    1    2    0    0 -0.15361439674E+02  0.35159866056E+01  0.44759436600E+03  0.46498865413E+03  0.12500158402E+03 0.  0.
          2    1    1    2  501    0  0.14846101650E+02 -0.71046416896E+02 -0.71488675004E+02  0.10187556499E+03  0.00000000000E+00 0. -1.
          1    1    1    2  502    0  0.51533802369E+00  0.67530430290E+02  0.44692198268E+03  0.45199544598E+03  0.00000000000E+00 0. -1.
         22    1    3    3    0    0 -0.19151193515E+02  0.37141308398E+02  0.46692526504E+02  0.62661288160E+02  0.00000000000E+00 0. -1.
         22    1    3    3    0    0  0.37897538412E+01 -0.33625321792E+02  0.40090183950E+03  0.40232736597E+03  0.00000000000E+00 0. -1.
</event>
<event>
 7    1  0.1563177E-005  0.9092086E+02  0.7818608E-02  0.1329754E+00
          2   -1    0    0  502    0  0.00000000000E+00  0.00000000000E+00  0.25524161991E+04  0.25524161991E+04  0.00000000000E+00 0. -1.
          1   -1    0    0  501    0 -0.00000000000E+00 -0.00000000000E+00 -0.22930663448E+04  0.22930663448E+04  0.00000000000E+00 0. -1.
         25    2    1    2    0    0 -0.35214624699E+02  0.95847722774E+01 -0.50515134047E+03  0.52166573847E+03  0.12500131302E+03 0.  0.
          2    1    1    2  501    0  0.76086792161E+02 -0.66359969558E+02 -0.17777443912E+04  0.17806088751E+04  0.00000000000E+00 0. -1.
          1    1    1    2  502    0 -0.40872167463E+02  0.56775197280E+02  0.25422455860E+04  0.25432079303E+04  0.00000000000E+00 0. -1.
         22    1    3    3    0    0  0.33490251617E+02  0.42193996036E+02 -0.19222373013E+03  0.19962938832E+03  0.00000000000E+00 0.  1.
         22    1    3    3    0    0 -0.68704876316E+02 -0.32609223758E+02 -0.31292761034E+03  0.32203635015E+03  0.00000000000E+00 0.  1.
</event>
<event>
 7    1  0.7961130E-006  0.1173206E+03  0.7818608E-02  0.1308972E+00
          2   -1    0    0  502    0  0.00000000000E+00  0.00000000000E+00  0.87793670460E+03  0.87793670460E+03  0.00000000000E+00 0. -1.
          1   -1    0    0  501    0 -0.00000000000E+00 -0.00000000000E+00 -0.15930925087E+04  0.15930925087E+04  0.00000000000E+00 0. -1.
         25    2    1    2    0    0 -0.83350837789E+02  0.15902509050E+03 -0.18077773448E+03  0.28380009565E+03  0.12500225373E+03 0.  0.
          2    1    1    2  501    0  0.56322825117E+02 -0.99593597742E+02 -0.13571030256E+04  0.13619176801E+04  0.00000000000E+00 0. -1.
          1    1    1    2  502    0  0.27028012672E+02 -0.59431492761E+02  0.82272495596E+03  0.82531143755E+03  0.00000000000E+00 0. -1.
         22    1    3    3    0    0 -0.79182001099E+02  0.17236985654E+03 -0.18884131182E+03  0.26766060187E+03  0.00000000000E+00 0.  1.
         22    1    3    3    0    0 -0.41688366904E+01 -0.13344766039E+02  0.80635773392E+01  0.16139493781E+02  0.00000000000E+00 0.  1.
</event>
<event>
 7    1  0.7961130E-006  0.1839207E+03  0.7818608E-02  0.1268637E+00
          2   -1    0    0  502    0  0.00000000000E+00  0.00000000000E+00  0.18617701146E+04  0.18617701146E+04  0.00000000000E+00 0. -1.
          1   -1    0    0  501    0 -0.00000000000E+00 -0.00000000000E+00 -0.17823720747E+03  0.17823720747E+03  0.00000000000E+00 0. -1.
         25    2    1    2    0    0  0.56611102243E+02  0.19200094519E+03  0.21989020282E+03  0.32256122620E+03  0.12499945400E+03 0.  0.
          2    1    1    2  501    0 -0.10139427966E+03 -0.15086165910E+03 -0.60893289751E+02  0.19169776439E+03  0.00000000000E+00 0. -1.
          1    1    1    2  502    0  0.44783177418E+02 -0.41139286090E+02  0.15245359940E+04  0.15257483314E+04  0.00000000000E+00 0. -1.
         22    1    3    3    0    0  0.96427353640E+02  0.12905870498E+03  0.15910939745E+03  0.22642920354E+03  0.00000000000E+00 0. -1.
         22    1    3    3    0    0 -0.39816251397E+02  0.62942240215E+02  0.60780805375E+02  0.96132022660E+02  0.00000000000E+00 0. -1.
</event>
<event>
 7    1  0.9919524E-006  0.8435386E+02  0.7818608E-02  0.1366408E+00
          2   -1    0    0  502    0  0.00000000000E+00  0.00000000000E+00  0.25741267412E+04  0.25741267412E+04  0.00000000000E+00 0. -1.
          1   -1    0    0  501    0 -0.00000000000E+00 -0.00000000000E+00 -0.15066346778E+04  0.15066346778E+04  0.00000000000E+00 0. -1.
         25    2    1    2    0    0 -0.10672174344E+03  0.51441898667E+02 -0.19339562817E+03  0.25896479896E+03  0.12500039457E+03 0.  0.
          2    1    1    2  501    0  0.53347987700E+02  0.13786803758E+02 -0.12791624045E+04  0.12803486013E+04  0.00000000000E+00 0. -1.
          1    1    1    2  502    0  0.53373755742E+02 -0.65228702425E+02  0.25400500961E+04  0.25414480187E+04  0.00000000000E+00 0. -1.
         22    1    3    3    0    0 -0.23616985893E+02 -0.39161807368E+02 -0.30870469516E+02  0.55176037074E+02  0.00000000000E+00 0. -1.
         22    1    3    3    0    0 -0.83104757549E+02  0.90603706035E+02 -0.16252515865E+03  0.20378876188E+03  0.00000000000E+00 0. -1.
</event>
<event>
 7    1  0.7961130E-006  0.4318132E+02  0.7818608E-02  0.1557896E+00
          2   -1    0    0  502    0  0.00000000000E+00  0.00000000000E+00  0.80235951288E+03  0.80235951288E+03  0.00000000000E+00 0. -1.
          1   -1    0    0  501    0 -0.00000000000E+00 -0.00000000000E+00 -0.41582074916E+03  0.41582074916E+03  0.00000000000E+00 0. -1.
         25    2    1    2    0    0 -0.55373571197E+01  0.68621643066E+02 -0.36058030643E+02  0.14719100356E+03  0.12500167092E+03 0.  0.
          2    1    1    2  501    0  0.75078375493E+01 -0.25655398420E+02 -0.32302438023E+03  0.32412855060E+03  0.00000000000E+00 0. -1.
          1    1    1    2  502    0 -0.19704804296E+01 -0.42966244646E+02  0.74562117459E+03  0.74686070788E+03  0.00000000000E+00 0. -1.
         22    1    3    3    0    0  0.54765120304E+01  0.38656238784E+01  0.43504067000E+02  0.44017486043E+02  0.00000000000E+00 0.  1.
         22    1    3    3    0    0 -0.11013869150E+02  0.64756019187E+02 -0.79562097643E+02  0.10317351751E+03  0.00000000000E+00 0.  1.
</event>
<event>
 7    1  0.7961130E-006  0.2439870E+02  0.7818608E-02  0.1671706E+00
          2   -1    0    0  502    0  0.00000000000E+00  0.00000000000E+00  0.14788551383E+04  0.14788551383E+04  0.00000000000E+00 0. -1.
          1   -1    0    0  501    0 -0.00000000000E+00 -0.00000000000E+00 -0.52764528811E+02  0.52764528811E+02  0.00000000000E+00 0. -1.
         25    2    1    2    0    0  0.22482989980E+02 -0.63156334303E-01  0.96477479405E+02  0.15949289337E+03  0.12499836070E+03 0.  0.
          2    1    1    2  501    0 -0.11842199883E+02 -0.21892934244E+02 -0.13821537597E+02  0.28470566721E+02  0.00000000000E+00 0. -1.
          1    1    1    2  502    0 -0.10640790097E+02  0.21956090578E+02  0.13434346677E+04  0.13436562070E+04  0.00000000000E+00 0. -1.
         22    1    3    3    0    0  0.15647987682E+01 -0.85407059396E+01 -0.29889953741E+02  0.31125577710E+02  0.00000000000E+00 0. -1.
         22    1    3    3    0    0  0.20918191212E+02  0.84775496053E+01  0.12636743315E+03  0.12836731566E+03  0.00000000000E+00 0. -1.
</event>
<event>
 7    1  0.7961130E-006  0.2204334E+03  0.7818608E-02  0.1356694E+00
          2   -1    0    0  502    0  0.00000000000E+00  0.00000000000E+00  0.38399559810E+03  0.38399559810E+03  0.00000000000E+00 0. -1.
          1   -1    0    0  501    0 -0.00000000000E+00 -0.00000000000E+00 -0.12397081454E+04  0.12397081454E+04  0.00000000000E+00 0. -1.
         25    2    1    2    0    0  0.21536826685E+03 -0.29539633758E+02 -0.38632951249E+03  0.46057694781E+03  0.12499820922E+03 0.  0.
          2    1    1    2  501    0  0.52869214789E+01  0.22255319695E+02 -0.78094095391E+03  0.78127589512E+03  0.00000000000E+00 0. -1.
          1    1    1    2  502    0 -0.22065518832E+03  0.72843140629E+01  0.31155791906E+03  0.38185090061E+03  0.00000000000E+00 0. -1.
         22    1    3    3    0    0  0.51551785889E+01 -0.34856793152E+02 -0.27598904899E+02  0.44757920492E+02  0.00000000000E+00 0. -1.
         22    1    3    3    0    0  0.21021308826E+03  0.53171593940E+01 -0.35873060759E+03  0.41581902732E+03  0.00000000000E+00 0. -1.
</event>
<event>
 7    1  0.7961130E-006  0.1414868E+03  0.7818608E-02  0.1379351E+00
          2   -1    0    0  502    0  0.00000000000E+00  0.00000000000E+00  0.22551002731E+04  0.22551002731E+04  0.00000000000E+00 0. -1.
          1   -1    0    0  501    0 -0.00000000000E+00 -0.00000000000E+00 -0.21715146262E+04  0.21715146262E+04  0.00000000000E+00 0. -1.
         25    2    1    2    0    0 -0.10948880074E+02 -0.16338562249E+03  0.77650092068E+03  0.80336452223E+03  0.12500454451E+03 0.  0.
          2    1    1    2  501    0  0.27260023586E+02  0.13877327700E+03 -0.21556166697E+04  0.21602509942E+04  0.00000000000E+00 0. -1.
          1    1    1    2  502    0 -0.16311143511E+02  0.24612345484E+02  0.14627013958E+04  0.14629993829E+04  0.00000000000E+00 0. -1.
         22    1    3    3    0    0  0.42460975351E+02 -0.12920518132E+03  0.61505223178E+03  0.62990964521E+03  0.00000000000E+00 0. -1.
         22    1    3    3    0    0 -0.53409855425E+02 -0.34180441168E+02  0.16144868891E+03  0.17345487703E+03  0.00000000000E+00 0. -1.
</event>
<event>
 7    1  0.7961130E-006  0.5004057E+02  0.7818608E-02  0.1469498E+00
          2   -1    0    0  502    0  0.00000000000E+00  0.00000000000E+00  0.11971928144E+04  0.11971928144E+04  0.00000000000E+00 0. -1.
          1   -1    0    0  501    0 -0.00000000000E+00 -0.00000000000E+00 -0.15872528309E+03  0.15872528309E+03  0.00000000000E+00 0. -1.
         25    2    1    2    0    0  0.15961833698E+02 -0.57564727214E+01  0.25907972915E+03  0.28816186033E+03  0.12500813805E+03 0.  0.
          2    1    1    2  501    0  0.30819923343E+02  0.28373679765E+02 -0.14039249053E+03  0.14650933341E+03  0.00000000000E+00 0. -1.
          1    1    1    2  502    0 -0.46781757041E+02 -0.22617207043E+02  0.91978029273E+03  0.92124690378E+03  0.00000000000E+00 0. -1.
         22    1    3    3    0    0 -0.33591797299E+02 -0.15380629058E+02  0.22318290114E+03  0.22622020237E+03  0.00000000000E+00 0. -1.
         22    1    3    3    0    0  0.49553630996E+02  0.96241563368E+01  0.35896828011E+02  0.61941657964E+02  0.00000000000E+00 0. -1.
</event>
<event>
 7    1  0.7961130E-006  0.1166666E+03  0.7818608E-02  0.1293774E+00
          2   -1    0    0  502    0  0.00000000000E+00  0.00000000000E+00  0.15404982780E+03  0.15404982780E+03  0.00000000000E+00 0. -1.
          1   -1    0    0  501    0 -0.00000000000E+00 -0.00000000000E+00 -0.34038815316E+03  0.34038815316E+03  0.00000000000E+00 0. -1.
         25    2    1    2    0    0  0.77170034987E+02 -0.20129319275E+02 -0.97900212878E+01  0.14863168868E+03  0.12504051571E+03 0.  0.
          2    1    1    2  501    0  0.75108822621E+02  0.77251968900E+01 -0.17763837097E+03  0.19301918232E+03  0.00000000000E+00 0. -1.
          1    1    1    2  502    0 -0.15227885761E+03  0.12404122385E+02  0.10900668888E+01  0.15278710997E+03  0.00000000000E+00 0. -1.
         22    1    3    3    0    0 -0.49792759298E+01  0.72996846386E+01  0.45190656987E+02  0.46046433777E+02  0.00000000000E+00 0.  1.
         22    1    3    3    0    0  0.82149310916E+02 -0.27429003913E+02 -0.54980678275E+02  0.10258525490E+03  0.00000000000E+00 0.  1.
</event>
<event>
 7    1  0.7961130E-006  0.2835173E+03  0.7818608E-02  0.1173455E+00
          2   -1    0    0  502    0  0.00000000000E+00  0.00000000000E+00  0.75358339374E+03  0.75358339374E+03  0.00000000000E+00 0. -1.
          1   -1    0    0  501    0 -0.00000000000E+00 -0.00000000000E+00 -0.79883730694E+03  0.79883730694E+03  0.00000000000E+00 0. -1.
         25    2    1    2    0    0 -0.55446108482E+02  0.25897697804E+03 -0.85741206954E+02  0.30515606254E+03  0.12500128732E+03 0.  0.
          2    1    1    2  501    0 -0.46939170044E+02 -0.29051580352E+03 -0.56250227917E+03  0.63483189259E+03  0.00000000000E+00 0. -1.
          1    1    1    2  502    0  0.10238527853E+03  0.31538825474E+02  0.60298957293E+03  0.61243274556E+03  0.00000000000E+00 0. -1.
         22    1    3    3    0    0 -0.11768221341E+01  0.10774725167E+03 -0.95782191080E+02  0.14417032733E+03  0.00000000000E+00 0.  1.
         22    1    3    3    0    0 -0.54269286348E+02  0.15122972637E+03  0.10040984126E+02  0.16098573521E+03  0.00000000000E+00 0.  1.
</event>
<event>
 7    1  0.7961130E-006  0.5541243E+02  0.7818608E-02  0.1434750E+00
          2   -1    0    0  502    0  0.00000000000E+00  0.00000000000E+00  0.86754876007E+02  0.86754876007E+02  0.00000000000E+00 0. -1.
          1   -1    0    0  501    0 -0.00000000000E+00 -0.00000000000E+00 -0.16627735087E+04  0.16627735087E+04  0.00000000000E+00 0. -1.
         25    2    1    2    0    0 -0.13977497042E+02  0.73504463767E+02 -0.61244352013E+03  0.62953277989E+03  0.12500471586E+03 0.  0.
          2    1    1    2  501    0  0.43153601306E+02 -0.34346994772E+02 -0.10333553386E+04  0.10348261715E+04  0.00000000000E+00 0. -1.
          1    1    1    2  502    0 -0.29176104264E+02 -0.39157468994E+02  0.69780226013E+02  0.85169433369E+02  0.00000000000E+00 0. -1.
         22    1    3    3    0    0 -0.15203845169E+01  0.89587096628E+02 -0.59777561107E+03  0.60445334033E+03  0.00000000000E+00 0.  1.
         22    1    3    3    0    0 -0.12457112525E+02 -0.16082632861E+02 -0.14667909063E+02  0.25079439557E+02  0.00000000000E+00 0.  1.
</event>
<event>
 7    1  0.7961130E-006  0.9309351E+02  0.7818608E-02  0.1360679E+00
          2   -1    0    0  502    0  0.00000000000E+00  0.00000000000E+00  0.15255814061E+04  0.15255814061E+04  0.00000000000E+00 0. -1.
          1   -1    0    0  501    0 -0.00000000000E+00 -0.00000000000E+00 -0.24889095814E+03  0.24889095814E+03  0.00000000000E+00 0. -1.
         25    2    1    2    0    0 -0.42083818618E+02  0.30223609652E+02  0.15987318738E+03  0.20944440459E+03  0.12499203255E+03 0.  0.
          2    1    1    2  501    0  0.48909567940E+02 -0.82153794189E+02 -0.21336880043E+03  0.23381111337E+03  0.00000000000E+00 0. -1.
          1    1    1    2  502    0 -0.68257493223E+01  0.51930184537E+02  0.13301860610E+04  0.13312168463E+04  0.00000000000E+00 0. -1.
         22    1    3    3    0    0  0.43999992433E+02  0.20521769884E+02  0.53124099617E+02  0.71967439397E+02  0.00000000000E+00 0.  1.
         22    1    3    3    0    0 -0.86083811051E+02  0.97018397677E+01  0.10674908776E+03  0.13747696519E+03  0.00000000000E+00 0.  1.
</event>
<event>
 7    1  0.7961130E-006  0.1059947E+03  0.7818608E-02  0.1341125E+00
          2   -1    0    0  502    0  0.00000000000E+00  0.00000000000E+00  0.13936420230E+04  0.13936420230E+04  0.00000000000E+00 0. -1.
          1   -1    0    0  501    0 -0.00000000000E+00 -0.00000000000E+00 -0.19663744080E+03  0.19663744080E+03  0.00000000000E+00 0. -1.
         25    2    1    2    0    0  0.96349613494E+02  0.50767280072E+02  0.98284834242E+01  0.16607814916E+03  0.12499915118E+03 0.  0.
          2    1    1    2  501    0 -0.59292329819E+02 -0.90513136924E+02 -0.93117311183E+02  0.14275518195E+03  0.00000000000E+00 0. -1.
          1    1    1    2  502    0 -0.37057283675E+02  0.39745856853E+02  0.12802934099E+04  0.12814461327E+04  0.00000000000E+00 0. -1.
         22    1    3    3    0    0  0.20690527090E+02  0.79988256829E+02 -0.80914365941E+01  0.83016206176E+02  0.00000000000E+00 0. -1.
         22    1    3    3    0    0  0.75659086404E+02 -0.29220976757E+02  0.17919920018E+02  0.83061942980E+02  0.00000000000E+00 0. -1.
</event>
<event>
 7    1  0.7961130E-006  0.3407156E+02  0.7818608E-02  0.1627628E+00
          2   -1    0    0  502    0  0.00000000000E+00  0.00000000000E+00  0.13701902136E+04  0.13701902136E+04  0.00000000000E+00 0. -1.
          1   -1    0    0  501    0 -0.00000000000E+00 -0.00000000000E+00 -0.43566758115E+03  0.43566758115E+03  0.00000000000E+00 0. -1.
         25    2    1    2    0    0 -0.21790709665E+02 -0.30933321099E+02 -0.31191816394E+03  0.33815453225E+03  0.12499536514E+03 0.  0.
          2    1    1    2  501    0 -0.10348481157E+02  0.19615681372E+02 -0.10930352098E+03  0.11153082855E+03  0.00000000000E+00 0. -1.
          1    1    1    2  502    0  0.32139190822E+02  0.11317639727E+02  0.13557443174E+04  0.13561724340E+04  0.00000000000E+00 0. -1.
         22    1    3    3    0    0  0.25973663984E+02  0.23333849259E+02 -0.21182813314E+03  0.21468641720E+03  0.00000000000E+00 0. -1.
         22    1    3    3    0    0 -0.47764373648E+02 -0.54267170358E+02 -0.10009003080E+03  0.12346811505E+03  0.00000000000E+00 0. -1.
</event>
<event>
 7    1  0.7961130E-006  0.4058886E+02  0.7818608E-02  0.1534760E+00
          2   -1    0    0  502    0  0.00000000000E+00  0.00000000000E+00  0.10862478446E+04  0.10862478446E+04  0.00000000000E+00 0. -1.
          1   -1    0    0  501    0 -0.00000000000E+00 -0.00000000000E+00 -0.26416232625E+03  0.26416232625E+03  0.00000000000E+00 0. -1.
         25    2    1    2    0    0  0.25507251295E+01  0.11037989729E+02 -0.96202530944E+02  0.15813865947E+03  0.12499826096E+03 0.  0.
          2    1    1    2  501    0 -0.19277861002E+02 -0.39506863022E+02 -0.13319934744E+03  0.14026579879E+03  0.00000000000E+00 0. -1.
          1    1    1    2  502    0  0.16727135873E+02  0.28468873292E+02  0.10514873968E+04  0.10520057126E+04  0.00000000000E+00 0. -1.
         22    1    3    3    0    0 -0.47994662916E+02  0.43093625856E+02 -0.60562050406E+02  0.88477738484E+02  0.00000000000E+00 0.  1.
         22    1    3    3    0    0  0.50545388046E+02 -0.32055636126E+02 -0.35640480538E+02  0.69660920990E+02  0.00000000000E+00 0.  1.
</event>
<event>
 7    1  0.7961130E-006  0.1021700E+03  0.7818608E-02  0.1399416E+00
          2   -1    0    0  502    0  0.00000000000E+00  0.00000000000E+00  0.90994833285E+02  0.90994833285E+02  0.00000000000E+00 0. -1.
          1   -1    0    0  501    0 -0.00000000000E+00 -0.00000000000E+00 -0.39509073329E+03  0.39509073329E+03  0.00000000000E+00 0. -1.
         25    2    1    2    0    0 -0.45645817350E+02  0.12304166633E+03 -0.20581157309E+03  0.27423758670E+03  0.12500023217E+03 0.  0.
          2    1    1    2  501    0  0.72677533389E+01 -0.34027899447E+02 -0.10890941550E+03  0.11433275543E+03  0.00000000000E+00 0. -1.
          1    1    1    2  502    0  0.38378064011E+02 -0.89013766881E+02  0.10625088591E+02  0.97515224448E+02  0.00000000000E+00 0. -1.
         22    1    3    3    0    0 -0.26788980406E+02  0.26497092752E+02 -0.16240290092E+03  0.16671666870E+03  0.00000000000E+00 0. -1.
         22    1    3    3    0    0 -0.18856836944E+02  0.96544573576E+02 -0.43408672173E+02  0.10752091799E+03  0.00000000000E+00 0. -1.
</event>
<event>
 7    1  0.7961130E-006  0.1380012E+03  0.7818608E-02  0.1323283E+00
          2   -1    0    0  502    0  0.00000000000E+00  0.00000000000E+00  0.10508750917E+04  0.10508750917E+04  0.00000000000E+00 0. -1.
          1   -1    0    0  501    0 -0.00000000000E+00 -0.00000000000E+00 -0.13794756633E+04  0.13794756633E+04  0.00000000000E+00 0. -1.
         25    2    1    2    0    0 -0.97081372165E+02 -0.36578450200E+02 -0.42488501408E+03  0.45487889662E+03  0.12499903821E+03 0.  0.
          2    1    1    2  501    0  0.13939900157E+03  0.60891978715E+02 -0.93285472558E+03  0.94517609669E+03  0.00000000000E+00 0. -1.
          1    1    1    2  502    0 -0.42317629402E+02 -0.24313528516E+02  0.10291391680E+04  0.10302957617E+04  0.00000000000E+00 0. -1.
         22    1    3    3    0    0 -0.32903766620E+02  0.55963068527E+01 -0.12875726965E+02  0.35773745304E+02  0.00000000000E+00 0.  1.
         22    1    3    3    0    0 -0.64177605545E+02 -0.42174757052E+02 -0.41200928712E+03  0.41910515131E+03  0.00000000000E+00 0.  1.
</event>
<event>
 7    1  0.7961130E-006  0.5753329E+02  0.7818608E-02  0.1439865E+00
          2   -1    0    0  502    0  0.00000000000E+00  0.00000000000E+00  0.61331757486E+03  0.61331757486E+03  0.00000000000E+00 0. -1.
          1   -1    0    0  501    0 -0.00000000000E+00 -0.00000000000E+00 -0.83169631035E+02  0.83169631035E+02  0.00000000000E+00 0. -1.
         25    2    1    2    0    0  0.17972376589E+02 -0.15741830253E+02  0.71855459948E+02  0.14614522717E+03  0.12499763502E+03 0.  0.
          2    1    1    2  501    0 -0.63225139655E+02  0.16632851100E+02 -0.21192493842E+02  0.68725481558E+02  0.00000000000E+00 0. -1.
          1    1    1    2  502    0  0.45252763067E+02 -0.89102084698E+00  0.47948497772E+03  0.48161649717E+03  0.00000000000E+00 0. -1.
         22    1    3    3    0    0  0.57388906695E+02 -0.46908358390E+02  0.27303930299E+02  0.78989779770E+02  0.00000000000E+00 0.  1.
         22    1    3    3    0    0 -0.39416530106E+02  0.31166528137E+02  0.44551529650E+02  0.67155447403E+02  0.00000000000E+00 0.  1.
</event>
<event>
 7    1  0.7961130E-006  0.7448959E+02  0.7818608E-02  0.1431346E+00
          2   -1    0    0  502    0  0.00000000000E+00  0.00000000000E+00  0.10109699109E+04  0.10109699109E+04  0.00000000000E+00 0. -1.
          1   -1    0    0  501    0 -0.00000000000E+00 -0.00000000000E+00 -0.19327897276E+04  0.19327897276E+04  0.00000000000E+00 0. -1.
         25    2    1    2    0    0  0.43645689836E+02  0.10021224731E+03  0.77429723061E+03  0.79190156460E+03  0.12499778368E+03 0.  0.
          2    1    1    2  501    0 -0.19431478818E+02 -0.71878397949E+02 -0.19217377204E+04  0.19231796465E+04  0.00000000000E+00 0. -1.
          1    1    1    2  502    0 -0.24214211018E+02 -0.28333849365E+02  0.22562067307E+03  0.22867842739E+03  0.00000000000E+00 0. -1.
         22    1    3    3    0    0  0.65421412616E+02  0.73289979126E+02  0.28647501334E+03  0.30285196968E+03  0.00000000000E+00 0. -1.
         22    1    3    3    0    0 -0.21775722780E+02  0.26922268188E+02  0.48782221727E+03  0.48904959492E+03  0.00000000000E+00 0. -1.
</event>
<event>
 7    1  0.7961130E-006  0.7217328E+02  0.7818608E-02  0.1461043E+00
          2   -1    0    0  502    0  0.00000000000E+00  0.00000000000E+00  0.13145200213E+04  0.13145200213E+04  0.00000000000E+00 0. -1.
          1   -1    0    0  501    0 -0.00000000000E+00 -0.00000000000E+00 -0.27104949111E+03  0.27104949111E+03  0.00000000000E+00 0. -1.
         25    2    1    2    0    0  0.25740034196E+02 -0.38675582804E+02  0.28678880232E+03  0.31627265419E+03  0.12498889785E+03 0.  0.
          2    1    1    2  501    0  0.27849501993E+02 -0.13320335557E+02 -0.25399571932E+03  0.25586490876E+03  0.00000000000E+00 0. -1.
          1    1    1    2  502    0 -0.53589536189E+02  0.51995918362E+02  0.10106774472E+04  0.10134319495E+04  0.00000000000E+00 0. -1.
         22    1    3    3    0    0  0.37936470111E+02  0.34706233177E+02  0.17172157243E+03  0.17925400085E+03  0.00000000000E+00 0. -1.
         22    1    3    3    0    0 -0.12196435915E+02 -0.73381815981E+02  0.11506722989E+03  0.13701865333E+03  0.00000000000E+00 0. -1.
</event>
<event>
 7    1  0.7961130E-006  0.1137253E+03  0.7818608E-02  0.1320359E+00
          2   -1    0    0  502    0  0.00000000000E+00  0.00000000000E+00  0.32611271843E+03  0.32611271843E+03  0.00000000000E+00 0. -1.
          1   -1    0    0  501    0 -0.00000000000E+00 -0.00000000000E+00 -0.11777798774E+04  0.11777798774E+04  0.00000000000E+00 0. -1.
         25    2    1    2    0    0 -0.12821848665E+03  0.17978999983E+02  0.25256162855E+03  0.31012357021E+03  0.12500411122E+03 0.  0.
          2    1    1    2  501    0  0.10684755194E+03  0.38926647378E+02 -0.11240845549E+04  0.11298220081E+04  0.00000000000E+00 0. -1.
          1    1    1    2  502    0  0.21370934705E+02 -0.56905647361E+02  0.19855767451E+02  0.63947017544E+02  0.00000000000E+00 0. -1.
         22    1    3    3    0    0 -0.11934322370E+03  0.92142511684E+01  0.97012444041E+02  0.15407505238E+03  0.00000000000E+00 0.  1.
         22    1    3    3    0    0 -0.88752629492E+01  0.87647488150E+01  0.15554918451E+03  0.15604851783E+03  0.00000000000E+00 0.  1.
</event>
<event>
 7    1  0.7961130E-006  0.1271959E+03  0.7818608E-02  0.1294496E+00
          2   -1    0    0  502    0  0.00000000000E+00  0.00000000000E+00  0.13661184568E+04  0.13661184568E+04  0.00000000000E+00 0. -1.
          1   -1    0    0  501    0 -0.00000000000E+00 -0.00000000000E+00 -0.15072227253E+03  0.15072227253E+03  0.00000000000E+00 0. -1.
         25    2    1    2    0    0  0.20498361634E+02  0.67611426327E+02  0.69007508742E+02  0.15930593241E+03  0.12499942415E+03 0.  0.
          2    1    1    2  501    0 -0.24752108347E+02  0.64183681309E+02 -0.90477675465E+02  0.11365923443E+03  0.00000000000E+00 0. -1.
          1    1    1    2  502    0  0.42537467129E+01 -0.13179510764E+03  0.12368663509E+04  0.12438755625E+04  0.00000000000E+00 0. -1.
         22    1    3    3    0    0 -0.25485453298E+02 -0.26415886151E+02  0.61627414973E+01  0.37219440535E+02  0.00000000000E+00 0.  1.
         22    1    3    3    0    0  0.45983814932E+02  0.94027312479E+02  0.62844767245E+02  0.12208649187E+03  0.00000000000E+00 0.  1.
</event>
<event>
 7    1  0.7961130E-006  0.9439941E+02  0.7818608E-02  0.1349966E+00
          2   -1    0    0  502    0  0.00000000000E+00  0.00000000000E+00  0.46785889861E+02  0.46785889861E+02  0.00000000000E+00 0. -1.
          1   -1    0    0  501    0 -0.00000000000E+00 -0.00000000000E+00 -0.14204838720E+04  0.14204838720E+04  0.00000000000E+00 0. -1.
         25    2    1    2    0    0 -0.91234508243E+02 -0.22298950936E+02 -0.33516886887E+03  0.36984272846E+03  0.12499797771E+03 0.  0.
          2    1    1    2  501    0 -0.25683897416E+00  0.56553380693E+02 -0.98384671156E+03  0.98547080255E+03  0.00000000000E+00 0. -1.
          1    1    1    2  502    0  0.91491347217E+02 -0.34254429758E+02 -0.54682401759E+02  0.11195623089E+03  0.00000000000E+00 0. -1.
         22    1    3    3    0    0  0.23656112855E+02  0.98069533211E+01 -0.13013515569E+03  0.13263086653E+03  0.00000000000E+00 0.  1.
         22    1    3    3    0    0 -0.11489062110E+03 -0.32105904257E+02 -0.20503371318E+03  0.23721186194E+03  0.00000000000E+00 0.  1.
</event>
<event>
 7    1  0.7961130E-006  0.4924050E+02  0.7818608E-02  0.1473669E+00
          2   -1    0    0  502    0  0.00000000000E+00  0.00000000000E+00  0.33854393770E+04  0.33854393770E+04  0.00000000000E+00 0. -1.
          1   -1    0    0  501    0 -0.00000000000E+00 -0.00000000000E+00 -0.47379868024E+01  0.47379868024E+01  0.00000000000E+00 0. -1.
         25    2    1    2    0    0 -0.68296382314E+02 -0.51646030440E+02  0.22137014577E+04  0.22188771908E+04  0.12494053012E+03 0.  0.
          2    1    1    2  501    0  0.36469269473E+02  0.25291762134E+02  0.29480545414E+03  0.29812738324E+03  0.00000000000E+00 0. -1.
          1    1    1    2  502    0  0.31827112840E+02  0.26354268306E+02  0.87219447838E+03  0.87317278971E+03  0.00000000000E+00 0. -1.
         22    1    3    3    0    0 -0.66232450012E+01 -0.79179441890E+02  0.92466014815E+03  0.92806769202E+03  0.00000000000E+00 0.  1.
         22    1    3    3    0    0 -0.61673137313E+02  0.27533411450E+02  0.12890413095E+04  0.12908094988E+04  0.00000000000E+00 0.  1.
</event>
<event>
 7    1  0.7961130E-006  0.3712106E+02  0.7818608E-02  0.1605608E+00
          2   -1    0    0  502    0  0.00000000000E+00  0.00000000000E+00  0.27916184198E+04  0.27916184198E+04  0.00000000000E+00 0. -1.
          1   -1    0    0  501    0 -0.00000000000E+00 -0.00000000000E+00 -0.51402747428E+03  0.51402747428E+03  0.00000000000E+00 0. -1.
         25    2    1    2    0    0 -0.21789355688E+02 -0.46610986245E+02  0.10804354667E+04  0.10888584654E+04  0.12499839961E+03 0.  0.
          2    1    1    2  501    0  0.65161282479E+00  0.37109190591E+02 -0.50906168152E+03  0.51041288406E+03  0.00000000000E+00 0. -1.
          1    1    1    2  502    0  0.21137742864E+02  0.95017956537E+01  0.17062171604E+04  0.17063745447E+04  0.00000000000E+00 0. -1.
         22    1    3    3    0    0  0.15668922443E+02 -0.66256416090E+02  0.31588681158E+03  0.32314069000E+03  0.00000000000E+00 0.  1.
         22    1    3    3    0    0 -0.37458278132E+02  0.19645429845E+02  0.76454865507E+03  0.76571777535E+03  0.00000000000E+00 0.  1.
</event>
<event>
 7    1  0.7961130E-006  0.9456171E+02  0.7818608E-02  0.1397103E+00
          2   -1    0    0  502    0  0.00000000000E+00  0.00000000000E+00  0.15250424812E+04  0.15250424812E+04  0.00000000000E+00 0. -1.
          1   -1    0    0  501    0 -0.00000000000E+00 -0.00000000000E+00 -0.24776621211E+02  0.24776621211E+02  0.00000000000E+00 0. -1.
         25    2    1    2    0    0  0.89594439966E+02 -0.31701388508E+02  0.57583552098E+03  0.59686172655E+03  0.12500092675E+03 0.  0.
          2    1    1    2  501    0 -0.18983883803E+02 -0.33254432446E+02  0.19529056135E+02  0.42984056987E+02  0.00000000000E+00 0. -1.
          1    1    1    2  502    0 -0.70610556163E+02  0.64955820954E+02  0.90490128285E+03  0.90997331885E+03  0.00000000000E+00 0. -1.
         22    1    3    3    0    0  0.46409326162E+01 -0.13716169576E+02 -0.35827923042E-01  0.14480084496E+02  0.00000000000E+00 0. -1.
         22    1    3    3    0    0  0.84953507350E+02 -0.17985218932E+02  0.57587134890E+03  0.58238164205E+03  0.00000000000E+00 0. -1.
</event>
<event>
 7    1  0.7961130E-006  0.1490101E+03  0.7818608E-02  0.1364007E+00
          2   -1    0    0  502    0  0.00000000000E+00  0.00000000000E+00  0.19183878916E+03  0.19183878916E+03  0.00000000000E+00 0. -1.
          1   -1    0    0  501    0 -0.00000000000E+00 -0.00000000000E+00 -0.28799871384E+03  0.28799871384E+03  0.00000000000E+00 0. -1.
         25    2    1    2    0    0  0.26120679332E+02  0.12087037320E+03 -0.14231616211E+03  0.22620869682E+03  0.12499819003E+03 0.  0.
          2    1    1    2  501    0 -0.12427722803E+01  0.31798807322E+02 -0.58689094498E+02  0.66761653986E+02  0.00000000000E+00 0. -1.
          1    1    1    2  502    0 -0.24877907052E+02 -0.15266918053E+03  0.10484533193E+03  0.18686715219E+03  0.00000000000E+00 0. -1.
         22    1    3    3    0    0  0.47149964302E+02  0.10428996362E+03 -0.15805754842E+03  0.19514534137E+03  0.00000000000E+00 0.  1.
         22    1    3    3    0    0 -0.21029284970E+02  0.16580409584E+02  0.15741386316E+02  0.31063355444E+02  0.00000000000E+00 0.  1.
</event>
<event>
 7    1  0.7961130E-006  0.5222133E+02  0.7818608E-02  0.1468866E+00
          2   -1    0    0  502    0  0.00000000000E+00  0.00000000000E+00  0.56256722754E+03  0.56256722754E+03  0.00000000000E+00 0. -1.
          1   -1    0    0  501    0 -0.00000000000E+00 -0.00000000000E+00 -0.14967017931E+04  0.14967017931E+04  0.00000000000E+00 0. -1.
         25    2    1    2    0    0 -0.20873627748E+02 -0.73043720629E+02  0.87403342912E+02  0.17039471298E+03  0.12499568153E+03 0.  0.
          2    1    1    2  501    0  0.37476938811E+02  0.36295699417E+02 -0.14537997771E+04  0.14547356085E+04  0.00000000000E+00 0. -1.
          1    1    1    2  502    0 -0.16603311063E+02  0.36748021212E+02  0.43226186865E+03  0.43413869914E+03  0.00000000000E+00 0. -1.
         22    1    3    3    0    0  0.32081980753E+01 -0.10429890876E+03  0.48802697669E+02  0.11519660673E+03  0.00000000000E+00 0.  1.
         22    1    3    3    0    0 -0.24081825823E+02  0.31255188129E+02  0.38600645243E+02  0.55198106246E+02  0.00000000000E+00 0.  1.
</event>
<event>
 7    1  0.7961130E-006  0.1362874E+03  0.7818608E-02  0.1282000E+00
          2   -1    0    0  502    0  0.00000000000E+00  0.00000000000E+00  0.23327969034E+04  0.23327969034E+04  0.00000000000E+00 0. -1.
          1   -1    0    0  501    0 -0.00000000000E+00 -0.00000000000E+00 -0.32484677142E+03  0.32484677142E+03  0.00000000000E+00 0. -1.
         25    2    1    2    0    0 -0.19195570585E+03 -0.42614843749E+02  0.30749492776E+03  0.38579965257E+03  0.12500089362E+03 0.  0.
          2    1    1    2  501    0  0.13375582282E+03 -0.10664083615E+00 -0.26934138264E+03  0.30072481094E+03  0.00000000000E+00 0. -1.
          1    1    1    2  502    0  0.58199883033E+02  0.42721484585E+02  0.19697965869E+04  0.19711192113E+04  0.00000000000E+00 0. -1.
         22    1    3    3    0    0 -0.67578222426E+02  0.19110244451E+02  0.19447034226E+03  0.20676250049E+03  0.00000000000E+00 0. -1.
         22    1    3    3    0    0 -0.12437748342E+03 -0.61725088199E+02  0.11302458550E+03  0.17903715208E+03  0.00000000000E+00 0. -1.
</event>
<event>
 7    1  0.7961130E-006  0.1271704E+03  0.7818608E-02  0.1339836E+00
          2   -1    0    0  502    0  0.00000000000E+00  0.00000000000E+00  0.77776186510E+03  0.77776186510E+03  0.00000000000E+00 0. -1.
          1   -1    0    0  501    0 -0.00000000000E+00 -0.00000000000E+00 -0.68515797085E+03  0.68515797085E+03  0.00000000000E+00 0. -1.
         25    2    1    2    0    0 -0.95263995742E+01  0.93972571240E+02  0.14271698610E+03  0.21193154739E+03  0.12500098489E+03 0.  0.
          2    1    1    2  501    0  0.22145946702E+02  0.40090986901E+02 -0.64217519182E+03  0.64380642058E+03  0.00000000000E+00 0. -1.
          1    1    1    2  502    0 -0.12619547128E+02 -0.13406355814E+03  0.59206209997E+03  0.60718186798E+03  0.00000000000E+00 0. -1.
         22    1    3    3    0    0  0.17137736899E+02  0.52585996495E+02  0.15207273730E+03  0.16181812780E+03  0.00000000000E+00 0. -1.
         22    1    3    3    0    0 -0.26664136473E+02  0.41386574745E+02 -0.93557512021E+01  0.50113419595E+02  0.00000000000E+00 0. -1.
</event>
<event>
 7    1  0.7961130E-006  0.1192902E+03  0.7818608E-02  0.1378020E+00
          2   -1    0    0  502    0  0.00000000000E+00  0.00000000000E+00  0.66454686239E+03  0.66454686239E+03  0.00000000000E+00 0. -1.
          1   -1    0    0  501    0 -0.00000000000E+00 -0.00000000000E+00 -0.36391039915E+04  0.36391039915E+04  0.00000000000E+00 0. -1.
         25    2    1    2    0    0 -0.78512967289E+02 -0.44579653059E+02  0.18770031647E+03  0.24291777650E+03  0.12500402328E+03 0.  0.
          2    1    1    2  501    0  0.90550087009E+02  0.77874486133E+02 -0.36098086120E+04  0.36117837655E+04  0.00000000000E+00 0. -1.
          1    1    1    2  502    0 -0.12037119720E+02 -0.33294833075E+02  0.44755116635E+03  0.44894931191E+03  0.00000000000E+00 0. -1.
         22    1    3    3    0    0 -0.10549492766E+03 -0.61683888836E+02  0.14630009042E+03  0.19062475799E+03  0.00000000000E+00 0. -1.
         22    1    3    3    0    0  0.26981960372E+02  0.17104235777E+02  0.41400226054E+02  0.52293018504E+02  0.00000000000E+00 0. -1.
</event>
<event>
 7    1  0.7961130E-006  0.6932856E+02  0.7818608E-02  0.1387906E+00
          2   -1    0    0  502    0  0.00000000000E+00  0.00000000000E+00  0.35489087941E+04  0.35489087941E+04  0.00000000000E+00 0. -1.
          1   -1    0    0  501    0 -0.00000000000E+00 -0.00000000000E+00 -0.22038166656E+03  0.22038166656E+03  0.00000000000E+00 0. -1.
         25    2    1    2    0    0 -0.58730604713E+02 -0.82785741805E+02  0.57018195012E+03  0.59248057761E+03  0.12499206227E+03 0.  0.
          2    1    1    2  501    0 -0.45430153314E+01  0.56034793730E+02 -0.20505073826E+03  0.21261783170E+03  0.00000000000E+00 0. -1.
          1    1    1    2  502    0  0.63273620045E+02  0.26750948075E+02  0.29633959156E+04  0.29641920513E+04  0.00000000000E+00 0. -1.
         22    1    3    3    0    0 -0.74875600444E+02 -0.25872839184E+01  0.34106387902E+03  0.34919567459E+03  0.00000000000E+00 0. -1.
         22    1    3    3    0    0  0.16144995730E+02 -0.80198457886E+02  0.22911807110E+03  0.24328490302E+03  0.00000000000E+00 0. -1.
</event>
<event>
 7    1  0.7961130E-006  0.3416146E+02  0.7818608E-02  0.1575340E+00
          2   -1    0    0  502    0  0.00000000000E+00  0.00000000000E+00  0.98740435468E+02  0.98740435468E+02  0.00000000000E+00 0. -1.
          1   -1    0    0  501    0 -0.00000000000E+00 -0.00000000000E+00 -0.14333282741E+03  0.14333282741E+03  0.00000000000E+00 0. -1.
         25    2    1    2    0    0 -0.47727659768E+02  0.32337663617E+02 -0.35845601520E+01  0.13770547660E+03  0.12500518077E+03 0.  0.
          2    1    1    2  501    0  0.29581408609E+02 -0.64741458726E+01 -0.60209837844E+02  0.67395837211E+02  0.00000000000E+00 0. -1.
          1    1    1    2  502    0  0.18146251159E+02 -0.25863517744E+02  0.19202006053E+02  0.36971949065E+02  0.00000000000E+00 0. -1.
         22    1    3    3    0    0 -0.63313095601E+02 -0.20886034650E+02 -0.33586805901E+02  0.74651510692E+02  0.00000000000E+00 0.  1.
         22    1    3    3    0    0  0.15585435833E+02  0.53223698267E+02  0.30002245749E+02  0.63053965913E+02  0.00000000000E+00 0.  1.
</event>
<event>
 7    1  0.7961130E-006  0.8610680E+02  0.7818608E-02  0.1436346E+00
          2   -1    0    0  502    0  0.00000000000E+00  0.00000000000E+00  0.23314977612E+04  0.23314977612E+04  0.00000000000E+00 0. -1.
          1   -1    0    0  501    0 -0.00000000000E+00 -0.00000000000E+00 -0.27603893216E+03  0.27603893216E+03  0.00000000000E+00 0. -1.
         25    2    1    2    0    0 -0.61389649943E+02  0.60635702505E+02  0.43427555889E+02  0.15797615132E+03  0.12500053695E+03 0.  0.
          2    1    1    2  501    0  0.36093703903E+02 -0.78641763557E+02 -0.21009560746E+03  0.22721673950E+03  0.00000000000E+00 0. -1.
          1    1    1    2  502    0  0.25295946040E+02  0.18006061052E+02  0.22221268806E+04  0.22223438025E+04  0.00000000000E+00 0. -1.
         22    1    3    3    0    0 -0.95972944818E+02  0.48899684950E+02  0.53252233765E+02  0.12015733738E+03  0.00000000000E+00 0.  1.
         22    1    3    3    0    0  0.34583294875E+02  0.11736017555E+02 -0.98246778764E+01  0.37818813940E+02  0.00000000000E+00 0.  1.
</event>
<event>
 7    1  0.7961130E-006  0.5778975E+02  0.7818608E-02  0.1442817E+00
          2   -1    0    0  502    0  0.00000000000E+00  0.00000000000E+00  0.40031983690E+02  0.40031983690E+02  0.00000000000E+00 0. -1.
          1   -1    0    0  501    0 -0.00000000000E+00 -0.00000000000E+00 -0.44342908946E+03  0.44342908946E+03  0.00000000000E+00 0. -1.
         25    2    1    2    0    0 -0.26174841622E+01 -0.52263377583E+02 -0.28575937363E+03  0.31626302089E+03  0.12500226761E+03 0.  0.
          2    1    1    2  501    0 -0.41452999538E+02  0.53152284962E+02 -0.97997009791E+02  0.11894086974E+03  0.00000000000E+00 0. -1.
          1    1    1    2  502    0  0.44070483701E+02 -0.88890737875E+00 -0.19640722354E+02  0.48257182517E+02  0.00000000000E+00 0. -1.
         22    1    3    3    0    0  0.19374337730E+02  0.35848852532E+02 -0.56415812753E+02  0.69593456006E+02  0.00000000000E+00 0. -1.
         22    1    3    3    0    0 -0.21991821893E+02 -0.88112230114E+02 -0.22934356087E+03  0.24666956488E+03  0.00000000000E+00 0. -1.
</event>
<event>
 7    1  0.7961130E-006  0.6347050E+02  0.7818608E-02  0.1471360E+00
          2   -1    0    0  502    0  0.00000000000E+00  0.00000000000E+00  0.13878836814E+03  0.13878836814E+03  0.00000000000E+00 0. -1.
          1   -1    0    0  501    0 -0.00000000000E+00 -0.00000000000E+00 -0.12071456047E+03  0.12071456047E+03  0.00000000000E+00 0. -1.
         25    2    1    2    0    0  0.12952445667E+02 -0.37699864894E+02  0.56109048906E+01  0.13132508347E+03  0.12500299850E+03 0.  0.
          2    1    1    2  501    0 -0.17308770518E+01 -0.32544539418E+02 -0.30864768716E+02  0.44886266598E+02  0.00000000000E+00 0. -1.
          1    1    1    2  502    0 -0.11221568615E+02  0.70244404311E+02  0.43327671495E+02  0.83291578544E+02  0.00000000000E+00 0. -1.
         22    1    3    3    0    0  0.54821777846E+02 -0.35874700142E+02 -0.33865129338E+02  0.73751396065E+02  0.00000000000E+00 0.  1.
         22    1    3    3    0    0 -0.41869332179E+02 -0.18251647515E+01  0.39476034229E+02  0.57573687410E+02  0.00000000000E+00 0.  1.
</event>
<event>
 7    1  0.7961130E-006  0.9834838E+02  0.7818608E-02  0.1387034E+00
          2   -1    0    0  502    0  0.00000000000E+00  0.00000000000E+00  0.50608037798E+03  0.50608037798E+03  0.00000000000E+00 0. -1.
          1   -1    0    0  501    0 -0.00000000000E+00 -0.00000000000E+00 -0.32419986155E+03  0.32419986155E+03  0.00000000000E+00 0. -1.
         25    2    1    2    0    0 -0.13926920973E+02 -0.71133731551E+02  0.19738611582E+03  0.24462282798E+03  0.12500032943E+03 0.  0.
          2    1    1    2  501    0 -0.22289072413E+02 -0.33105909966E+02 -0.28847680327E+03  0.29122443243E+03  0.00000000000E+00 0. -1.
          1    1    1    2  502    0  0.36215993386E+02  0.10423964152E+03  0.27297120388E+03  0.29443297911E+03  0.00000000000E+00 0. -1.
         22    1    3    3    0    0 -0.56162649228E+02 -0.54833098961E+02  0.17956263678E+03  0.19596849858E+03  0.00000000000E+00 0. -1.
         22    1    3    3    0    0  0.42235728255E+02 -0.16300632589E+02  0.17823479042E+02  0.48654329398E+02  0.00000000000E+00 0. -1.
</event>
<event>
 7    1  0.7961130E-006  0.5279216E+02  0.7818608E-02  0.1466977E+00
          2   -1    0    0  502    0  0.00000000000E+00  0.00000000000E+00  0.32711086931E+03  0.32711086931E+03  0.00000000000E+00 0. -1.
          1   -1    0    0  501    0 -0.00000000000E+00 -0.00000000000E+00 -0.48104446735E+03  0.48104446735E+03  0.00000000000E+00 0. -1.
         25    2    1    2    0    0 -0.69273751613E+02 -0.49394320107E+02 -0.24659955911E+03  0.28926506696E+03  0.12499713953E+03 0.  0.
          2    1    1    2  501    0  0.46095791923E+02  0.16263332961E+02 -0.20894230883E+03  0.21458379820E+03  0.00000000000E+00 0. -1.
          1    1    1    2  502    0  0.23177959691E+02  0.33130987146E+02  0.30160826990E+03  0.30430647150E+03  0.00000000000E+00 0. -1.
         22    1    3    3    0    0 -0.86480691801E+02  0.90275221478E+01 -0.11424038015E+03  0.14356625880E+03  0.00000000000E+00 0. -1.
         22    1    3    3    0    0  0.17206940188E+02 -0.58421842255E+02 -0.13235917897E+03  0.14569880816E+03  0.00000000000E+00 0. -1.
</event>
<event>
 7    1  0.7961130E-006  0.8549778E+02  0.7818608E-02  0.1369887E+00
          2   -1    0    0  502    0  0.00000000000E+00  0.00000000000E+00  0.10015642459E+04  0.10015642459E+04  0.00000000000E+00 0. -1.
          1   -1    0    0  501    0 -0.00000000000E+00 -0.00000000000E+00 -0.27477392923E+03  0.27477392923E+03  0.00000000000E+00 0. -1.
         25    2    1    2    0    0 -0.75590010362E+02  0.63543707032E+02  0.58134770185E+03  0.60277825637E+03  0.12499929414E+03 0.  0.
          2    1    1    2  501    0 -0.80334012670E+01 -0.52201623326E+02 -0.25699673724E+03  0.26236781046E+03  0.00000000000E+00 0. -1.
          1    1    1    2  502    0  0.83623411629E+02 -0.11342083706E+02  0.40243935209E+03  0.41119210832E+03  0.00000000000E+00 0. -1.
         22    1    3    3    0    0 -0.10271888986E+02 -0.16343827792E+02  0.91722396082E+01  0.21372000133E+02  0.00000000000E+00 0.  1.
         22    1    3    3    0    0 -0.65318121376E+02  0.79887534824E+02  0.57217546224E+03  0.58140625624E+03  0.00000000000E+00 0.  1.
</event>
<event>
 7    1  0.7961130E-006  0.8307973E+02  0.7818608E-02  0.1414200E+00
          2   -1    0    0  502    0  0.00000000000E+00  0.00000000000E+00  0.29715394864E+04  0.29715394864E+04  0.00000000000E+00 0. -1.
          1   -1    0    0  501    0 -0.00000000000E+00 -0.00000000000E+00 -0.64171513443E+02  0.64171513443E+02  0.00000000000E+00 0. -1.
         25    2    1    2    0    0 -0.11446821891E+03 -0.92625188808E+01  0.44049056689E+03  0.47206968510E+03  0.12501632163E+03 0.  0.
          2    1    1    2  501    0  0.80455631677E+02 -0.79231098463E+01 -0.14360880621E+02  0.82110408782E+02  0.00000000000E+00 0. -1.
          1    1    1    2  502    0  0.34012587228E+02  0.17185628727E+02  0.24812382867E+04  0.24815309060E+04  0.00000000000E+00 0. -1.
         22    1    3    3    0    0  0.11557647234E+02  0.16799875223E+02  0.18377742036E+03  0.18490526020E+03  0.00000000000E+00 0.  1.
         22    1    3    3    0    0 -0.12602586614E+03 -0.26062394104E+02  0.25671314653E+03  0.28716442490E+03  0.00000000000E+00 0.  1.
</event>
<event>
 7    1  0.7961130E-006  0.7769216E+02  0.7818608E-02  0.1347699E+00
          2   -1    0    0  502    0  0.00000000000E+00  0.00000000000E+00  0.75547035826E+03  0.75547035826E+03  0.00000000000E+00 0. -1.
          1   -1    0    0  501    0 -0.00000000000E+00 -0.00000000000E+00 -0.19602767412E+03  0.19602767412E+03  0.00000000000E+00 0. -1.
         25    2    1    2    0    0  0.57176772838E+02 -0.23716084875E+02  0.18040882925E+03  0.22804467510E+03  0.12500156854E+03 0.  0.
          2    1    1    2  501    0  0.12560230418E+02  0.68925056588E+02 -0.16177598143E+03  0.17629489777E+03  0.00000000000E+00 0. -1.
          1    1    1    2  502    0 -0.69737003256E+02 -0.45208971713E+02  0.54080983633E+03  0.54715845951E+03  0.00000000000E+00 0. -1.
         22    1    3    3    0    0 -0.26974261642E+01 -0.66084683683E+02  0.85384457005E+02  0.10800447687E+03  0.00000000000E+00 0. -1.
         22    1    3    3    0    0  0.59874199002E+02  0.42368598808E+02  0.95024372241E+02  0.12004019823E+03  0.00000000000E+00 0. -1.
</event>
<event>
 7    1  0.7961130E-006  0.1664582E+03  0.7818608E-02  0.1204086E+00
          2   -1    0    0  502    0  0.00000000000E+00  0.00000000000E+00  0.22393005037E+04  0.22393005037E+04  0.00000000000E+00 0. -1.
          1   -1    0    0  501    0 -0.00000000000E+00 -0.00000000000E+00 -0.62687585002E+02  0.62687585002E+02  0.00000000000E+00 0. -1.
         25    2    1    2    0    0 -0.24256298878E+03 -0.34758399064E+02  0.16767806116E+04  0.16991948375E+04  0.12499970572E+03 0.  0.
          2    1    1    2  501    0  0.12876312020E+03  0.97578367509E+02  0.11975891782E+03  0.20110613448E+03  0.00000000000E+00 0. -1.
          1    1    1    2  502    0  0.11379986857E+03 -0.62819968446E+02  0.38007338932E+03  0.40168711679E+03  0.00000000000E+00 0. -1.
         22    1    3    3    0    0 -0.13022382790E+03 -0.46916449697E+02  0.12525065523E+04  0.12601317638E+04  0.00000000000E+00 0. -1.
         22    1    3    3    0    0 -0.11233916088E+03  0.12158050633E+02  0.42427405931E+03  0.43906307368E+03  0.00000000000E+00 0. -1.
</event>
<event>
 7    1  0.7961130E-006  0.7887767E+02  0.7818608E-02  0.1352455E+00
          2   -1    0    0  502    0  0.00000000000E+00  0.00000000000E+00  0.22969358345E+03  0.22969358345E+03  0.00000000000E+00 0. -1.
          1   -1    0    0  501    0 -0.00000000000E+00 -0.00000000000E+00 -0.29571372432E+03  0.29571372432E+03  0.00000000000E+00 0. -1.
         25    2    1    2    0    0 -0.77295033985E+02 -0.58863665340E+02  0.49217602324E+02  0.16578615047E+03  0.12499288753E+03 0.  0.
          2    1    1    2  501    0 -0.17497845360E+01  0.66240272551E+02 -0.21909542815E+03  0.22889657509E+03  0.00000000000E+00 0. -1.
          1    1    1    2  502    0  0.79044818521E+02 -0.73766072119E+01  0.10385768496E+03  0.13072458221E+03  0.00000000000E+00 0. -1.
         22    1    3    3    0    0 -0.10685920036E+03 -0.51515017657E+02  0.14362774167E+02  0.11949466527E+03  0.00000000000E+00 0.  1.
         22    1    3    3    0    0  0.29564166374E+02 -0.73486476826E+01  0.34854828157E+02  0.46291485200E+02  0.00000000000E+00 0.  1.
</event>
<event>
 7    1  0.7961130E-006  0.4382956E+02  0.7818608E-02  0.1483027E+00
          2   -1    0    0  502    0  0.00000000000E+00  0.00000000000E+00  0.16909128050E+04  0.16909128050E+04  0.00000000000E+00 0. -1.
          1   -1    0    0  501    0 -0.00000000000E+00 -0.00000000000E+00 -0.53384692016E+02  0.53384692016E+02  0.00000000000E+00 0. -1.
         25    2    1    2    0    0  0.29210907994E+02  0.15879137913E+02  0.23208579923E+03  0.26569623901E+03  0.12500099620E+03 0.  0.
          2    1    1    2  501    0  0.26460746647E+01 -0.45422799000E+02 -0.21971049426E+02  0.50526818552E+02  0.00000000000E+00 0. -1.
          1    1    1    2  502    0 -0.31856982659E+02  0.29543661087E+02  0.14274133632E+04  0.14280744395E+04  0.00000000000E+00 0. -1.
         22    1    3    3    0    0 -0.79633941097E+01  0.63845608992E+02  0.85173570354E+02  0.10674368609E+03  0.00000000000E+00 0. -1.
         22    1    3    3    0    0  0.37174302104E+02 -0.47966471079E+02  0.14691222888E+03  0.15895255292E+03  0.00000000000E+00 0. -1.
</event>
<event>
 7    1  0.7961130E-006  0.6573951E+02  0.7818608E-02  0.1465205E+00
          2   -1    0    0  502    0  0.00000000000E+00  0.00000000000E+00  0.62604351729E+03  0.62604351729E+03  0.00000000000E+00 0. -1.
          1   -1    0    0  501    0 -0.00000000000E+00 -0.00000000000E+00 -0.94983991735E+03  0.94983991735E+03  0.00000000000E+00 0. -1.
         25    2    1    2    0    0 -0.75799617860E+02 -0.39104346455E+02 -0.45801147858E+03  0.48236307936E+03  0.12499957537E+03 0.  0.
          2    1    1    2  501    0  0.10599011400E+02  0.31132633672E+02 -0.47732804685E+03  0.47845965790E+03  0.00000000000E+00 0. -1.
          1    1    1    2  502    0  0.65200606461E+02  0.79717127829E+01  0.61154312537E+03  0.61506069739E+03  0.00000000000E+00 0. -1.
         22    1    3    3    0    0 -0.66160868964E+01  0.42771018568E+02 -0.15604555349E+03  0.16193624486E+03  0.00000000000E+00 0. -1.
         22    1    3    3    0    0 -0.69183530964E+02 -0.81875365023E+02 -0.30196592509E+03  0.32042683450E+03  0.00000000000E+00 0. -1.
</event>
<event>
 7    1  0.7961130E-006  0.4914900E+02  0.7818608E-02  0.1463075E+00
          2   -1    0    0  502    0  0.00000000000E+00  0.00000000000E+00  0.50687077838E+03  0.50687077838E+03  0.00000000000E+00 0. -1.
          1   -1    0    0  501    0 -0.00000000000E+00 -0.00000000000E+00 -0.41219958180E+03  0.41219958180E+03  0.00000000000E+00 0. -1.
         25    2    1    2    0    0  0.30754210672E+02 -0.52759297138E+02  0.16343399017E+03  0.21462536363E+03  0.12499605059E+03 0.  0.
          2    1    1    2  501    0 -0.44378033137E+02  0.51039364121E+01 -0.38336680453E+03  0.38596057675E+03  0.00000000000E+00 0. -1.
          1    1    1    2  502    0  0.13623822465E+02  0.47655360726E+02  0.31460401094E+03  0.31848441979E+03  0.00000000000E+00 0. -1.
         22    1    3    3    0    0 -0.14270833656E+02  0.27695240977E+02  0.94512088024E+02  0.99514912695E+02  0.00000000000E+00 0. -1.
         22    1    3    3    0    0  0.45025044328E+02 -0.80454538114E+02  0.68921902141E+02  0.11511045094E+03  0.00000000000E+00 0. -1.
</event>
<event>
 7    1  0.7961130E-006  0.1698085E+03  0.7818608E-02  0.1201311E+00
          2   -1    0    0  502    0  0.00000000000E+00  0.00000000000E+00  0.24530779279E+03  0.24530779279E+03  0.00000000000E+00 0. -1.
          1   -1    0    0  501    0 -0.00000000000E+00 -0.00000000000E+00 -0.10676484007E+04  0.10676484007E+04  0.00000000000E+00 0. -1.
         25    2    1    2    0    0 -0.86063150599E+02  0.13270917298E+03 -0.19369703710E+02  0.20253060290E+03  0.12499947682E+03 0.  0.
          2    1    1    2  501    0 -0.10062562021E+03 -0.84350873674E+02 -0.88943832104E+03  0.89907792335E+03  0.00000000000E+00 0. -1.
          1    1    1    2  502    0  0.18668877081E+03 -0.48358299311E+02  0.86467416862E+02  0.21134766721E+03  0.00000000000E+00 0. -1.
         22    1    3    3    0    0  0.70985049977E+01  0.39043439277E+02 -0.52999704668E+02  0.66209875538E+02  0.00000000000E+00 0. -1.
         22    1    3    3    0    0 -0.93161655597E+02  0.93665733708E+02  0.33630000958E+02  0.13632072736E+03  0.00000000000E+00 0. -1.
</event>
<event>
 7    1  0.8389786E-006  0.7286943E+02  0.7818608E-02  0.1361136E+00
          2   -1    0    0  502    0  0.00000000000E+00  0.00000000000E+00  0.97690183222E+03  0.97690183222E+03  0.00000000000E+00 0. -1.
          1   -1    0    0  501    0 -0.00000000000E+00 -0.00000000000E+00 -0.32812103418E+04  0.32812103418E+04  0.00000000000E+00 0. -1.
         25    2    1    2    0    0  0.11523227016E+03 -0.41547043192E+02 -0.13536235360E+04  0.13648906653E+04  0.12500087232E+03 0.  0.
          2    1    1    2  501    0 -0.68266264647E+02 -0.57540397900E+01 -0.19201980013E+04  0.19214197240E+04  0.00000000000E+00 0. -1.
          1    1    1    2  502    0 -0.46966005513E+02  0.47301082982E+02  0.96951302762E+03  0.97180178475E+03  0.00000000000E+00 0. -1.
         22    1    3    3    0    0  0.65758719650E+02 -0.14609677892E+02 -0.22512541628E+03  0.23498745702E+03  0.00000000000E+00 0.  1.
         22    1    3    3    0    0  0.49473550509E+02 -0.26937365300E+02 -0.11284981197E+04  0.11299032082E+04  0.00000000000E+00 0.  1.
</event>
<event>
 7    1  0.7961130E-006  0.6562352E+02  0.7818608E-02  0.1485212E+00
          2   -1    0    0  502    0  0.00000000000E+00  0.00000000000E+00  0.14553373499E+04  0.14553373499E+04  0.00000000000E+00 0. -1.
          1   -1    0    0  501    0 -0.00000000000E+00 -0.00000000000E+00 -0.11287565125E+03  0.11287565125E+03  0.00000000000E+00 0. -1.
         25    2    1    2    0    0 -0.24430015760E+02  0.32104337555E+02  0.10033086103E+03  0.16528272491E+03  0.12499833327E+03 0.  0.
          2    1    1    2  501    0  0.46717984446E+02 -0.49988904629E+02 -0.65658485823E+02  0.94828779478E+02  0.00000000000E+00 0. -1.
          1    1    1    2  502    0 -0.22287968687E+02  0.17884567074E+02  0.13077893235E+04  0.13081014968E+04  0.00000000000E+00 0. -1.
         22    1    3    3    0    0  0.37027733684E+01  0.36549347814E+02 -0.19861537333E+02  0.41761777040E+02  0.00000000000E+00 0.  1.
         22    1    3    3    0    0 -0.28132789128E+02 -0.44450102593E+01  0.12019239836E+03  0.12352094787E+03  0.00000000000E+00 0.  1.
</event>
<event>
 7    1  0.7961130E-006  0.1629018E+03  0.7818608E-02  0.1320474E+00
          2   -1    0    0  502    0  0.00000000000E+00  0.00000000000E+00  0.95380443945E+03  0.95380443945E+03  0.00000000000E+00 0. -1.
          1   -1    0    0  501    0 -0.00000000000E+00 -0.00000000000E+00 -0.20239342169E+03  0.20239342169E+03  0.00000000000E+00 0. -1.
         25    2    1    2    0    0  0.14819395654E+03 -0.15536379709E+02  0.25481598918E+03  0.32056083051E+03  0.12500091945E+03 0.  0.
          2    1    1    2  501    0  0.18792632227E+02  0.37999626108E+02 -0.15599196886E+03  0.16164971067E+03  0.00000000000E+00 0. -1.
          1    1    1    2  502    0 -0.16698658877E+03 -0.22463246399E+02  0.65258699743E+03  0.67398731997E+03  0.00000000000E+00 0. -1.
         22    1    3    3    0    0  0.56791056693E+02  0.37958483276E+02  0.35431556067E+02  0.76951060670E+02  0.00000000000E+00 0.  1.
         22    1    3    3    0    0  0.91402899844E+02 -0.53494862984E+02  0.21938443312E+03  0.24360976984E+03  0.00000000000E+00 0.  1.
</event>
<event>
 7    1  0.7961130E-006  0.4573648E+02  0.7818608E-02  0.1534535E+00
          2   -1    0    0  502    0  0.00000000000E+00  0.00000000000E+00  0.47773840643E+03  0.47773840643E+03  0.00000000000E+00 0. -1.
          1   -1    0    0  501    0 -0.00000000000E+00 -0.00000000000E+00 -0.46500068353E+02  0.46500068353E+02  0.00000000000E+00 0. -1.
         25    2    1    2    0    0 -0.11155926332E+01 -0.19405927518E+02  0.16309746125E+03  0.20640572865E+03  0.12499883353E+03 0.  0.
          2    1    1    2  501    0  0.70480929807E+01 -0.28487318597E+02 -0.13346342463E+02  0.32238607176E+02  0.00000000000E+00 0. -1.
          1    1    1    2  502    0 -0.59325003475E+01  0.47893246115E+02  0.28148721929E+03  0.28559413896E+03  0.00000000000E+00 0. -1.
         22    1    3    3    0    0 -0.32797298695E+02  0.44259270323E+02  0.64173518599E+02  0.84574146763E+02  0.00000000000E+00 0. -1.
         22    1    3    3    0    0  0.31681706062E+02 -0.63665197842E+02  0.98923942653E+02  0.12183158189E+03  0.00000000000E+00 0. -1.
</event>
<event>
 7    1  0.7961130E-006  0.1166478E+03  0.7818608E-02  0.1449121E+00
          2   -1    0    0  502    0  0.00000000000E+00  0.00000000000E+00  0.18014348492E+04  0.18014348492E+04  0.00000000000E+00 0. -1.
          1   -1    0    0  501    0 -0.00000000000E+00 -0.00000000000E+00 -0.33875334625E+03  0.33875334625E+03  0.00000000000E+00 0. -1.
         25    2    1    2    0    0  0.69872659873E+02 -0.11312608613E+03  0.11067253531E+04  0.11216709811E+04  0.12500033069E+03 0.  0.
          2    1    1    2  501    0 -0.71066013275E+02  0.92319109033E+02 -0.32087219351E+03  0.34136807218E+03  0.00000000000E+00 0. -1.
          1    1    1    2  502    0  0.11933534018E+01  0.20806977096E+02  0.67682834335E+03  0.67714914217E+03  0.00000000000E+00 0. -1.
         22    1    3    3    0    0  0.42461665745E+02 -0.37012212984E+00  0.61397296825E+03  0.61543962806E+03  0.00000000000E+00 0. -1.
         22    1    3    3    0    0  0.27410994128E+02 -0.11275596400E+03  0.49275238484E+03  0.50623135303E+03  0.00000000000E+00 0. -1.
</event>
<event>
 7    1  0.7961130E-006  0.5860277E+02  0.7818608E-02  0.1484866E+00
          2   -1    0    0  502    0  0.00000000000E+00  0.00000000000E+00  0.18805949009E+03  0.18805949009E+03  0.00000000000E+00 0. -1.
          1   -1    0    0  501    0 -0.00000000000E+00 -0.00000000000E+00 -0.12694376595E+03  0.12694376595E+03  0.00000000000E+00 0. -1.
         25    2    1    2    0    0 -0.21982909836E+02  0.26664219525E+02  0.47409900760E+02  0.13808849015E+03  0.12500601384E+03 0.  0.
          2    1    1    2  501    0 -0.72902107647E+01  0.31238317489E+02 -0.66451952684E+02  0.73789170399E+02  0.00000000000E+00 0. -1.
          1    1    1    2  502    0  0.29273120601E+02 -0.57902537014E+02  0.80157776055E+02  0.10312559549E+03  0.00000000000E+00 0. -1.
         22    1    3    3    0    0 -0.61245697915E+02  0.48284236794E+02  0.79894472686E+01  0.78397922827E+02  0.00000000000E+00 0.  1.
         22    1    3    3    0    0  0.39262788078E+02 -0.21620017270E+02  0.39420453492E+02  0.59690567328E+02  0.00000000000E+00 0.  1.
</event>
<event>
 7    1  0.7961130E-006  0.1358317E+03  0.7818608E-02  0.1304210E+00
          2   -1    0    0  502    0  0.00000000000E+00  0.00000000000E+00  0.87722246660E+03  0.87722246660E+03  0.00000000000E+00 0. -1.
          1   -1    0    0  501    0 -0.00000000000E+00 -0.00000000000E+00 -0.20968220073E+03  0.20968220073E+03  0.00000000000E+00 0. -1.
         25    2    1    2    0    0 -0.53454873090E+02 -0.79676694184E+02  0.17635105040E+03  0.23649698447E+03  0.12500132653E+03 0.  0.
          2    1    1    2  501    0 -0.55656275859E+02 -0.19260541786E+02 -0.16640538951E+03  0.17652009283E+03  0.00000000000E+00 0. -1.
          1    1    1    2  502    0  0.10911114895E+03  0.98937235969E+02  0.65759460499E+03  0.67388759003E+03  0.00000000000E+00 0. -1.
         22    1    3    3    0    0  0.47523011171E+00  0.21583241892E+02  0.90943699683E+02  0.93470951029E+02  0.00000000000E+00 0.  1.
         22    1    3    3    0    0 -0.53930103202E+02 -0.10125993608E+03  0.85407350714E+02  0.14302603344E+03  0.00000000000E+00 0.  1.
</event>
<event>
 7    1  0.7961130E-006  0.5209516E+02  0.7818608E-02  0.1436191E+00
          2   -1    0    0  502    0  0.00000000000E+00  0.00000000000E+00  0.25874402127E+04  0.25874402127E+04  0.00000000000E+00 0. -1.
          1   -1    0    0  501    0 -0.00000000000E+00 -0.00000000000E+00 -0.22556316076E+02  0.22556316076E+02  0.00000000000E+00 0. -1.
         25    2    1    2    0    0 -0.29818545244E+02  0.39158349485E+02  0.43327528675E+03  0.45362550962E+03  0.12500442752E+03 0.  0.
          2    1    1    2  501    0  0.50468743988E+02  0.96421805846E+01  0.42749779590E+02  0.66840178195E+02  0.00000000000E+00 0. -1.
          1    1    1    2  502    0 -0.20650198744E+02 -0.48800530070E+02  0.20888588303E+04  0.20895308409E+04  0.00000000000E+00 0. -1.
         22    1    3    3    0    0 -0.73298806855E+02 -0.29549329170E+01  0.25582458075E+03  0.26613467048E+03  0.00000000000E+00 0.  1.
         22    1    3    3    0    0  0.43480261611E+02  0.42113282402E+02  0.17745070600E+03  0.18749083914E+03  0.00000000000E+00 0.  1.
</event>
<event>
 7    1  0.7961130E-006  0.4276065E+02  0.7818608E-02  0.1529726E+00
          2   -1    0    0  502    0  0.00000000000E+00  0.00000000000E+00  0.62955692343E+03  0.62955692343E+03  0.00000000000E+00 0. -1.
          1   -1    0    0  501    0 -0.00000000000E+00 -0.00000000000E+00 -0.96117982861E+02  0.96117982861E+02  0.00000000000E+00 0. -1.
         25    2    1    2    0    0  0.53408725744E+02  0.41423804232E+02  0.12634306293E+03  0.19014492393E+03  0.12499639596E+03 0.  0.
          2    1    1    2  501    0 -0.12911348981E+02 -0.29713305115E+02 -0.59118510494E+02  0.67413512862E+02  0.00000000000E+00 0. -1.
          1    1    1    2  502    0 -0.40497376763E+02 -0.11710499117E+02  0.46621438814E+03  0.46811646950E+03  0.00000000000E+00 0. -1.
         22    1    3    3    0    0  0.86253093643E+02  0.14851099169E+02  0.44833521220E+02  0.98337154395E+02  0.00000000000E+00 0.  1.
         22    1    3    3    0    0 -0.32844367900E+02  0.26572705063E+02  0.81509541707E+02  0.91807769531E+02  0.00000000000E+00 0.  1.
</event>
<event>
 7    1  0.7961130E-006  0.1306478E+03  0.7818608E-02  0.1376205E+00
          2   -1    0    0  502    0  0.00000000000E+00  0.00000000000E+00  0.28111732140E+04  0.28111732140E+04  0.00000000000E+00 0. -1.
          1   -1    0    0  501    0 -0.00000000000E+00 -0.00000000000E+00 -0.20818152052E+04  0.20818152052E+04  0.00000000000E+00 0. -1.
         25    2    1    2    0    0  0.10754824666E+03  0.38443227272E+02  0.10824680903E+04  0.10956297871E+04  0.12499182702E+03 0.  0.
          2    1    1    2  501    0 -0.12988747647E+03 -0.14412905411E+02 -0.20730203232E+04  0.20771354672E+04  0.00000000000E+00 0. -1.
          1    1    1    2  502    0  0.22339229808E+02 -0.24030321861E+02  0.17199102417E+04  0.17202231649E+04  0.00000000000E+00 0. -1.
         22    1    3    3    0    0  0.12178132518E+03  0.46764791531E+02  0.10586787366E+04  0.10666856633E+04  0.00000000000E+00 0.  1.
         22    1    3    3    0    0 -0.14233078520E+02 -0.83215642590E+01  0.23789353679E+02  0.28944123831E+02  0.00000000000E+00 0.  1.
</event>
<event>
 7    1  0.7961130E-006  0.1097566E+03  0.7818608E-02  0.1294757E+00
          2   -1    0    0  502    0  0.00000000000E+00  0.00000000000E+00  0.27676668629E+03  0.27676668629E+03  0.00000000000E+00 0. -1.
          1   -1    0    0  501    0 -0.00000000000E+00 -0.00000000000E+00 -0.85502663155E+03  0.85502663155E+03  0.00000000000E+00 0. -1.
         25    2    1    2    0    0 -0.40082540846E+02  0.13628485052E+02 -0.55565181756E+02  0.14319274936E+03  0.12499731341E+03 0.  0.
          2    1    1    2  501    0 -0.64037356131E+02  0.47158403884E+02 -0.73776651710E+03  0.74204051897E+03  0.00000000000E+00 0. -1.
          1    1    1    2  502    0  0.10411989698E+03 -0.60786888936E+02  0.21507175360E+03  0.24656004950E+03  0.00000000000E+00 0. -1.
         22    1    3    3    0    0 -0.37996520956E+02 -0.51147099009E+02 -0.43814203479E+02  0.77326876106E+02  0.00000000000E+00 0.  1.
         22    1    3    3    0    0 -0.20860198902E+01  0.64775584061E+02 -0.11750978277E+02  0.65865873256E+02  0.00000000000E+00 0.  1.
</event>
<event>
 7    1  0.7961130E-006  0.8417391E+02  0.7818608E-02  0.1348836E+00
          2   -1    0    0  502    0  0.00000000000E+00  0.00000000000E+00  0.20439155292E+04  0.20439155292E+04  0.00000000000E+00 0. -1.
          1   -1    0    0  501    0 -0.00000000000E+00 -0.00000000000E+00 -0.26041361791E+02  0.26041361791E+02  0.00000000000E+00 0. -1.
         25    2    1    2    0    0 -0.53144049408E+02 -0.33257537116E+02  0.53999247762E+03  0.55780588309E+03  0.12500069421E+03 0.  0.
          2    1    1    2  501    0  0.33121918901E+02 -0.54808306716E+02  0.49559157206E+02  0.80976058559E+02  0.00000000000E+00 0. -1.
          1    1    1    2  502    0  0.20022130507E+02  0.88065843833E+02  0.14283225326E+04  0.14311749493E+04  0.00000000000E+00 0. -1.
         22    1    3    3    0    0 -0.32125533376E+02  0.41379226802E+02  0.32634088189E+03  0.33051877632E+03  0.00000000000E+00 0. -1.
         22    1    3    3    0    0 -0.21018516032E+02 -0.74636763918E+02  0.21365159573E+03  0.22728710677E+03  0.00000000000E+00 0. -1.
</event>
<event>
 7    1  0.7961130E-006  0.1000306E+03  0.7818608E-02  0.1428681E+00
          2   -1    0    0  502    0  0.00000000000E+00  0.00000000000E+00  0.43725401103E+02  0.43725401103E+02  0.00000000000E+00 0. -1.
          1   -1    0    0  501    0 -0.00000000000E+00 -0.00000000000E+00 -0.13472818671E+04  0.13472818671E+04  0.00000000000E+00 0. -1.
         25    2    1    2    0    0  0.10807446389E+03  0.41230497334E+02 -0.46465150487E+03  0.49487751552E+03  0.12499076261E+03 0.  0.
          2    1    1    2  501    0 -0.11654401167E+02 -0.25812073465E+02 -0.78320155919E+03  0.78371344924E+03  0.00000000000E+00 0. -1.
          1    1    1    2  502    0 -0.96420062727E+02 -0.15418423869E+02 -0.55703401933E+02  0.11241630343E+03  0.00000000000E+00 0. -1.
         22    1    3    3    0    0 -0.26420908248E+02 -0.71346519085E+01 -0.72992605766E+02  0.77954397868E+02  0.00000000000E+00 0. -1.
         22    1    3    3    0    0  0.13449537214E+03  0.48365149242E+02 -0.39165889910E+03  0.41692311766E+03  0.00000000000E+00 0. -1.
</event>
<event>
 7    1  0.7961130E-006  0.8412725E+02  0.7818608E-02  0.1364208E+00
          2   -1    0    0  502    0  0.00000000000E+00  0.00000000000E+00  0.15627193843E+04  0.15627193843E+04  0.00000000000E+00 0. -1.
          1   -1    0    0  501    0 -0.00000000000E+00 -0.00000000000E+00 -0.57727263956E+03  0.57727263956E+03  0.00000000000E+00 0. -1.
         25    2    1    2    0    0 -0.57298510624E+02 -0.11390955173E+03 -0.23623289028E+03  0.29612420130E+03  0.12500023538E+03 0.  0.
          2    1    1    2  501    0 -0.36561692724E+01  0.56152892215E+02 -0.30738796695E+03  0.31249620335E+03  0.00000000000E+00 0. -1.
          1    1    1    2  502    0  0.60954679897E+02  0.57756659513E+02  0.15290676020E+04  0.15313716192E+04  0.00000000000E+00 0. -1.
         22    1    3    3    0    0 -0.22667212263E+02 -0.74072939519E+02 -0.29715329575E+02  0.82967485755E+02  0.00000000000E+00 0. -1.
         22    1    3    3    0    0 -0.34631298361E+02 -0.39836612210E+02 -0.20651756071E+03  0.21315671554E+03  0.00000000000E+00 0. -1.
</event>
<event>
 7    1  0.9577389E-006  0.9099480E+02  0.7818608E-02  0.1404299E+00
          2   -1    0    0  502    0  0.00000000000E+00  0.00000000000E+00  0.88814076620E+03  0.88814076620E+03  0.00000000000E+00 0. -1.
          1   -1    0    0  501    0 -0.00000000000E+00 -0.00000000000E+00 -0.15585116294E+04  0.15585116294E+04  0.00000000000E+00 0. -1.
         25    2    1    2    0    0 -0.33944711850E+02  0.78414526525E+02 -0.34199203547E+03  0.37401197361E+03  0.12500129058E+03 0.  0.
          2    1    1    2  501    0 -0.33451707284E+02 -0.17147819848E+02 -0.11978359217E+04  0.11984256171E+04  0.00000000000E+00 0. -1.
          1    1    1    2  502    0  0.67396419134E+02 -0.61266706677E+02  0.86945709401E+03  0.87421480483E+03  0.00000000000E+00 0. -1.
         22    1    3    3    0    0 -0.12892650212E+02  0.13855928426E+02  0.56882299092E+01  0.19762670405E+02  0.00000000000E+00 0.  1.
         22    1    3    3    0    0 -0.21052061638E+02  0.64558598099E+02 -0.34768026538E+03  0.35424930320E+03  0.00000000000E+00 0.  1.
</event>
<event>
 7    1  0.7961130E-006  0.1010629E+03  0.7818608E-02  0.1406078E+00
          2   -1    0    0  502    0  0.00000000000E+00  0.00000000000E+00  0.21374910118E+04  0.21374910118E+04  0.00000000000E+00 0. -1.
          1   -1    0    0  501    0 -0.00000000000E+00 -0.00000000000E+00 -0.10384400652E+04  0.10384400652E+04  0.00000000000E+00 0. -1.
         25    2    1    2    0    0 -0.96012221819E+02  0.91097460596E+02  0.76328226943E+03  0.78469217550E+03  0.12499957360E+03 0.  0.
          2    1    1    2  501    0  0.66075737292E+02 -0.76340445490E+02 -0.10250503077E+04  0.10300106795E+04  0.00000000000E+00 0. -1.
          1    1    1    2  502    0  0.29936484527E+02 -0.14757015105E+02  0.13608189849E+04  0.13612282220E+04  0.00000000000E+00 0. -1.
         22    1    3    3    0    0 -0.45348525286E+01  0.49661365674E+02  0.50684348664E+03  0.50929081680E+03  0.00000000000E+00 0.  1.
         22    1    3    3    0    0 -0.91477369291E+02  0.41436094922E+02  0.25643878279E+03  0.27540135870E+03  0.00000000000E+00 0.  1.
</event>
<event>
 7    1  0.7961130E-006  0.6173830E+02  0.7818608E-02  0.1414607E+00
          2   -1    0    0  502    0  0.00000000000E+00  0.00000000000E+00  0.33004991958E+03  0.33004991958E+03  0.00000000000E+00 0. -1.
          1   -1    0    0  501    0 -0.00000000000E+00 -0.00000000000E+00 -0.33294418269E+03  0.33294418269E+03  0.00000000000E+00 0. -1.
         25    2    1    2    0    0  0.24751788080E+02 -0.86840245618E+01  0.11942314332E+03  0.17485745115E+03  0.12500071107E+03 0.  0.
          2    1    1    2  501    0 -0.19758079827E+02  0.59558685491E+02 -0.29832642358E+03  0.30485451242E+03  0.00000000000E+00 0. -1.
          1    1    1    2  502    0 -0.49937082535E+01 -0.50874660929E+02  0.17600901715E+03  0.18328213870E+03  0.00000000000E+00 0. -1.
         22    1    3    3    0    0 -0.39746899293E+02 -0.37897743013E+02  0.37114389662E+02  0.66283729896E+02  0.00000000000E+00 0. -1.
         22    1    3    3    0    0  0.64498687374E+02  0.29213718452E+02  0.82308753658E+02  0.10857372126E+03  0.00000000000E+00 0. -1.
</event>
<event>
 7    1  0.7961130E-006  0.6695098E+02  0.7818608E-02  0.1421681E+00
          2   -1    0    0  502    0  0.00000000000E+00  0.00000000000E+00  0.11372566532E+04  0.11372566532E+04  0.00000000000E+00 0. -1.
          1   -1    0    0  501    0 -0.00000000000E+00 -0.00000000000E+00 -0.13463750902E+04  0.13463750902E+04  0.00000000000E+00 0. -1.
         25    2    1    2    0    0 -0.93784686291E+01 -0.22370777587E+02  0.25757893013E+03  0.28733962360E+03  0.12501498581E+03 0.  0.
          2    1    1    2  501    0  0.56351910249E+01  0.66850009602E+02 -0.13300727940E+04  0.13317636113E+04  0.00000000000E+00 0. -1.
          1    1    1    2  502    0  0.37432776041E+01 -0.44479232016E+02  0.86337542690E+03  0.86452850848E+03  0.00000000000E+00 0. -1.
         22    1    3    3    0    0 -0.12028928066E+02  0.89165672603E+01  0.25542814377E+03  0.25586663892E+03  0.00000000000E+00 0. -1.
         22    1    3    3    0    0  0.26504594373E+01 -0.31287344847E+02  0.21507863654E+01  0.31472984682E+02  0.00000000000E+00 0. -1.
</event>
<event>
 7    1  0.7961130E-006  0.1134912E+03  0.7818608E-02  0.1404801E+00
          2   -1    0    0  502    0  0.00000000000E+00  0.00000000000E+00  0.68569438118E+03  0.68569438118E+03  0.00000000000E+00 0. -1.
          1   -1    0    0  501    0 -0.00000000000E+00 -0.00000000000E+00 -0.10052007341E+04  0.10052007341E+04  0.00000000000E+00 0. -1.
         25    2    1    2    0    0  0.12848894233E+03 -0.40423800234E+02  0.81962623596E+01  0.18394188519E+03  0.12499578587E+03 0.  0.
          2    1    1    2  501    0 -0.17319397046E+02  0.24521061420E+02 -0.91173134444E+03  0.91222545919E+03  0.00000000000E+00 0. -1.
          1    1    1    2  502    0 -0.11116954528E+03  0.15902738814E+02  0.58402872920E+03  0.59472777086E+03  0.00000000000E+00 0. -1.
         22    1    3    3    0    0  0.14113974864E+03 -0.84145495768E+01  0.28138885802E+02  0.14416320676E+03  0.00000000000E+00 0. -1.
         22    1    3    3    0    0 -0.12650806309E+02 -0.32009250657E+02 -0.19942623442E+02  0.39778678430E+02  0.00000000000E+00 0. -1.
</event>
<event>
 7    1  0.7961130E-006  0.5147891E+02  0.7818608E-02  0.1522579E+00
          2   -1    0    0  502    0  0.00000000000E+00  0.00000000000E+00  0.10316988844E+04  0.10316988844E+04  0.00000000000E+00 0. -1.
          1   -1    0    0  501    0 -0.00000000000E+00 -0.00000000000E+00 -0.34416936360E+03  0.34416936360E+03  0.00000000000E+00 0. -1.
         25    2    1    2    0    0  0.13042320894E+02 -0.75537956584E+02 -0.27812731554E+03  0.31441139449E+03  0.12499454516E+03 0.  0.
          2    1    1    2  501    0 -0.14617141961E+02  0.24135405713E+02 -0.43031918330E+02  0.51457989109E+02  0.00000000000E+00 0. -1.
          1    1    1    2  502    0  0.15748210673E+01  0.51402550871E+02  0.10086887546E+04  0.10099988644E+04  0.00000000000E+00 0. -1.
         22    1    3    3    0    0 -0.40197384440E+02 -0.34211206541E+02 -0.38092991270E+02  0.65094641505E+02  0.00000000000E+00 0. -1.
         22    1    3    3    0    0  0.53239705334E+02 -0.41326750043E+02 -0.24003432427E+03  0.24931675299E+03  0.00000000000E+00 0. -1.
</event>
<event>
 7    1  0.7961130E-006  0.3506463E+02  0.7818608E-02  0.1570464E+00
          2   -1    0    0  502    0  0.00000000000E+00  0.00000000000E+00  0.14578872494E+03  0.14578872494E+03  0.00000000000E+00 0. -1.
          1   -1    0    0  501    0 -0.00000000000E+00 -0.00000000000E+00 -0.28781618949E+03  0.28781618949E+03  0.00000000000E+00 0. -1.
         25    2    1    2    0    0 -0.27683903153E+02  0.29706283941E+02  0.23459898427E+02  0.13350894511E+03  0.12500163915E+03 0.  0.
          2    1    1    2  501    0  0.35183789955E+02 -0.23383749705E+00 -0.22793614908E+03  0.23063573403E+03  0.00000000000E+00 0. -1.
          1    1    1    2  502    0 -0.74998868016E+01 -0.29472446444E+02  0.62448786100E+02  0.69460235292E+02  0.00000000000E+00 0. -1.
         22    1    3    3    0    0 -0.39771846053E+02 -0.42499576641E+02  0.94131252621E+01  0.58962875441E+02  0.00000000000E+00 0.  1.
         22    1    3    3    0    0  0.12087942900E+02  0.72205860582E+02  0.14046773165E+02  0.74546069664E+02  0.00000000000E+00 0.  1.
</event>
<event>
 7    1  0.7961130E-006  0.6081243E+02  0.7818608E-02  0.1478024E+00
          2   -1    0    0  502    0  0.00000000000E+00  0.00000000000E+00  0.12021827838E+04  0.12021827838E+04  0.00000000000E+00 0. -1.
          1   -1    0    0  501    0 -0.00000000000E+00 -0.00000000000E+00 -0.16200289648E+02  0.16200289648E+02  0.00000000000E+00 0. -1.
         25    2    1    2    0    0 -0.33138971179E+02  0.78222473400E+02  0.85647440795E+03  0.86970690566E+03  0.12499897411E+03 0.  0.
          2    1    1    2  501    0  0.12790211554E+02 -0.29811750576E+02  0.28682432484E+02  0.43301407797E+02  0.00000000000E+00 0. -1.
          1    1    1    2  502    0  0.20348759624E+02 -0.48410722824E+02  0.30082565370E+03  0.30537475997E+03  0.00000000000E+00 0. -1.
         22    1    3    3    0    0  0.23471881574E+01  0.50723270139E+02  0.77516979510E+03  0.77683110819E+03  0.00000000000E+00 0. -1.
         22    1    3    3    0    0 -0.35486159336E+02  0.27499203260E+02  0.81304612853E+02  0.92875797470E+02  0.00000000000E+00 0. -1.
</event>
<event>
 7    1  0.7961130E-006  0.9940352E+02  0.7818608E-02  0.1395489E+00
          2   -1    0    0  502    0  0.00000000000E+00  0.00000000000E+00  0.14153888218E+04  0.14153888218E+04  0.00000000000E+00 0. -1.
          1   -1    0    0  501    0 -0.00000000000E+00 -0.00000000000E+00 -0.21253814249E+03  0.21253814249E+03  0.00000000000E+00 0. -1.
         25    2    1    2    0    0 -0.49093669451E+02 -0.12506442250E+03 -0.37470888322E+02  0.18729949250E+03  0.12500293702E+03 0.  0.
          2    1    1    2  501    0  0.21102861453E+02  0.30267047035E+02 -0.94864609632E+02  0.10178761741E+03  0.00000000000E+00 0. -1.
          1    1    1    2  502    0  0.27990807998E+02  0.94797375462E+02  0.13351861772E+04  0.13388398543E+04  0.00000000000E+00 0. -1.
         22    1    3    3    0    0 -0.86350082010E+02 -0.11126884321E+03 -0.14959662926E+02  0.14163644887E+03  0.00000000000E+00 0.  1.
         22    1    3    3    0    0  0.37256412559E+02 -0.13795579282E+02 -0.22511225396E+02  0.45663043628E+02  0.00000000000E+00 0.  1.
</event>
<event>
 7    1  0.7961130E-006  0.4606858E+02  0.7818608E-02  0.1491257E+00
          2   -1    0    0  502    0  0.00000000000E+00  0.00000000000E+00  0.67847398362E+03  0.67847398362E+03  0.00000000000E+00 0. -1.
          1   -1    0    0  501    0 -0.00000000000E+00 -0.00000000000E+00 -0.26771702912E+04  0.26771702912E+04  0.00000000000E+00 0. -1.
         25    2    1    2    0    0 -0.46334088475E+02  0.86982211027E+01 -0.17940351095E+03  0.22368270324E+03  0.12500330069E+03 0.  0.
          2    1    1    2  501    0  0.23083731960E+02 -0.40039687363E+02 -0.24748311713E+04  0.24752626854E+04  0.00000000000E+00 0. -1.
          1    1    1    2  502    0  0.23250356515E+02  0.31341466260E+02  0.65553837462E+03  0.65669888624E+03  0.00000000000E+00 0. -1.
         22    1    3    3    0    0 -0.25641266150E+02  0.58013949772E+02 -0.14952400785E+03  0.16242081708E+03  0.00000000000E+00 0.  1.
         22    1    3    3    0    0 -0.20692822325E+02 -0.49315728670E+02 -0.29879503096E+02  0.61261886155E+02  0.00000000000E+00 0.  1.
</event>
<event>
 7    1  0.7961130E-006  0.6634354E+02  0.7818608E-02  0.1465151E+00
          2   -1    0    0  502    0  0.00000000000E+00  0.00000000000E+00  0.97418023705E+03  0.97418023705E+03  0.00000000000E+00 0. -1.
          1   -1    0    0  501    0 -0.00000000000E+00 -0.00000000000E+00 -0.58209727661E+02  0.58209727661E+02  0.00000000000E+00 0. -1.
         25    2    1    2    0    0  0.15015377784E+02 -0.87464314530E+02  0.22364793592E+03  0.27116247985E+03  0.12504088672E+03 0.  0.
          2    1    1    2  501    0 -0.27975361681E+02  0.57550410148E+02 -0.40260609885E+01  0.64116142557E+02  0.00000000000E+00 0. -1.
          1    1    1    2  502    0  0.12959983897E+02  0.29913904383E+02  0.69634863446E+03  0.69711134231E+03  0.00000000000E+00 0. -1.
         22    1    3    3    0    0 -0.18100500589E+02 -0.52006014456E+02  0.21492490509E+03  0.22186700631E+03  0.00000000000E+00 0.  1.
         22    1    3    3    0    0  0.33115878373E+02 -0.35458300075E+02  0.87230308287E+01  0.49295473539E+02  0.00000000000E+00 0.  1.
</event>
<event>
 7    1  0.7961130E-006  0.7109461E+02  0.7818608E-02  0.1372309E+00
          2   -1    0    0  502    0  0.00000000000E+00  0.00000000000E+00  0.11631790932E+03  0.11631790932E+03  0.00000000000E+00 0. -1.
          1   -1    0    0  501    0 -0.00000000000E+00 -0.00000000000E+00 -0.16556315832E+04  0.16556315832E+04  0.00000000000E+00 0. -1.
         25    2    1    2    0    0  0.37544253461E+02 -0.83850176916E+02 -0.47754693633E+03  0.50211280840E+03  0.12500309126E+03 0.  0.
          2    1    1    2  501    0 -0.65393802544E+02  0.28168881599E+02 -0.11552923027E+04  0.11574844016E+04  0.00000000000E+00 0. -1.
          1    1    1    2  502    0  0.27849549083E+02  0.55681295318E+02  0.93525565182E+02  0.11235228246E+03  0.00000000000E+00 0. -1.
         22    1    3    3    0    0 -0.35304663648E+02 -0.63573446114E+02 -0.16102501230E+03  0.17668349360E+03  0.00000000000E+00 0.  1.
         22    1    3    3    0    0  0.72848917109E+02 -0.20276730803E+02 -0.31652192404E+03  0.32542931480E+03  0.00000000000E+00 0.  1.
</event>
<event>
 7    1  0.7961130E-006  0.1010404E+03  0.7818608E-02  0.1386342E+00
          2   -1    0    0  502    0  0.00000000000E+00  0.00000000000E+00  0.13202909084E+04  0.13202909084E+04  0.00000000000E+00 0. -1.
          1   -1    0    0  501    0 -0.00000000000E+00 -0.00000000000E+00 -0.34574846725E+03  0.34574846725E+03  0.00000000000E+00 0. -1.
         25    2    1    2    0    0 -0.98220605826E+02  0.28775920202E+02  0.34003585011E+03  0.37646203731E+03  0.12499578066E+03 0.  0.
          2    1    1    2  501    0  0.10065614949E+03  0.10212337643E+02 -0.31931315766E+03  0.33495797486E+03  0.00000000000E+00 0. -1.
          1    1    1    2  502    0 -0.24355436625E+01 -0.38988257845E+02  0.95381974869E+03  0.95461936347E+03  0.00000000000E+00 0. -1.
         22    1    3    3    0    0 -0.11519667432E+01  0.42297668756E+02  0.31546490493E+02  0.52778791877E+02  0.00000000000E+00 0. -1.
         22    1    3    3    0    0 -0.97068639083E+02 -0.13521748555E+02  0.30848935962E+03  0.32368324544E+03  0.00000000000E+00 0. -1.
</event>
<event>
 7    1  0.7961130E-006  0.4358356E+02  0.7818608E-02  0.1588881E+00
          2   -1    0    0  502    0  0.00000000000E+00  0.00000000000E+00  0.18101251455E+04  0.18101251455E+04  0.00000000000E+00 0. -1.
          1   -1    0    0  501    0 -0.00000000000E+00 -0.00000000000E+00 -0.40015772041E+02  0.40015772041E+02  0.00000000000E+00 0. -1.
         25    2    1    2    0    0  0.44641939579E+02  0.35896413963E+02  0.56861142261E+03  0.58500010313E+03  0.12499886175E+03 0.  0.
          2    1    1    2  501    0 -0.40411166554E+01 -0.21459302554E+02 -0.27652739154E+02  0.35235014867E+02  0.00000000000E+00 0. -1.
          1    1    1    2  502    0 -0.40600822924E+02 -0.14437111408E+02  0.12291506900E+04  0.12299057996E+04  0.00000000000E+00 0. -1.
         22    1    3    3    0    0  0.60251745425E+02 -0.24993304617E+02  0.18253611314E+03  0.19384109652E+03  0.00000000000E+00 0.  1.
         22    1    3    3    0    0 -0.15609805846E+02  0.60889718580E+02  0.38607530947E+03  0.39115900661E+03  0.00000000000E+00 0.  1.
</event>
<event>
 7    1  0.7961130E-006  0.1106855E+03  0.7818608E-02  0.1446006E+00
          2   -1    0    0  502    0  0.00000000000E+00  0.00000000000E+00  0.91983342319E+03  0.91983342319E+03  0.00000000000E+00 0. -1.
          1   -1    0    0  501    0 -0.00000000000E+00 -0.00000000000E+00 -0.12938168455E+04  0.12938168455E+04  0.00000000000E+00 0. -1.
         25    2    1    2    0    0 -0.19148742539E+02  0.87598865137E+02  0.83292041630E+03  0.84700701605E+03  0.12499691936E+03 0.  0.
          2    1    1    2  501    0  0.15115527470E+02 -0.10970961571E+03 -0.12827578255E+04  0.12875295405E+04  0.00000000000E+00 0. -1.
          1    1    1    2  502    0  0.40332150688E+01  0.22110750572E+02  0.75853986877E+02  0.79113712084E+02  0.00000000000E+00 0. -1.
         22    1    3    3    0    0 -0.20111844581E+01  0.10548877305E+03  0.40987602160E+03  0.42323785179E+03  0.00000000000E+00 0.  1.
         22    1    3    3    0    0 -0.17137558081E+02 -0.17889907909E+02  0.42304439470E+03  0.42376916427E+03  0.00000000000E+00 0.  1.
</event>
<event>
 7    1  0.7961130E-006  0.4238758E+02  0.7818608E-02  0.1513194E+00
          2   -1    0    0  502    0  0.00000000000E+00  0.00000000000E+00  0.28140036533E+04  0.28140036533E+04  0.00000000000E+00 0. -1.
          1   -1    0    0  501    0 -0.00000000000E+00 -0.00000000000E+00 -0.20875919799E+02  0.20875919799E+02  0.00000000000E+00 0. -1.
         25    2    1    2    0    0 -0.27737413287E+02  0.97321275874E+01  0.73263474329E+03  0.74380374612E+03  0.12500506894E+03 0.  0.
          2    1    1    2  501    0 -0.70103537807E+01 -0.35814981677E+02  0.70451966918E+01  0.37168437808E+02  0.00000000000E+00 0. -1.
          1    1    1    2  502    0  0.34747767068E+02  0.26082854090E+02  0.20534477935E+04  0.20539073892E+04  0.00000000000E+00 0. -1.
         22    1    3    3    0    0  0.38670788635E+01 -0.16135996090E+02  0.87328248172E+01  0.18750650603E+02  0.00000000000E+00 0. -1.
         22    1    3    3    0    0 -0.31604492151E+02  0.25868123677E+02  0.72390191847E+03  0.72505309551E+03  0.00000000000E+00 0. -1.
</event>
<event>
 7    1  0.7961130E-006  0.6307190E+02  0.7818608E-02  0.1408873E+00
          2   -1    0    0  502    0  0.00000000000E+00  0.00000000000E+00  0.13899949773E+04  0.13899949773E+04  0.00000000000E+00 0. -1.
          1   -1    0    0  501    0 -0.00000000000E+00 -0.00000000000E+00 -0.64437071597E+03  0.64437071597E+03  0.00000000000E+00 0. -1.
         25    2    1    2    0    0 -0.10738394170E+03  0.29518147647E+02  0.14051863091E+03  0.21857411513E+03  0.12500610464E+03 0.  0.
          2    1    1    2  501    0  0.45343556060E+02 -0.26106843761E+02 -0.60341277527E+03  0.60567696235E+03  0.00000000000E+00 0. -1.
          1    1    1    2  502    0  0.62040385636E+02 -0.34113038859E+01  0.12085184056E+04  0.12101146157E+04  0.00000000000E+00 0. -1.
         22    1    3    3    0    0 -0.12429999722E+03  0.54452817049E+02  0.12578437141E+03  0.18503325832E+03  0.00000000000E+00 0. -1.
         22    1    3    3    0    0  0.16916055521E+02 -0.24934669402E+02  0.14734259500E+02  0.33540856811E+02  0.00000000000E+00 0. -1.
</event>
<event>
 7    1  0.7961130E-006  0.4096911E+02  0.7818608E-02  0.1581099E+00
          2   -1    0    0  502    0  0.00000000000E+00  0.00000000000E+00  0.10171422192E+03  0.10171422192E+03  0.00000000000E+00 0. -1.
          1   -1    0    0  501    0 -0.00000000000E+00 -0.00000000000E+00 -0.54534400683E+03  0.54534400683E+03  0.00000000000E+00 0. -1.
         25    2    1    2    0    0  0.26188398507E+02 -0.64514146267E+01 -0.10171392506E+03  0.16339507511E+03  0.12499910021E+03 0.  0.
          2    1    1    2  501    0  0.13220624919E+02  0.20467216118E+02 -0.40622126712E+03  0.40695136039E+03  0.00000000000E+00 0. -1.
          1    1    1    2  502    0 -0.39409023426E+02 -0.14015801491E+02  0.64305407274E+02  0.76711793249E+02  0.00000000000E+00 0. -1.
         22    1    3    3    0    0 -0.18711999908E+02 -0.35798960679E+02  0.80835067432E+01  0.41195237680E+02  0.00000000000E+00 0.  1.
         22    1    3    3    0    0  0.44900398415E+02  0.29347546053E+02 -0.10979743181E+03  0.12219983743E+03  0.00000000000E+00 0.  1.
</event>
<event>
 7    1  0.7961130E-006  0.3404244E+02  0.7818608E-02  0.1580227E+00
          2   -1    0    0  502    0  0.00000000000E+00  0.00000000000E+00  0.26688190026E+04  0.26688190026E+04  0.00000000000E+00 0. -1.
          1   -1    0    0  501    0 -0.00000000000E+00 -0.00000000000E+00 -0.38747133154E+01  0.38747133154E+01  0.00000000000E+00 0. -1.
         25    2    1    2    0    0 -0.10611642349E+02 -0.16584526100E+02  0.20902260008E+04  0.20940527926E+04  0.12499884131E+03 0.  0.
          2    1    1    2  501    0 -0.12716896579E+02  0.34610818923E+02  0.27143425234E+03  0.27392732903E+03  0.00000000000E+00 0. -1.
          1    1    1    2  502    0  0.23328538927E+02 -0.18026292822E+02  0.30328403615E+03  0.30471359429E+03  0.00000000000E+00 0. -1.
         22    1    3    3    0    0 -0.42353400923E+02 -0.66821671375E+01  0.19268763931E+04  0.19273533916E+04  0.00000000000E+00 0.  1.
         22    1    3    3    0    0  0.31741758574E+02 -0.99023589628E+01  0.16334960771E+03  0.16669940099E+03  0.00000000000E+00 0.  1.
</event>
<event>
 7    1  0.7961130E-006  0.1878911E+03  0.7818608E-02  0.1385417E+00
          2   -1    0    0  502    0  0.00000000000E+00  0.00000000000E+00  0.11416720872E+04  0.11416720872E+04  0.00000000000E+00 0. -1.
          1   -1    0    0  501    0 -0.00000000000E+00 -0.00000000000E+00 -0.32676542401E+03  0.32676542401E+03  0.00000000000E+00 0. -1.
         25    2    1    2    0    0  0.18850190793E+03 -0.41794732179E+02  0.31446601805E+03  0.38960713626E+03  0.12500030074E+03 0.  0.
          2    1    1    2  501    0 -0.17767918936E+03  0.59983300317E+02 -0.25863029334E+03  0.31946442569E+03  0.00000000000E+00 0. -1.
          1    1    1    2  502    0 -0.10822718572E+02 -0.18188568138E+02  0.75907093846E+03  0.75936594924E+03  0.00000000000E+00 0. -1.
         22    1    3    3    0    0  0.50829899270E+02 -0.56469064568E+00  0.19860397034E+03  0.20500618178E+03  0.00000000000E+00 0. -1.
         22    1    3    3    0    0  0.13767200866E+03 -0.41230041533E+02  0.11586204771E+03  0.18460095447E+03  0.00000000000E+00 0. -1.
</event>
<event>
 7    1  0.7961130E-006  0.1006156E+03  0.7818608E-02  0.1442216E+00
          2   -1    0    0  502    0  0.00000000000E+00  0.00000000000E+00  0.91317675578E+02  0.91317675578E+02  0.00000000000E+00 0. -1.
          1   -1    0    0  501    0 -0.00000000000E+00 -0.00000000000E+00 -0.15299771071E+04  0.15299771071E+04  0.00000000000E+00 0. -1.
         25    2    1    2    0    0 -0.99866579794E+02 -0.51721268233E+01 -0.31851833978E+03  0.35648162895E+03  0.12500053738E+03 0.  0.
          2    1    1    2  501    0  0.35529151375E+01 -0.25181635496E+02 -0.11570250898E+04  0.11573045392E+04  0.00000000000E+00 0. -1.
          1    1    1    2  502    0  0.96313664657E+02  0.30353762319E+02  0.36883998072E+02  0.10750861454E+03  0.00000000000E+00 0. -1.
         22    1    3    3    0    0  0.52550311758E+01  0.43270000793E+02 -0.10313243699E+03  0.11196520835E+03  0.00000000000E+00 0.  1.
         22    1    3    3    0    0 -0.10512161097E+03 -0.48442127617E+02 -0.21538590278E+03  0.24451642059E+03  0.00000000000E+00 0.  1.
</event>
<event>
 7    1  0.7961130E-006  0.6386377E+02  0.7818608E-02  0.1387037E+00
          2   -1    0    0  502    0  0.00000000000E+00  0.00000000000E+00  0.10623246736E+04  0.10623246736E+04  0.00000000000E+00 0. -1.
          1   -1    0    0  501    0 -0.00000000000E+00 -0.00000000000E+00 -0.24107462471E+03  0.24107462471E+03  0.00000000000E+00 0. -1.
         25    2    1    2    0    0 -0.10773600677E+02 -0.28730822901E+00  0.58601541084E+02  0.13847019360E+03  0.12499480341E+03 0.  0.
          2    1    1    2  501    0  0.82114952584E+01  0.64099660588E+02 -0.19485833844E+03  0.20529482995E+03  0.00000000000E+00 0. -1.
          1    1    1    2  502    0  0.25621054189E+01 -0.63812352359E+02  0.95750684625E+03  0.95963427477E+03  0.00000000000E+00 0. -1.
         22    1    3    3    0    0 -0.51108969445E+01  0.55910528323E+02 -0.12735001360E+01  0.56158082655E+02  0.00000000000E+00 0. -1.
         22    1    3    3    0    0 -0.56627037328E+01 -0.56197836552E+02  0.59875041220E+02  0.82312110942E+02  0.00000000000E+00 0. -1.
</event>
<event>
 7    1  0.7961130E-006  0.1576749E+03  0.7818608E-02  0.1376566E+00
          2   -1    0    0  502    0  0.00000000000E+00  0.00000000000E+00  0.45190429016E+03  0.45190429016E+03  0.00000000000E+00 0. -1.
          1   -1    0    0  501    0 -0.00000000000E+00 -0.00000000000E+00 -0.12833748831E+04  0.12833748831E+04  0.00000000000E+00 0. -1.
         25    2    1    2    0    0  0.83011995389E+02  0.11973430503E+03 -0.20212494835E+03  0.27875867264E+03  0.12499843058E+03 0.  0.
          2    1    1    2  501    0 -0.70161344763E+02 -0.14360019661E+03 -0.10363566067E+04  0.10486079568E+04  0.00000000000E+00 0. -1.
          1    1    1    2  502    0 -0.12850650626E+02  0.23865891582E+02  0.40701096220E+03  0.40791254375E+03  0.00000000000E+00 0. -1.
         22    1    3    3    0    0  0.65325251391E+02  0.31037565992E+02 -0.19407705827E+02  0.74882427962E+02  0.00000000000E+00 0.  1.
         22    1    3    3    0    0  0.17686743998E+02  0.88696739035E+02 -0.18271724252E+03  0.20387624468E+03  0.00000000000E+00 0.  1.
</event>
<event>
 7    1  0.7961130E-006  0.9386370E+02  0.7818608E-02  0.1381208E+00
          2   -1    0    0  502    0  0.00000000000E+00  0.00000000000E+00  0.27289353870E+04  0.27289353870E+04  0.00000000000E+00 0. -1.
          1   -1    0    0  501    0 -0.00000000000E+00 -0.00000000000E+00 -0.31841179296E+04  0.31841179296E+04  0.00000000000E+00 0. -1.
         25    2    1    2    0    0 -0.20310512645E+02  0.59170820683E+02 -0.52977218390E+03  0.54790269052E+03  0.12500035401E+03 0.  0.
          2    1    1    2  501    0 -0.13482341165E+01 -0.97285644767E+02 -0.26442090844E+04  0.26459984876E+04  0.00000000000E+00 0. -1.
          1    1    1    2  502    0  0.21658746762E+02  0.38114824084E+02  0.27187987258E+04  0.27191521385E+04  0.00000000000E+00 0. -1.
         22    1    3    3    0    0  0.38675736159E+02 -0.98617381368E+01 -0.84310699976E+02  0.93281083704E+02  0.00000000000E+00 0. -1.
         22    1    3    3    0    0 -0.58986248804E+02  0.69032558820E+02 -0.44546148393E+03  0.45462160682E+03  0.00000000000E+00 0. -1.
</event>
<event>
 7    1  0.7961130E-006  0.2484562E+03  0.7818608E-02  0.1267824E+00
          2   -1    0    0  502    0  0.00000000000E+00  0.00000000000E+00  0.23408192787E+04  0.23408192787E+04  0.00000000000E+00 0. -1.
          1   -1    0    0  501    0 -0.00000000000E+00 -0.00000000000E+00 -0.69668779829E+03  0.69668779829E+03  0.00000000000E+00 0. -1.
         25    2    1    2    0    0 -0.29020507921E+03  0.13654273199E+02  0.47311815524E+03  0.56909697412E+03  0.12500059984E+03 0.  0.
          2    1    1    2  501    0  0.24559653730E+03 -0.21942006691E+02 -0.62497032999E+03  0.67185342461E+03  0.00000000000E+00 0. -1.
          1    1    1    2  502    0  0.44608541914E+02  0.82877334926E+01  0.17959836552E+04  0.17965566783E+04  0.00000000000E+00 0. -1.
         22    1    3    3    0    0 -0.12740850343E+03 -0.39899135335E+02  0.13413189000E+03  0.18925176793E+03  0.00000000000E+00 0.  1.
         22    1    3    3    0    0 -0.16279657578E+03  0.53553408534E+02  0.33898626523E+03  0.37984520619E+03  0.00000000000E+00 0.  1.
</event>
<event>
 7    1  0.7961130E-006  0.3706282E+02  0.7818608E-02  0.1560184E+00
          2   -1    0    0  502    0  0.00000000000E+00  0.00000000000E+00  0.52792608708E+03  0.52792608708E+03  0.00000000000E+00 0. -1.
          1   -1    0    0  501    0 -0.00000000000E+00 -0.00000000000E+00 -0.90748517281E+03  0.90748517281E+03  0.00000000000E+00 0. -1.
         25    2    1    2    0    0 -0.49403035466E+02  0.15679369672E+02  0.16430752018E+02  0.13630472185E+03  0.12499001976E+03 0.  0.
          2    1    1    2  501    0  0.27315900486E+02  0.14001822091E+02 -0.84651172157E+03  0.84706806350E+03  0.00000000000E+00 0. -1.
          1    1    1    2  502    0  0.22087134979E+02 -0.29681191763E+02  0.45052188381E+03  0.45203847455E+03  0.00000000000E+00 0. -1.
         22    1    3    3    0    0 -0.31668074224E+02  0.64225435851E+02  0.37090768274E+02  0.80644272125E+02  0.00000000000E+00 0. -1.
         22    1    3    3    0    0 -0.17734961241E+02 -0.48546066180E+02 -0.20660016256E+02  0.55660449724E+02  0.00000000000E+00 0. -1.
</event>
<event>
 7    1  0.7961130E-006  0.7707651E+02  0.7818608E-02  0.1382283E+00
          2   -1    0    0  502    0  0.00000000000E+00  0.00000000000E+00  0.16108067458E+03  0.16108067458E+03  0.00000000000E+00 0. -1.
          1   -1    0    0  501    0 -0.00000000000E+00 -0.00000000000E+00 -0.17624164520E+04  0.17624164520E+04  0.00000000000E+00 0. -1.
         25    2    1    2    0    0  0.44650747566E+02  0.11625087614E+03 -0.24442342707E+03  0.30145429161E+03  0.12499569101E+03 0.  0.
          2    1    1    2  501    0 -0.41630067632E+01 -0.52758335398E+02 -0.14782718497E+04  0.14792188595E+04  0.00000000000E+00 0. -1.
          1    1    1    2  502    0 -0.40487740803E+02 -0.63492540738E+02  0.12135949938E+03  0.14282397549E+03  0.00000000000E+00 0. -1.
         22    1    3    3    0    0  0.44880073354E+02  0.57089585626E+02 -0.22910951851E+03  0.24034269958E+03  0.00000000000E+00 0. -1.
         22    1    3    3    0    0 -0.22932578744E+00  0.59161290510E+02 -0.15313908564E+02  0.61111592032E+02  0.00000000000E+00 0. -1.
</event>
<event>
 7    1  0.7961130E-006  0.4803850E+02  0.7818608E-02  0.1574223E+00
          2   -1    0    0  502    0  0.00000000000E+00  0.00000000000E+00  0.52366419900E+03  0.52366419900E+03  0.00000000000E+00 0. -1.
          1   -1    0    0  501    0 -0.00000000000E+00 -0.00000000000E+00 -0.98364121681E+03  0.98364121681E+03  0.00000000000E+00 0. -1.
         25    2    1    2    0    0 -0.24013443762E+02  0.15343145369E+02 -0.34530671536E+03  0.36833941591E+03  0.12500056018E+03 0.  0.
          2    1    1    2  501    0  0.44745534332E+02 -0.21697467962E+02 -0.62560151608E+03  0.62757485599E+03  0.00000000000E+00 0. -1.
          1    1    1    2  502    0 -0.20732090570E+02  0.63543225932E+01  0.51093121363E+03  0.51139114390E+03  0.00000000000E+00 0. -1.
         22    1    3    3    0    0 -0.49962763304E+02  0.56511983981E+02 -0.16229497966E+03  0.17896799287E+03  0.00000000000E+00 0. -1.
         22    1    3    3    0    0  0.25949319542E+02 -0.41168838612E+02 -0.18301173570E+03  0.18937142304E+03  0.00000000000E+00 0. -1.
</event>
<event>
 7    1  0.7961130E-006  0.6180028E+02  0.7818608E-02  0.1463158E+00
          2   -1    0    0  502    0  0.00000000000E+00  0.00000000000E+00  0.47368924807E+03  0.47368924807E+03  0.00000000000E+00 0. -1.
          1   -1    0    0  501    0 -0.00000000000E+00 -0.00000000000E+00 -0.16044297931E+03  0.16044297931E+03  0.00000000000E+00 0. -1.
         25    2    1    2    0    0  0.23717579488E+02 -0.26052962156E+02  0.32738494371E+02  0.13393388535E+03  0.12500078487E+03 0.  0.
          2    1    1    2  501    0 -0.59197978943E+02  0.27361655641E+02 -0.99264085872E+02  0.11877044942E+03  0.00000000000E+00 0. -1.
          1    1    1    2  502    0  0.35480399455E+02 -0.13086934852E+01  0.37977186026E+03  0.38142789262E+03  0.00000000000E+00 0. -1.
         22    1    3    3    0    0  0.24876120888E+02 -0.75805289894E+02  0.15553900022E+02  0.81284605998E+02  0.00000000000E+00 0. -1.
         22    1    3    3    0    0 -0.11585413998E+01  0.49752327738E+02  0.17184594349E+02  0.52649279354E+02  0.00000000000E+00 0. -1.
</event>
<event>
 7    1  0.7961130E-006  0.4391336E+02  0.7818608E-02  0.1516613E+00
          2   -1    0    0  502    0  0.00000000000E+00  0.00000000000E+00  0.46407349621E+03  0.46407349621E+03  0.00000000000E+00 0. -1.
          1   -1    0    0  501    0 -0.00000000000E+00 -0.00000000000E+00 -0.15412504666E+03  0.15412504666E+03  0.00000000000E+00 0. -1.
         25    2    1    2    0    0 -0.10503765672E+02 -0.21166930997E+02  0.60489563873E+02  0.14085907349E+03  0.12499569267E+03 0.  0.
          2    1    1    2  501    0 -0.32963554150E+02  0.99236417007E+01 -0.10991090855E+03  0.11517587588E+03  0.00000000000E+00 0. -1.
          1    1    1    2  502    0  0.43467319822E+02  0.11243289297E+02  0.35936979423E+03  0.36216359350E+03  0.00000000000E+00 0. -1.
         22    1    3    3    0    0 -0.88616557996E+01  0.10388131840E+02 -0.36437390996E+02  0.38911768004E+02  0.00000000000E+00 0. -1.
         22    1    3    3    0    0 -0.16421098722E+01 -0.31555062837E+02  0.96926954869E+02  0.10194730548E+03  0.00000000000E+00 0. -1.
</event>
<event>
 7    1  0.7961130E-006  0.1286773E+03  0.7818608E-02  0.1301190E+00
          2   -1    0    0  502    0  0.00000000000E+00  0.00000000000E+00  0.42601406921E+03  0.42601406921E+03  0.00000000000E+00 0. -1.
          1   -1    0    0  501    0 -0.00000000000E+00 -0.00000000000E+00 -0.64990061618E+03  0.64990061618E+03  0.00000000000E+00 0. -1.
         25    2    1    2    0    0  0.17731400221E+03  0.26656887073E+02  0.59344954782E+01  0.21865759089E+03  0.12500031523E+03 0.  0.
          2    1    1    2  501    0 -0.61796357294E+02  0.16326108856E+02 -0.52943601454E+03  0.53328025006E+03  0.00000000000E+00 0. -1.
          1    1    1    2  502    0 -0.11551764492E+03 -0.42982995929E+02  0.29961497210E+03  0.32397684444E+03  0.00000000000E+00 0. -1.
         22    1    3    3    0    0 -0.88546799577E+01  0.49584476878E+01  0.28143590426E+02  0.29917440443E+02  0.00000000000E+00 0. -1.
         22    1    3    3    0    0  0.18616868217E+03  0.21698439385E+02 -0.22209094948E+02  0.18874015045E+03  0.00000000000E+00 0. -1.
</event>
<event>
 7    1  0.7961130E-006  0.5032601E+02  0.7818608E-02  0.1536827E+00
          2   -1    0    0  502    0  0.00000000000E+00  0.00000000000E+00  0.30951530833E+04  0.30951530833E+04  0.00000000000E+00 0. -1.
          1   -1    0    0  501    0 -0.00000000000E+00 -0.00000000000E+00 -0.44053200073E+03  0.44053200073E+03  0.00000000000E+00 0. -1.
         25    2    1    2    0    0  0.36503549578E+02 -0.51473696259E+01  0.17178954869E+04  0.17228317240E+04  0.12500096197E+03 0.  0.
          2    1    1    2  501    0 -0.39465829354E+02  0.31252566735E+02 -0.43649152181E+03  0.43938493741E+03  0.00000000000E+00 0. -1.
          1    1    1    2  502    0  0.29622797765E+01 -0.26105197110E+02  0.13732171175E+04  0.13734684227E+04  0.00000000000E+00 0. -1.
         22    1    3    3    0    0  0.31360522440E+02  0.57789664469E+02  0.74885030638E+03  0.75173127450E+03  0.00000000000E+00 0. -1.
         22    1    3    3    0    0  0.51430271381E+01 -0.62937034095E+02  0.96904518056E+03  0.97110044947E+03  0.00000000000E+00 0. -1.
</event>
<event>
 7    1  0.7961130E-006  0.5085914E+02  0.7818608E-02  0.1444359E+00
          2   -1    0    0  502    0  0.00000000000E+00  0.00000000000E+00  0.91681572817E+02  0.91681572817E+02  0.00000000000E+00 0. -1.
          1   -1    0    0  501    0 -0.00000000000E+00 -0.00000000000E+00 -0.34328836445E+03  0.34328836445E+03  0.00000000000E+00 0. -1.
         25    2    1    2    0    0 -0.43374931141E+02 -0.56497127418E+02 -0.14124101429E+03  0.20160275321E+03  0.12498534285E+03 0.  0.
          2    1    1    2  501    0  0.49139959071E+02  0.60848980964E+01 -0.15689469227E+03  0.16452266113E+03  0.00000000000E+00 0. -1.
          1    1    1    2  502    0 -0.57650279303E+01  0.50412229321E+02  0.46528914928E+02  0.68844522923E+02  0.00000000000E+00 0. -1.
         22    1    3    3    0    0 -0.22550547162E+01  0.19812584173E+02 -0.10628028443E+03  0.10813474290E+03  0.00000000000E+00 0.  1.
         22    1    3    3    0    0 -0.41119876425E+02 -0.76309711590E+02 -0.34960729863E+02  0.93468010318E+02  0.00000000000E+00 0.  1.
</event>
<event>
 7    1  0.7961130E-006  0.5528713E+02  0.7818608E-02  0.1428606E+00
          2   -1    0    0  502    0  0.00000000000E+00  0.00000000000E+00  0.59832681101E+03  0.59832681101E+03  0.00000000000E+00 0. -1.
          1   -1    0    0  501    0 -0.00000000000E+00 -0.00000000000E+00 -0.21267841656E+03  0.21267841656E+03  0.00000000000E+00 0. -1.
         25    2    1    2    0    0 -0.55219444093E+02 -0.20619037135E+02  0.15975194308E+03  0.21123475190E+03  0.12500042158E+03 0.  0.
          2    1    1    2  501    0  0.46970976995E+02 -0.29983545741E+02 -0.18113996924E+03  0.18951774099E+03  0.00000000000E+00 0. -1.
          1    1    1    2  502    0  0.82484670972E+01  0.50602582876E+02  0.40703642061E+03  0.41025273468E+03  0.00000000000E+00 0. -1.
         22    1    3    3    0    0 -0.90201080270E+02  0.97817785903E+01  0.92582981371E+02  0.12962841708E+03  0.00000000000E+00 0. -1.
         22    1    3    3    0    0  0.34981636177E+02 -0.30400815725E+02  0.67168961704E+02  0.81606334820E+02  0.00000000000E+00 0. -1.
</event>
<event>
 7    1  0.7961130E-006  0.4214165E+02  0.7818608E-02  0.1551534E+00
          2   -1    0    0  502    0  0.00000000000E+00  0.00000000000E+00  0.14380935009E+03  0.14380935009E+03  0.00000000000E+00 0. -1.
          1   -1    0    0  501    0 -0.00000000000E+00 -0.00000000000E+00 -0.17184900506E+04  0.17184900506E+04  0.00000000000E+00 0. -1.
         25    2    1    2    0    0  0.37338575452E+02 -0.43567874001E+01 -0.21558420910E+03  0.25201810064E+03  0.12499368393E+03 0.  0.
          2    1    1    2  501    0 -0.24847233087E+01  0.28417689052E+02 -0.14809771196E+04  0.14812518245E+04  0.00000000000E+00 0. -1.
          1    1    1    2  502    0 -0.34853852143E+02 -0.24060901652E+02  0.12188062825E+03  0.12902947547E+03  0.00000000000E+00 0. -1.
         22    1    3    3    0    0  0.38153685470E+00  0.48812215160E+02 -0.34691625698E+02  0.59885614406E+02  0.00000000000E+00 0.  1.
         22    1    3    3    0    0  0.36957038597E+02 -0.53169002560E+02 -0.18089258341E+03  0.19213248623E+03  0.00000000000E+00 0.  1.
</event>
<event>
 7    1  0.7961130E-006  0.1079964E+03  0.7818608E-02  0.1280649E+00
          2   -1    0    0  502    0  0.00000000000E+00  0.00000000000E+00  0.56468616467E+03  0.56468616467E+03  0.00000000000E+00 0. -1.
          1   -1    0    0  501    0 -0.00000000000E+00 -0.00000000000E+00 -0.50825230378E+03  0.50825230378E+03  0.00000000000E+00 0. -1.
         25    2    1    2    0    0 -0.68984317343E+02 -0.17438038782E+02 -0.92311466212E+02  0.17090696295E+03  0.12499944782E+03 0.  0.
          2    1    1    2  501    0 -0.13987017166E+02  0.91219221341E+02 -0.36496876965E+03  0.37645555623E+03  0.00000000000E+00 0. -1.
          1    1    1    2  502    0  0.82971334509E+02 -0.73781182558E+02  0.51371409676E+03  0.52557594927E+03  0.00000000000E+00 0. -1.
         22    1    3    3    0    0 -0.70428935099E+02  0.19031245604E+02 -0.10868858814E+03  0.13090314130E+03  0.00000000000E+00 0. -1.
         22    1    3    3    0    0  0.14446177557E+01 -0.36469284387E+02  0.16377121932E+02  0.40003821654E+02  0.00000000000E+00 0. -1.
</event>
<event>
 7    1  0.7961130E-006  0.7758636E+02  0.7818608E-02  0.1342936E+00
          2   -1    0    0  502    0  0.00000000000E+00  0.00000000000E+00  0.40851710528E+04  0.40851710528E+04  0.00000000000E+00 0. -1.
          1   -1    0    0  501    0 -0.00000000000E+00 -0.00000000000E+00 -0.77975911841E+03  0.77975911841E+03  0.00000000000E+00 0. -1.
         25    2    1    2    0    0 -0.68186371369E+02  0.76430760389E+02  0.48849757912E+02  0.16882890216E+03  0.12500342789E+03 0.  0.
          2    1    1    2  501    0  0.77581297055E+02 -0.39505623232E+01 -0.71733657915E+03  0.72153047918E+03  0.00000000000E+00 0. -1.
          1    1    1    2  502    0 -0.93949256858E+01 -0.72480198066E+02  0.39738987556E+04  0.39745707898E+04  0.00000000000E+00 0. -1.
         22    1    3    3    0    0 -0.57835162957E+02 -0.16576811796E+02 -0.58260169133E+01  0.60445340901E+02  0.00000000000E+00 0.  1.
         22    1    3    3    0    0 -0.10351208413E+02  0.93007572185E+02  0.54675774825E+02  0.10838356126E+03  0.00000000000E+00 0.  1.
</event>
<event>
 7    1  0.7961130E-006  0.4649890E+02  0.7818608E-02  0.1564462E+00
          2   -1    0    0  502    0  0.00000000000E+00  0.00000000000E+00  0.21128028872E+04  0.21128028872E+04  0.00000000000E+00 0. -1.
          1   -1    0    0  501    0 -0.00000000000E+00 -0.00000000000E+00 -0.13335322239E+02  0.13335322239E+02  0.00000000000E+00 0. -1.
         25    2    1    2    0    0  0.62866791304E+01 -0.66874966185E+02  0.55105103448E+03  0.56902910312E+03  0.12500037667E+03 0.  0.
          2    1    1    2  501    0  0.64306110396E+01  0.22929187126E+02  0.31429523516E+02  0.39432414699E+02  0.00000000000E+00 0. -1.
          1    1    1    2  502    0 -0.12717290170E+02  0.43945779059E+02  0.15169870070E+04  0.15176766916E+04  0.00000000000E+00 0. -1.
         22    1    3    3    0    0  0.10759430898E+02 -0.10397567816E+03  0.40399001665E+03  0.41729442910E+03  0.00000000000E+00 0. -1.
         22    1    3    3    0    0 -0.44727517674E+01  0.37100711978E+02  0.14706101782E+03  0.15173467402E+03  0.00000000000E+00 0. -1.
</event>
<event>
 7    1  0.7961130E-006  0.1184496E+03  0.7818608E-02  0.1429513E+00
          2   -1    0    0  502    0  0.00000000000E+00  0.00000000000E+00  0.52016409370E+02  0.52016409370E+02  0.00000000000E+00 0. -1.
          1   -1    0    0  501    0 -0.00000000000E+00 -0.00000000000E+00 -0.11243530742E+04  0.11243530742E+04  0.00000000000E+00 0. -1.
         25    2    1    2    0    0 -0.20448158872E+02  0.13161891191E+03 -0.48656531856E+03  0.51972351128E+03  0.12500021509E+03 0.  0.
          2    1    1    2  501    0  0.46441051214E+01 -0.11386830490E+03 -0.61126181265E+03  0.62179463022E+03  0.00000000000E+00 0. -1.
          1    1    1    2  502    0  0.15804053751E+02 -0.17750607004E+02  0.25490466411E+02  0.34851342038E+02  0.00000000000E+00 0. -1.
         22    1    3    3    0    0  0.19948514666E+02 -0.57836995486E+01 -0.11932411325E+02  0.23953639763E+02  0.00000000000E+00 0.  1.
         22    1    3    3    0    0 -0.40396673538E+02  0.13740261146E+03 -0.47463290724E+03  0.49576987151E+03  0.00000000000E+00 0.  1.
</event>
<event>
 7    1  0.7961130E-006  0.4721137E+03  0.7818608E-02  0.1223661E+00
          2   -1    0    0  502    0  0.00000000000E+00  0.00000000000E+00  0.78166175958E+03  0.78166175958E+03  0.00000000000E+00 0. -1.
          1   -1    0    0  501    0 -0.00000000000E+00 -0.00000000000E+00 -0.95791810276E+03  0.95791810276E+03  0.00000000000E+00 0. -1.
         25    2    1    2    0    0 -0.17188665162E+03  0.40715631699E+03  0.22150729609E+03  0.50991170166E+03  0.12499269498E+03 0.  0.
          2    1    1    2  501    0  0.19505583234E+03 -0.43630834422E+03 -0.74245097479E+03  0.88297519724E+03  0.00000000000E+00 0. -1.
          1    1    1    2  502    0 -0.23169180728E+02  0.29152027231E+02  0.34468733553E+03  0.34669296344E+03  0.00000000000E+00 0. -1.
         22    1    3    3    0    0  0.15130212347E+02  0.47296727450E+02  0.42737368667E+01  0.49841434369E+02  0.00000000000E+00 0.  1.
         22    1    3    3    0    0 -0.18701686396E+03  0.35985958954E+03  0.21723355922E+03  0.46007026729E+03  0.00000000000E+00 0.  1.
</event>
<event>
 7    1  0.7961130E-006  0.3460714E+02  0.7818608E-02  0.1557662E+00
          2   -1    0    0  502    0  0.00000000000E+00  0.00000000000E+00  0.14466289501E+03  0.14466289501E+03  0.00000000000E+00 0. -1.
          1   -1    0    0  501    0 -0.00000000000E+00 -0.00000000000E+00 -0.23480121966E+04  0.23480121966E+04  0.00000000000E+00 0. -1.
         25    2    1    2    0    0  0.40243499175E+00 -0.45353050259E+01 -0.13852406353E+03  0.18664336455E+03  0.12500439355E+03 0.  0.
          2    1    1    2  501    0  0.32479737131E+02 -0.78032527685E+01 -0.21827410864E+04  0.21829966730E+04  0.00000000000E+00 0. -1.
          1    1    1    2  502    0 -0.32882172123E+02  0.12338557794E+02  0.11791584831E+03  0.12303505409E+03  0.00000000000E+00 0. -1.
         22    1    3    3    0    0 -0.54188341789E+02  0.27231539923E+02 -0.54567491302E+02  0.81581519105E+02  0.00000000000E+00 0. -1.
         22    1    3    3    0    0  0.54590776780E+02 -0.31766844949E+02 -0.83956572230E+02  0.10506184544E+03  0.00000000000E+00 0. -1.
</event>
<event>
 7    1  0.7961130E-006  0.7993327E+02  0.7818608E-02  0.1436930E+00
          2   -1    0    0  502    0  0.00000000000E+00  0.00000000000E+00  0.42554904739E+03  0.42554904739E+03  0.00000000000E+00 0. -1.
          1   -1    0    0  501    0 -0.00000000000E+00 -0.00000000000E+00 -0.79944993030E+03  0.79944993030E+03  0.00000000000E+00 0. -1.
         25    2    1    2    0    0  0.10197608921E+03  0.46562159174E+02 -0.14386111773E+03  0.22111330442E+03  0.12501165849E+03 0.  0.
          2    1    1    2  501    0 -0.28184770154E+02 -0.17737448326E+02 -0.61245053246E+03  0.61335524213E+03  0.00000000000E+00 0. -1.
          1    1    1    2  502    0 -0.73791319053E+02 -0.28824710848E+02  0.38241076727E+03  0.39053043114E+03  0.00000000000E+00 0. -1.
         22    1    3    3    0    0  0.11197062313E+03  0.73257487075E+02 -0.13759398673E+03  0.19192755154E+03  0.00000000000E+00 0. -1.
         22    1    3    3    0    0 -0.99945339249E+01 -0.26695327901E+02 -0.62671310068E+01  0.29185752880E+02  0.00000000000E+00 0. -1.
</event>
<event>
 7    1  0.7961130E-006  0.8046934E+02  0.7818608E-02  0.1404771E+00
          2   -1    0    0  502    0  0.00000000000E+00  0.00000000000E+00  0.33851562797E+04  0.33851562797E+04  0.00000000000E+00 0. -1.
          1   -1    0    0  501    0 -0.00000000000E+00 -0.00000000000E+00 -0.25103237999E+03  0.25103237999E+03  0.00000000000E+00 0. -1.
         25    2    1    2    0    0  0.52214377347E+02 -0.10858675965E+03  0.29535612109E+04  0.29586593674E+04  0.12499600144E+03 0.  0.
          2    1    1    2  501    0 -0.24509669156E+02  0.76555746200E+02 -0.24089325117E+03  0.25395090986E+03  0.00000000000E+00 0. -1.
          1    1    1    2  502    0 -0.27704708190E+02  0.32031013454E+02  0.42145593999E+03  0.42357838239E+03  0.00000000000E+00 0. -1.
         22    1    3    3    0    0  0.43930570754E+02 -0.13352401680E+03  0.27189742606E+04  0.27226052942E+04  0.00000000000E+00 0.  1.
         22    1    3    3    0    0  0.82838065928E+01  0.24937257144E+02  0.23458695033E+03  0.23605407328E+03  0.00000000000E+00 0.  1.
</event>
<event>
 7    1  0.7961130E-006  0.5850071E+02  0.7818608E-02  0.1465866E+00
          2   -1    0    0  502    0  0.00000000000E+00  0.00000000000E+00  0.22112103774E+03  0.22112103774E+03  0.00000000000E+00 0. -1.
          1   -1    0    0  501    0 -0.00000000000E+00 -0.00000000000E+00 -0.39409599987E+03  0.39409599987E+03  0.00000000000E+00 0. -1.
         25    2    1    2    0    0 -0.10031831022E+02 -0.34844331398E+02 -0.44258672155E+02  0.13747201362E+03  0.12499983762E+03 0.  0.
          2    1    1    2  501    0  0.46652698200E+02  0.38273714616E+02 -0.29823670593E+03  0.30428027252E+03  0.00000000000E+00 0. -1.
          1    1    1    2  502    0 -0.36620867178E+02 -0.34293832186E+01  0.16952041595E+03  0.17346475148E+03  0.00000000000E+00 0. -1.
         22    1    3    3    0    0 -0.14881075947E+02  0.29265223607E+02  0.26262115096E+02  0.42042816550E+02  0.00000000000E+00 0.  1.
         22    1    3    3    0    0  0.48492449256E+01 -0.64109555005E+02 -0.70520787251E+02  0.95429197072E+02  0.00000000000E+00 0.  1.
</event>
<event>
 7    1  0.7961130E-006  0.5172526E+02  0.7818608E-02  0.1530788E+00
          2   -1    0    0  502    0  0.00000000000E+00  0.00000000000E+00  0.10762471757E+03  0.10762471757E+03  0.00000000000E+00 0. -1.
          1   -1    0    0  501    0 -0.00000000000E+00 -0.00000000000E+00 -0.12467503870E+04  0.12467503870E+04  0.00000000000E+00 0. -1.
         25    2    1    2    0    0  0.72161680894E+01  0.27492589979E+02 -0.23053376961E+03  0.26378186734E+03  0.12500855579E+03 0.  0.
          2    1    1    2  501    0  0.20283320140E+02  0.17202003599E+02 -0.99183405834E+03  0.99219056702E+03  0.00000000000E+00 0. -1.
          1    1    1    2  502    0 -0.27499488229E+02 -0.44694593578E+02  0.83242158522E+02  0.98402670205E+02  0.00000000000E+00 0. -1.
         22    1    3    3    0    0 -0.38940020089E+02  0.18010334914E+02 -0.18753616005E+02  0.46823022559E+02  0.00000000000E+00 0.  1.
         22    1    3    3    0    0  0.46156188179E+02  0.94822550649E+01 -0.21178015360E+03  0.21695884478E+03  0.00000000000E+00 0.  1.
</event>
<event>
 7    1  0.9512134E-006  0.8839405E+02  0.7818608E-02  0.1311957E+00
          2   -1    0    0  502    0  0.00000000000E+00  0.00000000000E+00  0.12950336954E+04  0.12950336954E+04  0.00000000000E+00 0. -1.
          1   -1    0    0  501    0 -0.00000000000E+00 -0.00000000000E+00 -0.84072489769E+03  0.84072489769E+03  0.00000000000E+00 0. -1.
         25    2    1    2    0    0  0.16185656280E+03 -0.13649193012E+02 -0.26728233888E+03  0.33682048641E+03  0.12499737596E+03 0.  0.
          2    1    1    2  501    0 -0.76533315484E+02  0.35438252314E+02 -0.53382035577E+03  0.54044184733E+03  0.00000000000E+00 0. -1.
          1    1    1    2  502    0 -0.85323247313E+02 -0.21789059302E+02  0.12554114924E+04  0.12584962594E+04  0.00000000000E+00 0. -1.
         22    1    3    3    0    0  0.23262018538E+02 -0.19380031988E+02  0.55210199955E+01  0.30776432673E+02  0.00000000000E+00 0. -1.
         22    1    3    3    0    0  0.13859454426E+03  0.57308389757E+01 -0.27280335888E+03  0.30604405374E+03  0.00000000000E+00 0. -1.
</event>
<event>
 7    1  0.7961130E-006  0.5832283E+02  0.7818608E-02  0.1444123E+00
          2   -1    0    0  502    0  0.00000000000E+00  0.00000000000E+00  0.51654708861E+03  0.51654708861E+03  0.00000000000E+00 0. -1.
          1   -1    0    0  501    0 -0.00000000000E+00 -0.00000000000E+00 -0.67004096005E+02  0.67004096005E+02  0.00000000000E+00 0. -1.
         25    2    1    2    0    0  0.69829878627E+02 -0.14370650438E+02  0.10704733013E+03  0.17934703387E+03  0.12499400037E+03 0.  0.
          2    1    1    2  501    0 -0.38158617872E+02  0.43830424671E+02 -0.87467936418E+00  0.58120145464E+02  0.00000000000E+00 0. -1.
          1    1    1    2  502    0 -0.31671260756E+02 -0.29459774233E+02  0.34337034184E+03  0.34608400528E+03  0.00000000000E+00 0. -1.
         22    1    3    3    0    0  0.88709190444E+02 -0.50749471580E+02  0.68124477083E+02  0.12282415769E+03  0.00000000000E+00 0. -1.
         22    1    3    3    0    0 -0.18879311817E+02  0.36378821142E+02  0.38922853046E+02  0.56522876179E+02  0.00000000000E+00 0. -1.
</event>
<event>
 7    1  0.7961130E-006  0.1496937E+03  0.7818608E-02  0.1347131E+00
          2   -1    0    0  502    0  0.00000000000E+00  0.00000000000E+00  0.72983700817E+03  0.72983700817E+03  0.00000000000E+00 0. -1.
          1   -1    0    0  501    0 -0.00000000000E+00 -0.00000000000E+00 -0.62655416720E+02  0.62655416720E+02  0.00000000000E+00 0. -1.
         25    2    1    2    0    0 -0.29900469545E+02  0.12561225767E+03  0.26228223370E+03  0.31794627123E+03  0.12500153565E+03 0.  0.
          2    1    1    2  501    0  0.11294253654E+02  0.34749734899E+02 -0.22002181816E+01  0.36605261933E+02  0.00000000000E+00 0. -1.
          1    1    1    2  502    0  0.18606215892E+02 -0.16036199257E+03  0.40709957593E+03  0.43794089173E+03  0.00000000000E+00 0. -1.
         22    1    3    3    0    0  0.16363824544E+01 -0.22848377990E+02  0.13693440816E+02  0.26687758348E+02  0.00000000000E+00 0.  1.
         22    1    3    3    0    0 -0.31536852000E+02  0.14846063566E+03  0.24858879289E+03  0.29125851288E+03  0.00000000000E+00 0.  1.
</event>
<event>
 7    1  0.7961130E-006  0.4529907E+03  0.7818608E-02  0.1244576E+00
          2   -1    0    0  502    0  0.00000000000E+00  0.00000000000E+00  0.13486675457E+04  0.13486675457E+04  0.00000000000E+00 0. -1.
          1   -1    0    0  501    0 -0.00000000000E+00 -0.00000000000E+00 -0.59940000930E+03  0.59940000930E+03  0.00000000000E+00 0. -1.
         25    2    1    2    0    0 -0.19870582279E+03 -0.39229055745E+03  0.62108888482E+03  0.77120185554E+03  0.12500005462E+03 0.  0.
          2    1    1    2  501    0  0.23002276670E+03  0.39254274551E+03 -0.42512232122E+03  0.62267910536E+03  0.00000000000E+00 0. -1.
          1    1    1    2  502    0 -0.31316943901E+02 -0.25218806120E+00  0.55330097284E+03  0.55418659413E+03  0.00000000000E+00 0. -1.
         22    1    3    3    0    0 -0.18044672460E+03 -0.31222344481E+03  0.56996509758E+03  0.67446624257E+03  0.00000000000E+00 0. -1.
         22    1    3    3    0    0 -0.18259098191E+02 -0.80067112643E+02  0.51123787242E+02  0.96735612965E+02  0.00000000000E+00 0. -1.
</event>
<event>
 7    1  0.7961130E-006  0.2350639E+03  0.7818608E-02  0.1226994E+00
          2   -1    0    0  502    0  0.00000000000E+00  0.00000000000E+00  0.62325290273E+03  0.62325290273E+03  0.00000000000E+00 0. -1.
          1   -1    0    0  501    0 -0.00000000000E+00 -0.00000000000E+00 -0.13027038915E+04  0.13027038915E+04  0.00000000000E+00 0. -1.
         25    2    1    2    0    0 -0.26623203825E+03 -0.53789618501E+02 -0.70421456359E+02  0.30717782360E+03  0.12500485008E+03 0.  0.
          2    1    1    2  501    0  0.20987370900E+03  0.98982868821E+02 -0.10991431292E+04  0.11233700194E+04  0.00000000000E+00 0. -1.
          1    1    1    2  502    0  0.56358329256E+02 -0.45193250319E+02  0.49011359681E+03  0.49540895120E+03  0.00000000000E+00 0. -1.
         22    1    3    3    0    0 -0.56506175620E+02 -0.65829063536E+02 -0.39649809066E+01  0.86845463686E+02  0.00000000000E+00 0.  1.
         22    1    3    3    0    0 -0.20972586263E+03  0.12039445035E+02 -0.66456475453E+02  0.22033235991E+03  0.00000000000E+00 0.  1.
</event>
<event>
 7    1  0.7961130E-006  0.1009113E+03  0.7818608E-02  0.1352818E+00
          2   -1    0    0  502    0  0.00000000000E+00  0.00000000000E+00  0.31650934204E+04  0.31650934204E+04  0.00000000000E+00 0. -1.
          1   -1    0    0  501    0 -0.00000000000E+00 -0.00000000000E+00 -0.31111644875E+04  0.31111644875E+04  0.00000000000E+00 0. -1.
         25    2    1    2    0    0  0.10309072283E+03  0.25931066883E+02 -0.28338197969E+04  0.28385664019E+04  0.12499783791E+03 0.  0.
          2    1    1    2  501    0 -0.89395300847E+02  0.23855214114E+02 -0.26697096250E+03  0.28254926273E+03  0.00000000000E+00 0. -1.
          1    1    1    2  502    0 -0.13695421979E+02 -0.49786280997E+02  0.31547196923E+04  0.31551422432E+04  0.00000000000E+00 0. -1.
         22    1    3    3    0    0 -0.41341969530E+01  0.30325550955E+02 -0.15398607651E+04  0.15401648958E+04  0.00000000000E+00 0. -1.
         22    1    3    3    0    0  0.10722491978E+03 -0.43944840723E+01 -0.12939590318E+04  0.12984015061E+04  0.00000000000E+00 0. -1.
</event>
<event>
 7    1  0.7961130E-006  0.1045283E+03  0.7818608E-02  0.1387624E+00
          2   -1    0    0  502    0  0.00000000000E+00  0.00000000000E+00  0.41978309623E+03  0.41978309623E+03  0.00000000000E+00 0. -1.
          1   -1    0    0  501    0 -0.00000000000E+00 -0.00000000000E+00 -0.92970536042E+02  0.92970536042E+02  0.00000000000E+00 0. -1.
         25    2    1    2    0    0 -0.11684927105E+03  0.10638124407E+02  0.20289422403E+03  0.26563130142E+03  0.12500800101E+03 0.  0.
          2    1    1    2  501    0  0.10040566647E+03  0.22921829515E+02 -0.14267187513E+02  0.10397240388E+03  0.00000000000E+00 0. -1.
          1    1    1    2  502    0  0.16443604572E+02 -0.33559953922E+02  0.13818552367E+03  0.14314992697E+03  0.00000000000E+00 0. -1.
         22    1    3    3    0    0 -0.26000581753E+02  0.57659062688E+02  0.11277449753E+03  0.12930075427E+03  0.00000000000E+00 0.  1.
         22    1    3    3    0    0 -0.90848689294E+02 -0.47020938282E+02  0.90119726498E+02  0.13633054715E+03  0.00000000000E+00 0.  1.
</event>
<event>
 7    1  0.7961130E-006  0.1946999E+03  0.7818608E-02  0.1283715E+00
          2   -1    0    0  502    0  0.00000000000E+00  0.00000000000E+00  0.92305024937E+03  0.92305024937E+03  0.00000000000E+00 0. -1.
          1   -1    0    0  501    0 -0.00000000000E+00 -0.00000000000E+00 -0.52092953691E+03  0.52092953691E+03  0.00000000000E+00 0. -1.
         25    2    1    2    0    0 -0.17162940436E+03  0.10067987409E+03  0.13178857447E+03  0.26941667097E+03  0.12499609893E+03 0.  0.
          2    1    1    2  501    0 -0.15768184165E+02 -0.47155648356E+02 -0.43753798220E+03  0.44035414915E+03  0.00000000000E+00 0. -1.
          1    1    1    2  502    0  0.18739758853E+03 -0.53524225734E+02  0.70787012020E+03  0.73420896616E+03  0.00000000000E+00 0. -1.
         22    1    3    3    0    0  0.59000131164E+01 -0.19561536712E+02  0.14096714025E+02  0.24822997797E+02  0.00000000000E+00 0.  1.
         22    1    3    3    0    0 -0.17752941748E+03  0.12024141080E+03  0.11769186045E+03  0.24459367317E+03  0.00000000000E+00 0.  1.
</event>
<event>
 7    1  0.7961130E-006  0.2154513E+03  0.7818608E-02  0.1280227E+00
          2   -1    0    0  502    0  0.00000000000E+00  0.00000000000E+00  0.99655399708E+03  0.99655399708E+03  0.00000000000E+00 0. -1.
          1   -1    0    0  501    0 -0.00000000000E+00 -0.00000000000E+00 -0.46586487410E+03  0.46586487410E+03  0.00000000000E+00 0. -1.
         25    2    1    2    0    0 -0.51632993043E+02 -0.17821639223E+03  0.23198939062E+03  0.32229061403E+03  0.12500045638E+03 0.  0.
          2    1    1    2  501    0  0.93860874474E+01 -0.45486354604E+02 -0.40133102576E+03  0.40400952877E+03  0.00000000000E+00 0. -1.
          1    1    1    2  502    0  0.42246905595E+02  0.22370274683E+03  0.70003075812E+03  0.73611872839E+03  0.00000000000E+00 0. -1.
         22    1    3    3    0    0 -0.64908028584E+02 -0.14511743085E+03  0.10531431855E+03  0.19069144344E+03  0.00000000000E+00 0. -1.
         22    1    3    3    0    0  0.13275035541E+02 -0.33098961384E+02  0.12667507207E+03  0.13159917058E+03  0.00000000000E+00 0. -1.
</event>
<event>
 7    1  0.7961130E-006  0.6572915E+02  0.7818608E-02  0.1490978E+00
          2   -1    0    0  502    0  0.00000000000E+00  0.00000000000E+00  0.41402108334E+03  0.41402108334E+03  0.00000000000E+00 0. -1.
          1   -1    0    0  501    0 -0.00000000000E+00 -0.00000000000E+00 -0.12938046103E+04  0.12938046103E+04  0.00000000000E+00 0. -1.
         25    2    1    2    0    0 -0.13346342411E+02  0.36321547183E+02  0.35918567042E+02  0.13569430711E+03  0.12500168750E+03 0.  0.
          2    1    1    2  501    0  0.25534368141E+02 -0.60866466270E+02 -0.12424671631E+04  0.12442191857E+04  0.00000000000E+00 0. -1.
          1    1    1    2  502    0 -0.12188025730E+02  0.24544919087E+02  0.32676506914E+03  0.32791220080E+03  0.00000000000E+00 0. -1.
         22    1    3    3    0    0 -0.58870740770E+02  0.52454088348E+02  0.64426127327E+01  0.79111963458E+02  0.00000000000E+00 0. -1.
         22    1    3    3    0    0  0.45524398360E+02 -0.16132541166E+02  0.29475954309E+02  0.56582343650E+02  0.00000000000E+00 0. -1.
</event>
<event>
 7    1  0.7961130E-006  0.1034484E+03  0.7818608E-02  0.1296660E+00
          2   -1    0    0  502    0  0.00000000000E+00  0.00000000000E+00  0.30055622959E+04  0.30055622959E+04  0.00000000000E+00 0. -1.
          1   -1    0    0  501    0 -0.00000000000E+00 -0.00000000000E+00 -0.40642228412E+03  0.40642228412E+03  0.00000000000E+00 0. -1.
         25    2    1    2    0    0  0.15401943678E+03  0.87112578948E+02 -0.31344700448E+02  0.21890318126E+03  0.12500209680E+03 0.  0.
          2    1    1    2  501    0 -0.91335114725E+02 -0.32860959775E+02 -0.27231529663E+03  0.28909784959E+03  0.00000000000E+00 0. -1.
          1    1    1    2  502    0 -0.62684322056E+02 -0.54251619172E+02  0.29028000089E+04  0.29039835492E+04  0.00000000000E+00 0. -1.
         22    1    3    3    0    0  0.39716154439E+01  0.42554589876E+02  0.28454444833E+02  0.51345129073E+02  0.00000000000E+00 0.  1.
         22    1    3    3    0    0  0.15004782134E+03  0.44557989072E+02 -0.59799145281E+02  0.16755805219E+03  0.00000000000E+00 0.  1.
</event>
<event>
 7    1  0.7961130E-006  0.1395247E+03  0.7818608E-02  0.1280150E+00
          2   -1    0    0  502    0  0.00000000000E+00  0.00000000000E+00  0.19300630038E+04  0.19300630038E+04  0.00000000000E+00 0. -1.
          1   -1    0    0  501    0 -0.00000000000E+00 -0.00000000000E+00 -0.21024741736E+03  0.21024741736E+03  0.00000000000E+00 0. -1.
         25    2    1    2    0    0 -0.17953493483E+02  0.72291558015E+02  0.14394311639E+03  0.20467676441E+03  0.12499823937E+03 0.  0.
          2    1    1    2  501    0 -0.10077954368E+02  0.71060698236E+02 -0.16954729478E+03  0.18411266432E+03  0.00000000000E+00 0. -1.
          1    1    1    2  502    0  0.28031447851E+02 -0.14335225625E+03  0.17454197648E+04  0.17515209924E+04  0.00000000000E+00 0. -1.
         22    1    3    3    0    0  0.42812826622E+02  0.72838724833E+01  0.91761488380E+02  0.10151927734E+03  0.00000000000E+00 0. -1.
         22    1    3    3    0    0 -0.60766320104E+02  0.65007685531E+02  0.52181628013E+02  0.10315748707E+03  0.00000000000E+00 0. -1.
</event>
<event>
 7    1  0.7961130E-006  0.1213940E+03  0.7818608E-02  0.1342002E+00
          2   -1    0    0  502    0  0.00000000000E+00  0.00000000000E+00  0.13568397126E+03  0.13568397126E+03  0.00000000000E+00 0. -1.
          1   -1    0    0  501    0 -0.00000000000E+00 -0.00000000000E+00 -0.14898300650E+04  0.14898300650E+04  0.00000000000E+00 0. -1.
         25    2    1    2    0    0 -0.82034660948E+02  0.17136859059E+02 -0.21562453018E+03  0.26295053981E+03  0.12500276331E+03 0.  0.
          2    1    1    2  501    0  0.11695239155E+03 -0.48731185356E+02 -0.12422249734E+04  0.12486694818E+04  0.00000000000E+00 0. -1.
          1    1    1    2  502    0 -0.34917730606E+02  0.31594326298E+02  0.10370340982E+03  0.11389401465E+03  0.00000000000E+00 0. -1.
         22    1    3    3    0    0 -0.27507858460E+02 -0.46434113866E+02 -0.36329432222E+02  0.65058718502E+02  0.00000000000E+00 0.  1.
         22    1    3    3    0    0 -0.54526802488E+02  0.63570972924E+02 -0.17929509796E+03  0.19789182131E+03  0.00000000000E+00 0.  1.
</event>
<event>
 7    1  0.7961130E-006  0.4742403E+02  0.7818608E-02  0.1544187E+00
          2   -1    0    0  502    0  0.00000000000E+00  0.00000000000E+00  0.64969204586E+03  0.64969204586E+03  0.00000000000E+00 0. -1.
          1   -1    0    0  501    0 -0.00000000000E+00 -0.00000000000E+00 -0.80164067270E+03  0.80164067270E+03  0.00000000000E+00 0. -1.
         25    2    1    2    0    0  0.29519691807E+02 -0.12232829329E+02 -0.12127370992E+02  0.12958735661E+03  0.12499902219E+03 0.  0.
          2    1    1    2  501    0  0.17549414268E+02  0.19959060218E+02 -0.72957845942E+03  0.73006237711E+03  0.00000000000E+00 0. -1.
          1    1    1    2  502    0 -0.47069106075E+02 -0.77262308884E+01  0.58975720356E+03  0.59168298484E+03  0.00000000000E+00 0. -1.
         22    1    3    3    0    0 -0.30031576397E+02 -0.46791019735E+02  0.11533573585E+02  0.56783082238E+02  0.00000000000E+00 0. -1.
         22    1    3    3    0    0  0.59551268204E+02  0.34558190406E+02 -0.23660944577E+02  0.72804274374E+02  0.00000000000E+00 0. -1.
</event>
<event>
 7    1  0.7961130E-006  0.1436474E+03  0.7818608E-02  0.1346487E+00
          2   -1    0    0  502    0  0.00000000000E+00  0.00000000000E+00  0.18384990249E+04  0.18384990249E+04  0.00000000000E+00 0. -1.
          1   -1    0    0  501    0 -0.00000000000E+00 -0.00000000000E+00 -0.21104494393E+02  0.21104494393E+02  0.00000000000E+00 0. -1.
         25    2    1    2    0    0 -0.86264947086E+02  0.11314583973E+03  0.11822305877E+04  0.11973047771E+04  0.12500377927E+03 0.  0.
          2    1    1    2  501    0  0.11556551596E+03 -0.88499611076E+02  0.44117666805E+03  0.46456907137E+03  0.00000000000E+00 0. -1.
          1    1    1    2  502    0 -0.29300568876E+02 -0.24646228651E+02  0.19398727476E+03  0.19772967075E+03  0.00000000000E+00 0. -1.
         22    1    3    3    0    0 -0.82327250803E+02  0.13979907079E+03  0.99315685428E+03  0.10063210689E+04  0.00000000000E+00 0. -1.
         22    1    3    3    0    0 -0.39376962827E+01 -0.26653231062E+02  0.18907373337E+03  0.19098370828E+03  0.00000000000E+00 0. -1.
</event>
<event>
 7    1  0.1034796E-005  0.1107232E+03  0.7818608E-02  0.1396121E+00
          2   -1    0    0  502    0  0.00000000000E+00  0.00000000000E+00  0.17280879324E+04  0.17280879324E+04  0.00000000000E+00 0. -1.
          1   -1    0    0  501    0 -0.00000000000E+00 -0.00000000000E+00 -0.13398459139E+04  0.13398459139E+04  0.00000000000E+00 0. -1.
         25    2    1    2    0    0  0.55564870018E+02  0.12853868055E+03 -0.42418872221E+03  0.46386489075E+03  0.12499967057E+03 0.  0.
          2    1    1    2  501    0 -0.24078590585E+02 -0.22505815570E+02 -0.89372454532E+03  0.89433207097E+03  0.00000000000E+00 0. -1.
          1    1    1    2  502    0 -0.31486279433E+02 -0.10603286498E+03  0.17061552861E+04  0.17097368846E+04  0.00000000000E+00 0. -1.
         22    1    3    3    0    0 -0.98796937883E+01  0.12105288035E+03 -0.28889847177E+03  0.31339070692E+03  0.00000000000E+00 0. -1.
         22    1    3    3    0    0  0.65444563806E+02  0.74858002040E+01 -0.13529025044E+03  0.15047418384E+03  0.00000000000E+00 0. -1.
</event>
<event>
 7    1  0.7961130E-006  0.1171612E+03  0.7818608E-02  0.1345656E+00
          2   -1    0    0  502    0  0.00000000000E+00  0.00000000000E+00  0.14060000795E+03  0.14060000795E+03  0.00000000000E+00 0. -1.
          1   -1    0    0  501    0 -0.00000000000E+00 -0.00000000000E+00 -0.58724197872E+03  0.58724197872E+03  0.00000000000E+00 0. -1.
         25    2    1    2    0    0  0.67796724147E+02 -0.67351159112E+02 -0.25577161930E+03  0.30029323295E+03  0.12499732028E+03 0.  0.
          2    1    1    2  501    0  0.42799384742E+02  0.20088954403E+02 -0.27611360204E+03  0.28013224494E+03  0.00000000000E+00 0. -1.
          1    1    1    2  502    0 -0.11059610889E+03  0.47262204709E+02  0.85243250566E+02  0.14741650878E+03  0.00000000000E+00 0. -1.
         22    1    3    3    0    0 -0.17344851385E+02  0.25681276426E+01 -0.13767074559E+03  0.13878282798E+03  0.00000000000E+00 0.  1.
         22    1    3    3    0    0  0.85141575532E+02 -0.69919286754E+02 -0.11810087370E+03  0.16151040497E+03  0.00000000000E+00 0.  1.
</event>
<event>
 7    1  0.7961130E-006  0.7564228E+02  0.7818608E-02  0.1426615E+00
          2   -1    0    0  502    0  0.00000000000E+00  0.00000000000E+00  0.13333847420E+04  0.13333847420E+04  0.00000000000E+00 0. -1.
          1   -1    0    0  501    0 -0.00000000000E+00 -0.00000000000E+00 -0.62322996981E+03  0.62322996981E+03  0.00000000000E+00 0. -1.
         25    2    1    2    0    0 -0.50405707218E+02  0.15402320769E+02  0.33862483672E+03  0.36478668937E+03  0.12499832756E+03 0.  0.
          2    1    1    2  501    0  0.74529558521E+02  0.14016946240E+02 -0.60742166658E+03  0.61213741178E+03  0.00000000000E+00 0. -1.
          1    1    1    2  502    0 -0.24123851303E+02 -0.29419267009E+02  0.97895160201E+03  0.97969061063E+03  0.00000000000E+00 0. -1.
         22    1    3    3    0    0 -0.44485044265E+02  0.68706917014E+02  0.19548627733E+03  0.21193028154E+03  0.00000000000E+00 0.  1.
         22    1    3    3    0    0 -0.59206629527E+01 -0.53304596245E+02  0.14313855939E+03  0.15285640783E+03  0.00000000000E+00 0.  1.
</event>
<event>
 7    1  0.7961130E-006  0.1386077E+03  0.7818608E-02  0.1406157E+00
          2   -1    0    0  502    0  0.00000000000E+00  0.00000000000E+00  0.10497772222E+03  0.10497772222E+03  0.00000000000E+00 0. -1.
          1   -1    0    0  501    0 -0.00000000000E+00 -0.00000000000E+00 -0.92776087381E+03  0.92776087381E+03  0.00000000000E+00 0. -1.
         25    2    1    2    0    0 -0.13636999557E+03 -0.57354176982E+02 -0.55647470802E+03  0.58921824552E+03  0.12501105105E+03 0.  0.
          2    1    1    2  501    0  0.12744300619E+03  0.34731494131E+02 -0.34061727083E+03  0.36533289162E+03  0.00000000000E+00 0. -1.
          1    1    1    2  502    0  0.89269893761E+01  0.22622682851E+02  0.74308827261E+02  0.78187458889E+02  0.00000000000E+00 0. -1.
         22    1    3    3    0    0  0.60544997725E+01 -0.10860147275E+02 -0.22630399451E+03  0.22664531255E+03  0.00000000000E+00 0.  1.
         22    1    3    3    0    0 -0.14242449534E+03 -0.46494029707E+02 -0.33017071350E+03  0.36257293298E+03  0.00000000000E+00 0.  1.
</event>
<event>
 7    1  0.7961130E-006  0.4289329E+02  0.7818608E-02  0.1534881E+00
          2   -1    0    0  502    0  0.00000000000E+00  0.00000000000E+00  0.25221772196E+03  0.25221772196E+03  0.00000000000E+00 0. -1.
          1   -1    0    0  501    0 -0.00000000000E+00 -0.00000000000E+00 -0.23118707425E+03  0.23118707425E+03  0.00000000000E+00 0. -1.
         25    2    1    2    0    0  0.20224686938E+02  0.68211098604E+02  0.41620703212E+02  0.14972981760E+03  0.12499977364E+03 0.  0.
          2    1    1    2  501    0 -0.15752151950E+02 -0.26955470649E+02 -0.17296004388E+03  0.17575524023E+03  0.00000000000E+00 0. -1.
          1    1    1    2  502    0 -0.44725349877E+01 -0.41255627954E+02  0.15236998838E+03  0.15791973837E+03  0.00000000000E+00 0. -1.
         22    1    3    3    0    0  0.20613230464E+02 -0.32138454398E+02 -0.60070672966E+01  0.38650619384E+02  0.00000000000E+00 0.  1.
         22    1    3    3    0    0 -0.38854352610E+00  0.10034955300E+03  0.47627770508E+02  0.11107919822E+03  0.00000000000E+00 0.  1.
</event>
<event>
 7    1  0.7961130E-006  0.9160350E+02  0.7818608E-02  0.1307332E+00
          2   -1    0    0  502    0  0.00000000000E+00  0.00000000000E+00  0.20130050956E+04  0.20130050956E+04  0.00000000000E+00 0. -1.
          1   -1    0    0  501    0 -0.00000000000E+00 -0.00000000000E+00 -0.74235447922E+02  0.74235447922E+02  0.00000000000E+00 0. -1.
         25    2    1    2    0    0 -0.74063650612E+02  0.40708520952E+02  0.76731186503E+03  0.78201049622E+03  0.12502123802E+03 0.  0.
          2    1    1    2  501    0 -0.54965706696E+01 -0.91438441168E+02 -0.32786946622E+02  0.97294319882E+02  0.00000000000E+00 0. -1.
          1    1    1    2  502    0  0.79560221282E+02  0.50729920217E+02  0.12042447293E+04  0.12079357274E+04  0.00000000000E+00 0. -1.
         22    1    3    3    0    0 -0.35464862050E+02  0.17510549408E+01  0.43627023960E+02  0.56250687580E+02  0.00000000000E+00 0.  1.
         22    1    3    3    0    0 -0.38598788562E+02  0.38957466011E+02  0.72368484107E+03  0.72575980864E+03  0.00000000000E+00 0.  1.
</event>
<event>
 7    1  0.7961130E-006  0.7596777E+02  0.7818608E-02  0.1366782E+00
          2   -1    0    0  502    0  0.00000000000E+00  0.00000000000E+00  0.12400715022E+04  0.12400715022E+04  0.00000000000E+00 0. -1.
          1   -1    0    0  501    0 -0.00000000000E+00 -0.00000000000E+00 -0.25617434699E+03  0.25617434699E+03  0.00000000000E+00 0. -1.
         25    2    1    2    0    0  0.64207210754E+01 -0.77888854707E+02 -0.82755969209E+01  0.14764658785E+03  0.12499251998E+03 0.  0.
          2    1    1    2  501    0 -0.60537034462E+02  0.49753808128E+02 -0.16876030505E+03  0.18606508142E+03  0.00000000000E+00 0. -1.
          1    1    1    2  502    0  0.54116313387E+02  0.28135046578E+02  0.11609330572E+04  0.11625341799E+04  0.00000000000E+00 0. -1.
         22    1    3    3    0    0 -0.55829676596E+02 -0.61222724551E+02 -0.75512553814E+01  0.83199737068E+02  0.00000000000E+00 0.  1.
         22    1    3    3    0    0  0.62250397672E+02 -0.16666130156E+02 -0.72434153949E+00  0.64446850779E+02  0.00000000000E+00 0.  1.
</event>
<event>
 7    1  0.7961130E-006  0.3804445E+03  0.7818608E-02  0.1107940E+00
          2   -1    0    0  502    0  0.00000000000E+00  0.00000000000E+00  0.13569905545E+04  0.13569905545E+04  0.00000000000E+00 0. -1.
          1   -1    0    0  501    0 -0.00000000000E+00 -0.00000000000E+00 -0.71332531654E+03  0.71332531654E+03  0.00000000000E+00 0. -1.
         25    2    1    2    0    0  0.23844301169E+03  0.24060466277E+03  0.48469954547E+03  0.60440425078E+03  0.12500070165E+03 0.  0.
          2    1    1    2  501    0  0.16195557568E+03 -0.68597730036E+02 -0.58106647425E+03  0.60710254864E+03  0.00000000000E+00 0. -1.
          1    1    1    2  502    0 -0.40039858737E+03 -0.17200693273E+03  0.74003216676E+03  0.85880907164E+03  0.00000000000E+00 0. -1.
         22    1    3    3    0    0  0.83320910590E+02  0.14904539334E+03  0.30749124837E+03  0.35172115552E+03  0.00000000000E+00 0.  1.
         22    1    3    3    0    0  0.15512210110E+03  0.91559269431E+02  0.17720829710E+03  0.25268309526E+03  0.00000000000E+00 0.  1.
</event>
<event>
 7    1  0.7961130E-006  0.4117221E+02  0.7818608E-02  0.1591161E+00
          2   -1    0    0  502    0  0.00000000000E+00  0.00000000000E+00  0.42190786684E+03  0.42190786684E+03  0.00000000000E+00 0. -1.
          1   -1    0    0  501    0 -0.00000000000E+00 -0.00000000000E+00 -0.25199061792E+03  0.25199061792E+03  0.00000000000E+00 0. -1.
         25    2    1    2    0    0  0.40882352007E+02  0.40124559360E+02  0.13314565497E+03  0.19140170528E+03  0.12500200149E+03 0.  0.
          2    1    1    2  501    0 -0.18346380707E+02 -0.36688659034E+02 -0.22046671005E+03  0.22425034588E+03  0.00000000000E+00 0. -1.
          1    1    1    2  502    0 -0.22535971300E+02 -0.34359003260E+01  0.25723830401E+03  0.25824643359E+03  0.00000000000E+00 0. -1.
         22    1    3    3    0    0  0.25440704275E+02  0.74030549842E+02  0.13278705928E+03  0.15414329326E+03  0.00000000000E+00 0. -1.
         22    1    3    3    0    0  0.15441647732E+02 -0.33905990482E+02  0.35859568270E+00  0.37258412018E+02  0.00000000000E+00 0. -1.
</event>
<event>
 7    1  0.7961130E-006  0.8692736E+02  0.7818608E-02  0.1324447E+00
          2   -1    0    0  502    0  0.00000000000E+00  0.00000000000E+00  0.15685597602E+04  0.15685597602E+04  0.00000000000E+00 0. -1.
          1   -1    0    0  501    0 -0.00000000000E+00 -0.00000000000E+00 -0.11841275898E+03  0.11841275898E+03  0.00000000000E+00 0. -1.
         25    2    1    2    0    0  0.13190590670E+03 -0.54719302632E+02  0.64798446776E+03  0.67520432278E+03  0.12499454685E+03 0.  0.
          2    1    1    2  501    0 -0.51144139774E+02  0.57136997266E+02 -0.88698317964E+02  0.11725080426E+03  0.00000000000E+00 0. -1.
          1    1    1    2  502    0 -0.80761766924E+02 -0.24176946338E+01  0.89086085138E+03  0.89451739209E+03  0.00000000000E+00 0. -1.
         22    1    3    3    0    0  0.12650989945E+03 -0.44087060115E+02  0.31882725971E+03  0.34583123783E+03  0.00000000000E+00 0.  1.
         22    1    3    3    0    0  0.53960072460E+01 -0.10632242517E+02  0.32915720806E+03  0.32937308495E+03  0.00000000000E+00 0.  1.
</event>
<event>
 7    1  0.7961130E-006  0.1192243E+03  0.7818608E-02  0.1326930E+00
          2   -1    0    0  502    0  0.00000000000E+00  0.00000000000E+00  0.69536681978E+03  0.69536681978E+03  0.00000000000E+00 0. -1.
          1   -1    0    0  501    0 -0.00000000000E+00 -0.00000000000E+00 -0.31362271870E+03  0.31362271870E+03  0.00000000000E+00 0. -1.
         25    2    1    2    0    0  0.40600283923E+02  0.89127935793E+02  0.93244148310E+02  0.18415052664E+03  0.12499909310E+03 0.  0.
          2    1    1    2  501    0 -0.94158928117E+02 -0.78039161533E+02 -0.25277664573E+03  0.28080606672E+03  0.00000000000E+00 0. -1.
          1    1    1    2  502    0  0.53558644194E+02 -0.11088774260E+02  0.54127659851E+03  0.54403294512E+03  0.00000000000E+00 0. -1.
         22    1    3    3    0    0  0.63942809560E+02  0.93798457360E+02  0.31249908988E+02  0.11774289919E+03  0.00000000000E+00 0. -1.
         22    1    3    3    0    0 -0.23342525637E+02 -0.46705215672E+01  0.61994239323E+02  0.66407627454E+02  0.00000000000E+00 0. -1.
</event>
<event>
 7    1  0.7961130E-006  0.3899720E+02  0.7818608E-02  0.1519362E+00
          2   -1    0    0  502    0  0.00000000000E+00  0.00000000000E+00  0.10388090617E+03  0.10388090617E+03  0.00000000000E+00 0. -1.
          1   -1    0    0  501    0 -0.00000000000E+00 -0.00000000000E+00 -0.12128649513E+04  0.12128649513E+04  0.00000000000E+00 0. -1.
         25    2    1    2    0    0 -0.66785088372E+02  0.24036114308E+02 -0.15967458099E+03  0.21484657232E+03  0.12500038002E+03 0.  0.
          2    1    1    2  501    0  0.28769126817E+02 -0.25796205704E+02 -0.10204700958E+04  0.10212014118E+04  0.00000000000E+00 0. -1.
          1    1    1    2  502    0  0.38015961554E+02  0.17600913957E+01  0.71160631731E+02  0.80697873349E+02  0.00000000000E+00 0. -1.
         22    1    3    3    0    0 -0.81998742534E+02  0.61929067446E+02 -0.10966871187E+03  0.15028715692E+03  0.00000000000E+00 0. -1.
         22    1    3    3    0    0  0.15213654163E+02 -0.37892953138E+02 -0.50005869116E+02  0.64559415398E+02  0.00000000000E+00 0. -1.
</event>
<event>
 7    1  0.9904257E-006  0.6423697E+02  0.7818608E-02  0.1421712E+00
          2   -1    0    0  502    0  0.00000000000E+00  0.00000000000E+00  0.18167516537E+04  0.18167516537E+04  0.00000000000E+00 0. -1.
          1   -1    0    0  501    0 -0.00000000000E+00 -0.00000000000E+00 -0.80283609403E+03  0.80283609403E+03  0.00000000000E+00 0. -1.
         25    2    1    2    0    0 -0.42501980523E+00 -0.33898636563E+02 -0.30182428381E+03  0.32843586498E+03  0.12499168334E+03 0.  0.
          2    1    1    2  501    0 -0.37965542372E+02  0.60156798931E+02 -0.48481021138E+03  0.49000118767E+03  0.00000000000E+00 0. -1.
          1    1    1    2  502    0  0.38390562177E+02 -0.26258162368E+02  0.18005500549E+04  0.18011506951E+04  0.00000000000E+00 0. -1.
         22    1    3    3    0    0 -0.22815566258E+02 -0.48839924222E+02 -0.45043844631E+02  0.70248389311E+02  0.00000000000E+00 0. -1.
         22    1    3    3    0    0  0.22390546453E+02  0.14941287659E+02 -0.25678043917E+03  0.25818747566E+03  0.00000000000E+00 0. -1.
</event>
<event>
 7    1  0.7961130E-006  0.9446716E+02  0.7818608E-02  0.1339589E+00
          2   -1    0    0  502    0  0.00000000000E+00  0.00000000000E+00  0.21318650419E+04  0.21318650419E+04  0.00000000000E+00 0. -1.
          1   -1    0    0  501    0 -0.00000000000E+00 -0.00000000000E+00 -0.63420066661E+02  0.63420066661E+02  0.00000000000E+00 0. -1.
         25    2    1    2    0    0 -0.10833705284E+03 -0.37703525997E+02  0.11906024669E+03  0.20725750030E+03  0.12498742415E+03 0.  0.
          2    1    1    2  501    0  0.54886191198E+02  0.68700987355E+02  0.83959236756E+02  0.12157908161E+03  0.00000000000E+00 0. -1.
          1    1    1    2  502    0  0.53450861645E+02 -0.30997461358E+02  0.18654254918E+04  0.18664485267E+04  0.00000000000E+00 0. -1.
         22    1    3    3    0    0  0.92603163044E+01  0.30042945007E+02  0.95112315915E+01  0.32845022897E+02  0.00000000000E+00 0. -1.
         22    1    3    3    0    0 -0.11759736915E+03 -0.67746471004E+02  0.10954901510E+03  0.17441247740E+03  0.00000000000E+00 0. -1.
</event>
<event>
 7    1  0.7961130E-006  0.1122722E+03  0.7818608E-02  0.1286284E+00
          2   -1    0    0  502    0  0.00000000000E+00  0.00000000000E+00  0.13660084522E+04  0.13660084522E+04  0.00000000000E+00 0. -1.
          1   -1    0    0  501    0 -0.00000000000E+00 -0.00000000000E+00 -0.12111398821E+04  0.12111398821E+04  0.00000000000E+00 0. -1.
         25    2    1    2    0    0  0.62682192905E+02 -0.26114842851E+02  0.19880393405E+03  0.24445565697E+03  0.12499808681E+03 0.  0.
          2    1    1    2  501    0 -0.37893368702E+02  0.10654269672E+03 -0.11840692708E+04  0.11894567213E+04  0.00000000000E+00 0. -1.
          1    1    1    2  502    0 -0.24788824203E+02 -0.80427853872E+02  0.11401339069E+04  0.11432359561E+04  0.00000000000E+00 0. -1.
         22    1    3    3    0    0  0.13757280026E+02 -0.31319411883E+02  0.19171938945E+03  0.19474725314E+03  0.00000000000E+00 0. -1.
         22    1    3    3    0    0  0.48924912879E+02  0.52045690320E+01  0.70845445986E+01  0.49708403829E+02  0.00000000000E+00 0. -1.
</event>
<event>
 7    1  0.7961130E-006  0.2479194E+03  0.7818608E-02  0.1268452E+00
          2   -1    0    0  502    0  0.00000000000E+00  0.00000000000E+00  0.12195634752E+04  0.12195634752E+04  0.00000000000E+00 0. -1.
          1   -1    0    0  501    0 -0.00000000000E+00 -0.00000000000E+00 -0.48317509959E+03  0.48317509959E+03  0.00000000000E+00 0. -1.
         25    2    1    2    0    0  0.87495825173E+02 -0.23449711827E+03  0.24638929570E+03  0.37279962325E+03  0.12500982425E+03 0.  0.
          2    1    1    2  501    0  0.39770816724E+02  0.21465281920E+02 -0.40176140932E+03  0.40429532054E+03  0.00000000000E+00 0. -1.
          1    1    1    2  502    0 -0.12726664190E+03  0.21303183635E+03  0.89176048920E+03  0.92564363096E+03  0.00000000000E+00 0. -1.
         22    1    3    3    0    0  0.11333895997E+03 -0.22073102660E+03  0.20369341030E+03  0.32102789809E+03  0.00000000000E+00 0. -1.
         22    1    3    3    0    0 -0.25843134799E+02 -0.13766091676E+02  0.42695885398E+02  0.51771725162E+02  0.00000000000E+00 0. -1.
</event>
<event>
 7    1  0.7961130E-006  0.7145810E+02  0.7818608E-02  0.1454626E+00
          2   -1    0    0  502    0  0.00000000000E+00  0.00000000000E+00  0.16764622222E+04  0.16764622222E+04  0.00000000000E+00 0. -1.
          1   -1    0    0  501    0 -0.00000000000E+00 -0.00000000000E+00 -0.15112825744E+03  0.15112825744E+03  0.00000000000E+00 0. -1.
         25    2    1    2    0    0 -0.91861764604E+02  0.34624156355E+02  0.29949755762E+03  0.33905872195E+03  0.12499845562E+03 0.  0.
          2    1    1    2  501    0  0.32524566219E+02  0.31046761163E+01 -0.12838951920E+03  0.13248152725E+03  0.00000000000E+00 0. -1.
          1    1    1    2  502    0  0.59337198385E+02 -0.37728832471E+02  0.13542259263E+04  0.13560502304E+04  0.00000000000E+00 0. -1.
         22    1    3    3    0    0 -0.52597175219E+01 -0.22918461701E+02  0.17624439872E+03  0.17780609830E+03  0.00000000000E+00 0. -1.
         22    1    3    3    0    0 -0.86602047082E+02  0.57542618056E+02  0.12325315890E+03  0.16125262364E+03  0.00000000000E+00 0. -1.
</event>
<event>
 7    1  0.7961130E-006  0.6693355E+02  0.7818608E-02  0.1411906E+00
          2   -1    0    0  502    0  0.00000000000E+00  0.00000000000E+00  0.87341887610E+03  0.87341887610E+03  0.00000000000E+00 0. -1.
          1   -1    0    0  501    0 -0.00000000000E+00 -0.00000000000E+00 -0.20049041713E+04  0.20049041713E+04  0.00000000000E+00 0. -1.
         25    2    1    2    0    0 -0.19465220130E+01  0.36567620479E+02  0.66009001317E+03  0.67281804634E+03  0.12499727268E+03 0.  0.
          2    1    1    2  501    0  0.49293271546E+02 -0.45330701078E+02 -0.19951701419E+04  0.19962937144E+04  0.00000000000E+00 0. -1.
          1    1    1    2  502    0 -0.47346749533E+02  0.87630805993E+01  0.20359483346E+03  0.20921128671E+03  0.00000000000E+00 0. -1.
         22    1    3    3    0    0  0.44485995551E+01  0.16652839601E+02  0.57892253270E+01  0.18183020505E+02  0.00000000000E+00 0. -1.
         22    1    3    3    0    0 -0.63951215681E+01  0.19914780877E+02  0.65430078785E+03  0.65463502584E+03  0.00000000000E+00 0. -1.
</event>
<event>
 7    1  0.7961130E-006  0.9156472E+02  0.7818608E-02  0.1451562E+00
          2   -1    0    0  502    0  0.00000000000E+00  0.00000000000E+00  0.55369551639E+03  0.55369551639E+03  0.00000000000E+00 0. -1.
          1   -1    0    0  501    0 -0.00000000000E+00 -0.00000000000E+00 -0.90823093001E+03  0.90823093001E+03  0.00000000000E+00 0. -1.
         25    2    1    2    0    0 -0.10444187051E+03 -0.52416804090E+02 -0.65340287746E+03  0.67543746853E+03  0.12499931182E+03 0.  0.
          2    1    1    2  501    0  0.20585945747E+02  0.16007777026E+02 -0.23924714134E+03  0.24066413262E+03  0.00000000000E+00 0. -1.
          1    1    1    2  502    0  0.83855924765E+02  0.36409027064E+02  0.53811460519E+03  0.54582484524E+03  0.00000000000E+00 0. -1.
         22    1    3    3    0    0 -0.35653762800E+02  0.18879037056E+02 -0.41927698845E+03  0.42121348730E+03  0.00000000000E+00 0.  1.
         22    1    3    3    0    0 -0.68788107712E+02 -0.71295841146E+02 -0.23412588901E+03  0.25422398123E+03  0.00000000000E+00 0.  1.
</event>
<event>
 7    1  0.7961130E-006  0.1562183E+03  0.7818608E-02  0.1307660E+00
          2   -1    0    0  502    0  0.00000000000E+00  0.00000000000E+00  0.55214654031E+02  0.55214654031E+02  0.00000000000E+00 0. -1.
          1   -1    0    0  501    0 -0.00000000000E+00 -0.00000000000E+00 -0.14645514566E+04  0.14645514566E+04  0.00000000000E+00 0. -1.
         25    2    1    2    0    0  0.13192390583E+03 -0.26349831416E+02 -0.58789751817E+03  0.61591120882E+03  0.12499957897E+03 0.  0.
          2    1    1    2  501    0  0.13612503700E+02 -0.47716915939E+02 -0.69644086273E+03  0.69820633025E+03  0.00000000000E+00 0. -1.
          1    1    1    2  502    0 -0.14553640953E+03  0.74066747354E+02 -0.12499842167E+03  0.20564857155E+03  0.00000000000E+00 0. -1.
         22    1    3    3    0    0  0.91858049786E+02 -0.70664610490E+02 -0.46552852113E+03  0.47973762878E+03  0.00000000000E+00 0. -1.
         22    1    3    3    0    0  0.40065856040E+02  0.44314779074E+02 -0.12236899704E+03  0.13617358004E+03  0.00000000000E+00 0. -1.
</event>
<event>
 7    1  0.7961130E-006  0.1342211E+03  0.7818608E-02  0.1329653E+00
          2   -1    0    0  502    0  0.00000000000E+00  0.00000000000E+00  0.64900138840E+03  0.64900138840E+03  0.00000000000E+00 0. -1.
          1   -1    0    0  501    0 -0.00000000000E+00 -0.00000000000E+00 -0.12799983710E+03  0.12799983710E+03  0.00000000000E+00 0. -1.
         25    2    1    2    0    0 -0.14036751327E+03 -0.56898857502E+02  0.32190067004E+03  0.37707708675E+03  0.12500627669E+03 0.  0.
          2    1    1    2  501    0  0.13242300476E+03  0.10138369515E+02 -0.53299039637E+02  0.14310634631E+03  0.00000000000E+00 0. -1.
          1    1    1    2  502    0  0.79445085100E+01  0.46760487987E+02  0.25239992090E+03  0.25681779245E+03  0.00000000000E+00 0. -1.
         22    1    3    3    0    0 -0.13797930621E+03 -0.21353999461E+00  0.20463150446E+03  0.24680434996E+03  0.00000000000E+00 0.  1.
         22    1    3    3    0    0 -0.23882070575E+01 -0.56685317508E+02  0.11726916557E+03  0.13027273678E+03  0.00000000000E+00 0.  1.
</event>
<event>
 7    1  0.7961130E-006  0.1276322E+03  0.7818608E-02  0.1310656E+00
          2   -1    0    0  502    0  0.00000000000E+00  0.00000000000E+00  0.26668215617E+03  0.26668215617E+03  0.00000000000E+00 0. -1.
          1   -1    0    0  501    0 -0.00000000000E+00 -0.00000000000E+00 -0.12997144044E+04  0.12997144044E+04  0.00000000000E+00 0. -1.
         25    2    1    2    0    0 -0.71099995205E+02 -0.31783800591E+02 -0.10172255302E+03  0.17899229322E+03  0.12500137576E+03 0.  0.
          2    1    1    2  501    0  0.10661557731E+03  0.79026341649E+02 -0.11516518145E+04  0.11592730248E+04  0.00000000000E+00 0. -1.
          1    1    1    2  502    0 -0.35515582110E+02 -0.47242541058E+02  0.22034211937E+03  0.22813124255E+03  0.00000000000E+00 0. -1.
         22    1    3    3    0    0 -0.24956910842E+02  0.10491500957E+02 -0.11230572518E+03  0.11552270296E+03  0.00000000000E+00 0.  1.
         22    1    3    3    0    0 -0.46143084363E+02 -0.42275301548E+02  0.10583172155E+02  0.63469590265E+02  0.00000000000E+00 0.  1.
</event>
<event>
 7    1  0.7961130E-006  0.1029619E+03  0.7818608E-02  0.1348039E+00
          2   -1    0    0  502    0  0.00000000000E+00  0.00000000000E+00  0.83511542244E+03  0.83511542244E+03  0.00000000000E+00 0. -1.
          1   -1    0    0  501    0 -0.00000000000E+00 -0.00000000000E+00 -0.90825308569E+02  0.90825308569E+02  0.00000000000E+00 0. -1.
         25    2    1    2    0    0  0.15727912938E+01 -0.63508047286E+02  0.16000182610E+03  0.21274941957E+03  0.12500394166E+03 0.  0.
          2    1    1    2  501    0  0.32134408136E+02 -0.41784335948E+02 -0.48011071397E+02  0.71299466292E+02  0.00000000000E+00 0. -1.
          1    1    1    2  502    0 -0.33707199430E+02  0.10529238323E+03  0.63229935918E+03  0.64189184515E+03  0.00000000000E+00 0. -1.
         22    1    3    3    0    0 -0.28119465090E+02 -0.24983962206E+02 -0.74766906699E+01  0.38351057193E+02  0.00000000000E+00 0.  1.
         22    1    3    3    0    0  0.29692256384E+02 -0.38524085080E+02  0.16747851677E+03  0.17439836237E+03  0.00000000000E+00 0.  1.
</event>
<event>
 7    1  0.7961130E-006  0.4333535E+02  0.7818608E-02  0.1514261E+00
          2   -1    0    0  502    0  0.00000000000E+00  0.00000000000E+00  0.43065376563E+03  0.43065376563E+03  0.00000000000E+00 0. -1.
          1   -1    0    0  501    0 -0.00000000000E+00 -0.00000000000E+00 -0.87100849981E+02  0.87100849981E+02  0.00000000000E+00 0. -1.
         25    2    1    2    0    0  0.69684889385E+02  0.25680766023E+02  0.36069035532E+02  0.14980520223E+03  0.12500055096E+03 0.  0.
          2    1    1    2  501    0 -0.35588080935E+02 -0.16014710372E+02 -0.16255769178E+02  0.42275672490E+02  0.00000000000E+00 0. -1.
          1    1    1    2  502    0 -0.34096808450E+02 -0.96660556504E+01  0.32373964929E+03  0.32567374089E+03  0.00000000000E+00 0. -1.
         22    1    3    3    0    0 -0.36653126551E+02  0.76391504683E+01  0.11733576956E+02  0.39236273192E+02  0.00000000000E+00 0. -1.
         22    1    3    3    0    0  0.10633801594E+03  0.18041615554E+02  0.24335458576E+02  0.11056892904E+03  0.00000000000E+00 0. -1.
</event>
<event>
 7    1  0.7961130E-006  0.1190108E+03  0.7818608E-02  0.1293537E+00
          2   -1    0    0  502    0  0.00000000000E+00  0.00000000000E+00  0.37780439225E+03  0.37780439225E+03  0.00000000000E+00 0. -1.
          1   -1    0    0  501    0 -0.00000000000E+00 -0.00000000000E+00 -0.39834887711E+03  0.39834887711E+03  0.00000000000E+00 0. -1.
         25    2    1    2    0    0  0.14334482788E+03  0.19640877989E+02  0.23589978283E+03  0.30365621936E+03  0.12499955298E+03 0.  0.
          2    1    1    2  501    0 -0.59220250568E+02  0.44674525946E+02 -0.33342627107E+03  0.34157858479E+03  0.00000000000E+00 0. -1.
          1    1    1    2  502    0 -0.84124577309E+02 -0.64315403936E+02  0.76982003372E+02  0.13091846521E+03  0.00000000000E+00 0. -1.
         22    1    3    3    0    0 -0.16071249608E+02  0.14857356684E+02  0.40662256969E+01  0.22261183774E+02  0.00000000000E+00 0.  1.
         22    1    3    3    0    0  0.15941607748E+03  0.47835213057E+01  0.23183355714E+03  0.28139503558E+03  0.00000000000E+00 0.  1.
</event>
<event>
 7    1  0.7961130E-006  0.1168578E+03  0.7818608E-02  0.1402979E+00
          2   -1    0    0  502    0  0.00000000000E+00  0.00000000000E+00  0.51177048184E+03  0.51177048184E+03  0.00000000000E+00 0. -1.
          1   -1    0    0  501    0 -0.00000000000E+00 -0.00000000000E+00 -0.15626699851E+03  0.15626699851E+03  0.00000000000E+00 0. -1.
         25    2    1    2    0    0 -0.61957657172E+02 -0.94460571360E+02  0.34131002202E+03  0.38062803089E+03  0.12499446367E+03 0.  0.
          2    1    1    2  501    0 -0.28024623654E+02  0.94567920286E+01 -0.10889700324E+03  0.11284222508E+03  0.00000000000E+00 0. -1.
          1    1    1    2  502    0  0.89982280826E+02  0.85003779331E+02  0.12309046455E+03  0.17456722438E+03  0.00000000000E+00 0. -1.
         22    1    3    3    0    0  0.14011941686E+02  0.31044090346E+01  0.16304118140E+03  0.16367161849E+03  0.00000000000E+00 0.  1.
         22    1    3    3    0    0 -0.75969598858E+02 -0.97564980394E+02  0.17826884062E+03  0.21695641241E+03  0.00000000000E+00 0.  1.
</event>
<event>
 7    1  0.7961130E-006  0.7853714E+02  0.7818608E-02  0.1365757E+00
          2   -1    0    0  502    0  0.00000000000E+00  0.00000000000E+00  0.78415015758E+03  0.78415015758E+03  0.00000000000E+00 0. -1.
          1   -1    0    0  501    0 -0.00000000000E+00 -0.00000000000E+00 -0.71809958715E+03  0.71809958715E+03  0.00000000000E+00 0. -1.
         25    2    1    2    0    0 -0.15423296306E+02  0.87167449362E+02  0.38221700599E+02  0.15785153839E+03  0.12498066841E+03 0.  0.
          2    1    1    2  501    0  0.61405947965E+02 -0.49401717051E+02 -0.65462658258E+03  0.65935360976E+03  0.00000000000E+00 0. -1.
          1    1    1    2  502    0 -0.45982651659E+02 -0.37765732311E+02  0.68245545240E+03  0.68504459658E+03  0.00000000000E+00 0. -1.
         22    1    3    3    0    0 -0.62827120773E+02  0.31643545728E+02  0.46576762283E+02  0.84367978970E+02  0.00000000000E+00 0. -1.
         22    1    3    3    0    0  0.47403824467E+02  0.55523903634E+02 -0.83550616837E+01  0.73483559417E+02  0.00000000000E+00 0. -1.
</event>
<event>
 7    1  0.7961130E-006  0.5944007E+02  0.7818608E-02  0.1476338E+00
          2   -1    0    0  502    0  0.00000000000E+00  0.00000000000E+00  0.19379812414E+04  0.19379812414E+04  0.00000000000E+00 0. -1.
          1   -1    0    0  501    0 -0.00000000000E+00 -0.00000000000E+00 -0.12126739889E+03  0.12126739889E+03  0.00000000000E+00 0. -1.
         25    2    1    2    0    0  0.35466850034E+02 -0.48427477989E+01  0.35018343665E+03  0.37354065860E+03  0.12499133835E+03 0.  0.
          2    1    1    2  501    0  0.14034394984E+02 -0.30515156025E+02 -0.10641339564E+03  0.11158830477E+03  0.00000000000E+00 0. -1.
          1    1    1    2  502    0 -0.49501245018E+02  0.35357903824E+02  0.15729438015E+04  0.15741196769E+04  0.00000000000E+00 0. -1.
         22    1    3    3    0    0  0.76479263564E+02 -0.29696975835E+02  0.21800960301E+03  0.23293598935E+03  0.00000000000E+00 0.  1.
         22    1    3    3    0    0 -0.41012413530E+02  0.24854228036E+02  0.13217383364E+03  0.14060466925E+03  0.00000000000E+00 0.  1.
</event>
<event>
 7    1  0.7961130E-006  0.1518281E+03  0.7818608E-02  0.1398304E+00
          2   -1    0    0  502    0  0.00000000000E+00  0.00000000000E+00  0.34732658576E+03  0.34732658576E+03  0.00000000000E+00 0. -1.
          1   -1    0    0  501    0 -0.00000000000E+00 -0.00000000000E+00 -0.27825254759E+03  0.27825254759E+03  0.00000000000E+00 0. -1.
         25    2    1    2    0    0 -0.53556209399E+02 -0.14942409448E+03  0.78783227185E+02  0.21685774389E+03  0.12499862649E+03 0.  0.
          2    1    1    2  501    0  0.29990210128E+02  0.14779575878E+03 -0.18112310961E+03  0.23568746223E+03  0.00000000000E+00 0. -1.
          1    1    1    2  502    0  0.23565999271E+02  0.16283357016E+01  0.17141392059E+03  0.17303392723E+03  0.00000000000E+00 0. -1.
         22    1    3    3    0    0 -0.44964079851E+02 -0.16953537736E+03  0.83849603770E+02  0.19440876705E+03  0.00000000000E+00 0.  1.
         22    1    3    3    0    0 -0.85921295480E+01  0.20111282883E+02 -0.50663765848E+01  0.22448976838E+02  0.00000000000E+00 0.  1.
</event>
<event>
 7    1  0.7961130E-006  0.8411624E+02  0.7818608E-02  0.1328438E+00
          2   -1    0    0  502    0  0.00000000000E+00  0.00000000000E+00  0.10059105019E+04  0.10059105019E+04  0.00000000000E+00 0. -1.
          1   -1    0    0  501    0 -0.00000000000E+00 -0.00000000000E+00 -0.41156249432E+03  0.41156249432E+03  0.00000000000E+00 0. -1.
         25    2    1    2    0    0 -0.97162977940E+02  0.22678468924E+02  0.15528622532E+02  0.16068181467E+03  0.12499020046E+03 0.  0.
          2    1    1    2  501    0  0.27916463957E+02 -0.71222067799E+02 -0.33268782320E+03  0.34136944738E+03  0.00000000000E+00 0. -1.
          1    1    1    2  502    0  0.69246513983E+02  0.48543598875E+02  0.91150720827E+03  0.91542173418E+03  0.00000000000E+00 0. -1.
         22    1    3    3    0    0 -0.71473022073E+02  0.34430540005E+02 -0.46899083419E+02  0.92159530136E+02  0.00000000000E+00 0. -1.
         22    1    3    3    0    0 -0.25689955867E+02 -0.11752071081E+02  0.62427705951E+02  0.68522284531E+02  0.00000000000E+00 0. -1.
</event>
<event>
 7    1  0.7961130E-006  0.2168795E+03  0.7818608E-02  0.1168668E+00
          2   -1    0    0  502    0  0.00000000000E+00  0.00000000000E+00  0.20399240139E+04  0.20399240139E+04  0.00000000000E+00 0. -1.
          1   -1    0    0  501    0 -0.00000000000E+00 -0.00000000000E+00 -0.13496590927E+04  0.13496590927E+04  0.00000000000E+00 0. -1.
         25    2    1    2    0    0  0.26039258792E+03  0.97858430944E+02  0.18980814738E+03  0.35921078483E+03  0.12499873109E+03 0.  0.
          2    1    1    2  501    0 -0.13195091406E+03 -0.17121958713E+03 -0.12525854172E+04  0.12711008685E+04  0.00000000000E+00 0. -1.
          1    1    1    2  502    0 -0.12844167386E+03  0.73361156185E+02  0.17530421910E+04  0.17592714532E+04  0.00000000000E+00 0. -1.
         22    1    3    3    0    0  0.15715561512E+03  0.82625159403E+02  0.18247056310E+03  0.25459833214E+03  0.00000000000E+00 0.  1.
         22    1    3    3    0    0  0.10323697279E+03  0.15233271541E+02  0.73375842769E+01  0.10461245268E+03  0.00000000000E+00 0.  1.
</event>
<event>
 7    1  0.7961130E-006  0.6304736E+02  0.7818608E-02  0.1404387E+00
          2   -1    0    0  502    0  0.00000000000E+00  0.00000000000E+00  0.60188400981E+03  0.60188400981E+03  0.00000000000E+00 0. -1.
          1   -1    0    0  501    0 -0.00000000000E+00 -0.00000000000E+00 -0.10267421620E+04  0.10267421620E+04  0.00000000000E+00 0. -1.
         25    2    1    2    0    0  0.41609083579E+02 -0.10083823355E+03  0.19955195786E+03  0.25950981119E+03  0.12499877215E+03 0.  0.
          2    1    1    2  501    0 -0.29707820970E+01  0.62805342455E+02 -0.99379089677E+03  0.99577792860E+03  0.00000000000E+00 0. -1.
          1    1    1    2  502    0 -0.38638301482E+02  0.38032891095E+02  0.36938078677E+03  0.37333843197E+03  0.00000000000E+00 0. -1.
         22    1    3    3    0    0 -0.87669698745E+01 -0.47199543073E+02  0.17572210361E+03  0.18216178063E+03  0.00000000000E+00 0.  1.
         22    1    3    3    0    0  0.50376053454E+02 -0.53638690477E+02  0.23829854249E+02  0.77348030558E+02  0.00000000000E+00 0.  1.
</event>
<event>
 7    1  0.7961130E-006  0.9583682E+02  0.7818608E-02  0.1470806E+00
          2   -1    0    0  502    0  0.00000000000E+00  0.00000000000E+00  0.20199106751E+03  0.20199106751E+03  0.00000000000E+00 0. -1.
          1   -1    0    0  501    0 -0.00000000000E+00 -0.00000000000E+00 -0.11450137431E+04  0.11450137431E+04  0.00000000000E+00 0. -1.
         25    2    1    2    0    0  0.70198736588E+02 -0.71152110031E+02 -0.61888782637E+03  0.63924661551E+03  0.12499443360E+03 0.  0.
          2    1    1    2  501    0 -0.50502690939E+02  0.80187501266E+02 -0.51096349048E+03  0.51967705910E+03  0.00000000000E+00 0. -1.
          1    1    1    2  502    0 -0.19696045649E+02 -0.90353912345E+01  0.18682864128E+03  0.18808113598E+03  0.00000000000E+00 0. -1.
         22    1    3    3    0    0  0.48542714186E+02  0.29673215236E+02 -0.22553253957E+03  0.23259798195E+03  0.00000000000E+00 0. -1.
         22    1    3    3    0    0  0.21656022402E+02 -0.10082532527E+03 -0.39335528680E+03  0.40664863356E+03  0.00000000000E+00 0. -1.
</event>
<event>
 7    1  0.7961130E-006  0.5790797E+02  0.7818608E-02  0.1448153E+00
          2   -1    0    0  502    0  0.00000000000E+00  0.00000000000E+00  0.14145787341E+04  0.14145787341E+04  0.00000000000E+00 0. -1.
          1   -1    0    0  501    0 -0.00000000000E+00 -0.00000000000E+00 -0.78251617527E+03  0.78251617527E+03  0.00000000000E+00 0. -1.
         25    2    1    2    0    0  0.48547498267E+02 -0.70718762729E+02 -0.29013554195E+02  0.15435445566E+03  0.12500203465E+03 0.  0.
          2    1    1    2  501    0 -0.85898662501E+01  0.56890337273E+02 -0.68930275123E+03  0.69169977529E+03  0.00000000000E+00 0. -1.
          1    1    1    2  502    0 -0.39957632017E+02  0.13828425456E+02  0.13503788643E+04  0.13510406784E+04  0.00000000000E+00 0. -1.
         22    1    3    3    0    0 -0.21537882822E+02 -0.61152636684E+02 -0.48519041621E+02  0.80979150216E+02  0.00000000000E+00 0.  1.
         22    1    3    3    0    0  0.70085381089E+02 -0.95661260452E+01  0.19505487426E+02  0.73375305448E+02  0.00000000000E+00 0.  1.
</event>
<event>
 7    1  0.7961130E-006  0.5867964E+02  0.7818608E-02  0.1410191E+00
          2   -1    0    0  502    0  0.00000000000E+00  0.00000000000E+00  0.21205789484E+03  0.21205789484E+03  0.00000000000E+00 0. -1.
          1   -1    0    0  501    0 -0.00000000000E+00 -0.00000000000E+00 -0.26265878925E+03  0.26265878925E+03  0.00000000000E+00 0. -1.
         25    2    1    2    0    0 -0.10274176518E+03  0.27892645210E+02  0.45647753886E+02  0.17043103986E+03  0.12501660668E+03 0.  0.
          2    1    1    2  501    0  0.47227287631E+02 -0.31953602641E+02 -0.18828289514E+03  0.19672797977E+03  0.00000000000E+00 0. -1.
          1    1    1    2  502    0  0.55514477546E+02  0.40609574310E+01  0.92034246849E+02  0.10755766447E+03  0.00000000000E+00 0. -1.
         22    1    3    3    0    0 -0.72908414332E+02  0.17687377546E+02  0.89268564326E+02  0.11660770464E+03  0.00000000000E+00 0. -1.
         22    1    3    3    0    0 -0.29833350845E+02  0.10205267664E+02 -0.43620810440E+02  0.53823335219E+02  0.00000000000E+00 0. -1.
</event>
<event>
 7    1  0.7961130E-006  0.4496303E+02  0.7818608E-02  0.1509625E+00
          2   -1    0    0  502    0  0.00000000000E+00  0.00000000000E+00  0.39384446437E+03  0.39384446437E+03  0.00000000000E+00 0. -1.
          1   -1    0    0  501    0 -0.00000000000E+00 -0.00000000000E+00 -0.17030677948E+03  0.17030677948E+03  0.00000000000E+00 0. -1.
         25    2    1    2    0    0  0.22443101981E+02 -0.68537125573E+02  0.17944579677E+03  0.23027872259E+03  0.12500586262E+03 0.  0.
          2    1    1    2  501    0  0.40368232151E+01  0.35013047125E+02 -0.14026771184E+03  0.14462793781E+03  0.00000000000E+00 0. -1.
          1    1    1    2  502    0 -0.26479925196E+02  0.33524078448E+02  0.18435959995E+03  0.18924458346E+03  0.00000000000E+00 0. -1.
         22    1    3    3    0    0 -0.37395643803E+02 -0.61898726645E+02  0.51211351519E+02  0.88614271199E+02  0.00000000000E+00 0. -1.
         22    1    3    3    0    0  0.59838745784E+02 -0.66383989275E+01  0.12823444525E+03  0.14166445139E+03  0.00000000000E+00 0. -1.
</event>
<event>
 7    1  0.7961130E-006  0.4408542E+02  0.7818608E-02  0.1484113E+00
          2   -1    0    0  502    0  0.00000000000E+00  0.00000000000E+00  0.14923178640E+04  0.14923178640E+04  0.00000000000E+00 0. -1.
          1   -1    0    0  501    0 -0.00000000000E+00 -0.00000000000E+00 -0.86511864318E+02  0.86511864318E+02  0.00000000000E+00 0. -1.
         25    2    1    2    0    0 -0.24516615498E+02  0.25023263162E+02  0.12389964327E+04  0.12457786172E+04  0.12499989890E+03 0.  0.
          2    1    1    2  501    0  0.28304016571E+02  0.33799512271E+02 -0.73451054242E+02  0.85665522546E+02  0.00000000000E+00 0. -1.
          1    1    1    2  502    0 -0.37874010723E+01 -0.58822775434E+02  0.24026062124E+03  0.24738558857E+03  0.00000000000E+00 0. -1.
         22    1    3    3    0    0 -0.55598626952E+02  0.60397195254E+02  0.84497609226E+03  0.84895443047E+03  0.00000000000E+00 0. -1.
         22    1    3    3    0    0  0.31082011453E+02 -0.35373932091E+02  0.39402034047E+03  0.39682418678E+03  0.00000000000E+00 0. -1.
</event>
<event>
 7    1  0.7961130E-006  0.6965271E+02  0.7818608E-02  0.1411000E+00
          2   -1    0    0  502    0  0.00000000000E+00  0.00000000000E+00  0.18191312918E+04  0.18191312918E+04  0.00000000000E+00 0. -1.
          1   -1    0    0  501    0 -0.00000000000E+00 -0.00000000000E+00 -0.15357076711E+03  0.15357076711E+03  0.00000000000E+00 0. -1.
         25    2    1    2    0    0  0.71200946934E+01  0.24629537789E+02  0.11252838028E+04  0.11324946220E+04  0.12499248763E+03 0.  0.
          2    1    1    2  501    0  0.40691392799E+01 -0.69864966100E+02 -0.14096117692E+03  0.15737765020E+03  0.00000000000E+00 0. -1.
          1    1    1    2  502    0 -0.11189233973E+02  0.45235428311E+02  0.68123789881E+03  0.68282978677E+03  0.00000000000E+00 0. -1.
         22    1    3    3    0    0 -0.13846329627E+02 -0.43358974328E+02  0.68393381029E+03  0.68544669986E+03  0.00000000000E+00 0. -1.
         22    1    3    3    0    0  0.20966424321E+02  0.67988512116E+02  0.44134999254E+03  0.44704792209E+03  0.00000000000E+00 0. -1.
</event>
<event>
 7    1  0.7961130E-006  0.6790404E+02  0.7818608E-02  0.1372728E+00
          2   -1    0    0  502    0  0.00000000000E+00  0.00000000000E+00  0.75214911599E+03  0.75214911599E+03  0.00000000000E+00 0. -1.
          1   -1    0    0  501    0 -0.00000000000E+00 -0.00000000000E+00 -0.13649869519E+04  0.13649869519E+04  0.00000000000E+00 0. -1.
         25    2    1    2    0    0 -0.11285818236E+03 -0.41503541853E+02 -0.43887036545E+02  0.17891349101E+03  0.12499780789E+03 0.  0.
          2    1    1    2  501    0  0.48140712545E+02  0.47087021483E+02 -0.12511383930E+04  0.12529493183E+04  0.00000000000E+00 0. -1.
          1    1    1    2  502    0  0.64717469813E+02 -0.55834796304E+01  0.68218759358E+03  0.68527325862E+03  0.00000000000E+00 0. -1.
         22    1    3    3    0    0 -0.68903437365E+02 -0.60188047660E+01  0.38393483957E+02  0.79107327739E+02  0.00000000000E+00 0.  1.
         22    1    3    3    0    0 -0.43954744993E+02 -0.35484737087E+02 -0.82280520502E+02  0.99806163274E+02  0.00000000000E+00 0.  1.
</event>
<event>
 7    1  0.7961130E-006  0.7203153E+02  0.7818608E-02  0.1510299E+00
          2   -1    0    0  502    0  0.00000000000E+00  0.00000000000E+00  0.64909712041E+03  0.64909712041E+03  0.00000000000E+00 0. -1.
          1   -1    0    0  501    0 -0.00000000000E+00 -0.00000000000E+00 -0.18792874620E+03  0.18792874620E+03  0.00000000000E+00 0. -1.
         25    2    1    2    0    0  0.45715351290E+02 -0.29575553809E+02  0.20716881251E+02  0.13790808707E+03  0.12499937833E+03 0.  0.
          2    1    1    2  501    0 -0.56314294558E+02  0.48740037248E+02 -0.11837875416E+03  0.13985857299E+03  0.00000000000E+00 0. -1.
          1    1    1    2  502    0  0.10598943267E+02 -0.19164483439E+02  0.55883024712E+03  0.55925920656E+03  0.00000000000E+00 0. -1.
         22    1    3    3    0    0  0.17765803418E+02 -0.56206605035E+02 -0.36169043520E+02  0.69159279419E+02  0.00000000000E+00 0.  1.
         22    1    3    3    0    0  0.27949547872E+02  0.26631051226E+02  0.56885924771E+02  0.68748807646E+02  0.00000000000E+00 0.  1.
</event>
<event>
 7    1  0.7961130E-006  0.1376533E+03  0.7818608E-02  0.1381869E+00
          2   -1    0    0  502    0  0.00000000000E+00  0.00000000000E+00  0.13498376864E+03  0.13498376864E+03  0.00000000000E+00 0. -1.
          1   -1    0    0  501    0 -0.00000000000E+00 -0.00000000000E+00 -0.12248859301E+04  0.12248859301E+04  0.00000000000E+00 0. -1.
         25    2    1    2    0    0 -0.55668055707E+02  0.12782779315E+03 -0.23977096630E+03  0.30422010804E+03  0.12498352181E+03 0.  0.
          2    1    1    2  501    0 -0.25003687234E+02 -0.16088687280E+02 -0.90632782350E+03  0.90681539129E+03  0.00000000000E+00 0. -1.
          1    1    1    2  502    0  0.80671742941E+02 -0.11173910587E+03  0.56196628309E+02  0.14883419944E+03  0.00000000000E+00 0. -1.
         22    1    3    3    0    0 -0.17000344879E+02  0.30912342000E+02  0.72937062236E+01  0.36024752107E+02  0.00000000000E+00 0. -1.
         22    1    3    3    0    0 -0.38667710828E+02  0.96915451152E+02 -0.24706467253E+03  0.26819535593E+03  0.00000000000E+00 0. -1.
</event>
<event>
 7    1  0.7961130E-006  0.9263349E+02  0.7818608E-02  0.1426373E+00
          2   -1    0    0  502    0  0.00000000000E+00  0.00000000000E+00  0.15954962744E+04  0.15954962744E+04  0.00000000000E+00 0. -1.
          1   -1    0    0  501    0 -0.00000000000E+00 -0.00000000000E+00 -0.49577521335E+02  0.49577521335E+02  0.00000000000E+00 0. -1.
         25    2    1    2    0    0 -0.38801076282E+02 -0.51435605430E+02  0.78710488925E+03  0.79956794854E+03  0.12499461037E+03 0.  0.
          2    1    1    2  501    0  0.48854034779E+02  0.80891732686E+02  0.88685098879E+01  0.94914907147E+02  0.00000000000E+00 0. -1.
          1    1    1    2  502    0 -0.10052958496E+02 -0.29456127257E+02  0.74994535393E+03  0.75059094005E+03  0.00000000000E+00 0. -1.
         22    1    3    3    0    0 -0.17127220385E+02 -0.62547769940E+02  0.76139874931E+03  0.76415549508E+03  0.00000000000E+00 0. -1.
         22    1    3    3    0    0 -0.21673855897E+02  0.11112164511E+02  0.25706139938E+02  0.35412453460E+02  0.00000000000E+00 0. -1.
</event>
<event>
 7    1  0.7961130E-006  0.6132706E+02  0.7818608E-02  0.1450522E+00
          2   -1    0    0  502    0  0.00000000000E+00  0.00000000000E+00  0.35245280882E+03  0.35245280882E+03  0.00000000000E+00 0. -1.
          1   -1    0    0  501    0 -0.00000000000E+00 -0.00000000000E+00 -0.12931036819E+03  0.12931036819E+03  0.00000000000E+00 0. -1.
         25    2    1    2    0    0 -0.25732333790E+02 -0.85582163363E+01  0.79588653453E+02  0.15064812982E+03  0.12500043677E+03 0.  0.
          2    1    1    2  501    0 -0.32960652304E+02 -0.21281628211E+02 -0.84811739215E+02  0.93447008558E+02  0.00000000000E+00 0. -1.
          1    1    1    2  502    0  0.58692986095E+02  0.29839844548E+02  0.22836552639E+03  0.23766803862E+03  0.00000000000E+00 0. -1.
         22    1    3    3    0    0  0.29977266386E+02  0.24671992057E+02  0.76403901677E+02  0.85702391352E+02  0.00000000000E+00 0. -1.
         22    1    3    3    0    0 -0.55709600177E+02 -0.33230208393E+02  0.31847517762E+01  0.64945738471E+02  0.00000000000E+00 0. -1.
</event>
<event>
 7    1  0.7961130E-006  0.1020792E+03  0.7818608E-02  0.1346998E+00
          2   -1    0    0  502    0  0.00000000000E+00  0.00000000000E+00  0.68485331842E+03  0.68485331842E+03  0.00000000000E+00 0. -1.
          1   -1    0    0  501    0 -0.00000000000E+00 -0.00000000000E+00 -0.16869354851E+03  0.16869354851E+03  0.00000000000E+00 0. -1.
         25    2    1    2    0    0  0.10811985541E+03  0.88237507157E+02  0.47290099938E+02  0.19322809346E+03  0.12499992698E+03 0.  0.
          2    1    1    2  501    0 -0.53469296565E+02 -0.43217254957E+01 -0.83334592409E+02  0.99107503643E+02  0.00000000000E+00 0. -1.
          1    1    1    2  502    0 -0.54650558846E+02 -0.83915781661E+02  0.55220426238E+03  0.56121126983E+03  0.00000000000E+00 0. -1.
         22    1    3    3    0    0  0.10502877801E+03  0.67429533462E+02 -0.16649755170E+02  0.12591664124E+03  0.00000000000E+00 0. -1.
         22    1    3    3    0    0  0.30910773994E+01  0.20807973694E+02  0.63939855108E+02  0.67311452220E+02  0.00000000000E+00 0. -1.
</event>
<event>
 7    1  0.7961130E-006  0.1062115E+03  0.7818608E-02  0.1349110E+00
          2   -1    0    0  502    0  0.00000000000E+00  0.00000000000E+00  0.20382032032E+03  0.20382032032E+03  0.00000000000E+00 0. -1.
          1   -1    0    0  501    0 -0.00000000000E+00 -0.00000000000E+00 -0.34544191684E+03  0.34544191684E+03  0.00000000000E+00 0. -1.
         25    2    1    2    0    0  0.63436939988E+02  0.92786513405E+02  0.66736275926E+02  0.18086744377E+03  0.12500287703E+03 0.  0.
          2    1    1    2  501    0 -0.48920706801E+02  0.13056456936E+02 -0.24899675070E+03  0.25409267695E+03  0.00000000000E+00 0. -1.
          1    1    1    2  502    0 -0.14516233188E+02 -0.10584297034E+03  0.40638878251E+02  0.11430211644E+03  0.00000000000E+00 0. -1.
         22    1    3    3    0    0 -0.12870359708E+02  0.10015231825E+02  0.66312425747E+02  0.68288277442E+02  0.00000000000E+00 0. -1.
         22    1    3    3    0    0  0.76307299696E+02  0.82771281580E+02  0.42385017886E+00  0.11257916632E+03  0.00000000000E+00 0. -1.
</event>
<event>
 7    1  0.7961130E-006  0.8425254E+02  0.7818608E-02  0.1474844E+00
          2   -1    0    0  502    0  0.00000000000E+00  0.00000000000E+00  0.19861258512E+04  0.19861258512E+04  0.00000000000E+00 0. -1.
          1   -1    0    0  501    0 -0.00000000000E+00 -0.00000000000E+00 -0.27542596978E+03  0.27542596978E+03  0.00000000000E+00 0. -1.
         25    2    1    2    0    0  0.87354808967E+02  0.53533996451E+02  0.60150032161E+03  0.62283549182E+03  0.12499864622E+03 0.  0.
          2    1    1    2  501    0 -0.23920284821E+02 -0.11736985836E+01 -0.26298274908E+03  0.26407098271E+03  0.00000000000E+00 0. -1.
          1    1    1    2  502    0 -0.63434524146E+02 -0.52360297868E+02  0.13721823089E+04  0.13746453465E+04  0.00000000000E+00 0. -1.
         22    1    3    3    0    0 -0.17843616006E+02  0.21460324786E+02  0.31040553404E+03  0.31165772209E+03  0.00000000000E+00 0.  1.
         22    1    3    3    0    0  0.10519842497E+03  0.32073671666E+02  0.29109478757E+03  0.31117776974E+03  0.00000000000E+00 0.  1.
</event>
<event>
 7    1  0.7961130E-006  0.1544366E+03  0.7818608E-02  0.1232720E+00
          2   -1    0    0  502    0  0.00000000000E+00  0.00000000000E+00  0.12498486289E+04  0.12498486289E+04  0.00000000000E+00 0. -1.
          1   -1    0    0  501    0 -0.00000000000E+00 -0.00000000000E+00 -0.13900054646E+04  0.13900054646E+04  0.00000000000E+00 0. -1.
         25    2    1    2    0    0 -0.19546831899E+03 -0.10173181651E+03  0.17422614647E+03  0.30746743713E+03  0.12499699422E+03 0.  0.
          2    1    1    2  501    0  0.15342466642E+03  0.70005793489E+01 -0.13162464852E+04  0.13251765717E+04  0.00000000000E+00 0. -1.
          1    1    1    2  502    0  0.42043652562E+02  0.94731237165E+02  0.10018635030E+04  0.10072100847E+04  0.00000000000E+00 0. -1.
         22    1    3    3    0    0  0.67025750000E+01 -0.19360981275E+02 -0.90773925926E+01  0.22409175885E+02  0.00000000000E+00 0. -1.
         22    1    3    3    0    0 -0.20217089399E+03 -0.82370835239E+02  0.18330353906E+03  0.28505826125E+03  0.00000000000E+00 0. -1.
</event>
<event>
 7    1  0.7961130E-006  0.7568601E+02  0.7818608E-02  0.1362780E+00
          2   -1    0    0  502    0  0.00000000000E+00  0.00000000000E+00  0.19408649835E+04  0.19408649835E+04  0.00000000000E+00 0. -1.
          1   -1    0    0  501    0 -0.00000000000E+00 -0.00000000000E+00 -0.24189603711E+02  0.24189603711E+02  0.00000000000E+00 0. -1.
         25    2    1    2    0    0  0.53060291292E+02  0.71429980665E+02  0.92483100641E+03  0.93747290944E+03  0.12500171548E+03 0.  0.
          2    1    1    2  501    0  0.10078295420E+02 -0.75928324108E+02  0.70609672186E+02  0.10417489259E+03  0.00000000000E+00 0. -1.
          1    1    1    2  502    0 -0.63138586712E+02  0.44983434424E+01  0.92123470116E+03  0.92340678515E+03  0.00000000000E+00 0. -1.
         22    1    3    3    0    0 -0.27383048293E+02  0.59887370254E+02  0.55033200770E+03  0.55425774433E+03  0.00000000000E+00 0.  1.
         22    1    3    3    0    0  0.80443339585E+02  0.11542610411E+02  0.37449899871E+03  0.38321516511E+03  0.00000000000E+00 0.  1.
</event>
<event>
 7    1  0.7961130E-006  0.7065269E+02  0.7818608E-02  0.1392034E+00
          2   -1    0    0  502    0  0.00000000000E+00  0.00000000000E+00  0.27761575603E+03  0.27761575603E+03  0.00000000000E+00 0. -1.
          1   -1    0    0  501    0 -0.00000000000E+00 -0.00000000000E+00 -0.67978371675E+03  0.67978371675E+03  0.00000000000E+00 0. -1.
         25    2    1    2    0    0  0.64582594553E+02 -0.40022290234E+02  0.40654330246E+00  0.14627965161E+03  0.12499950385E+03 0.  0.
          2    1    1    2  501    0 -0.69837839772E+02 -0.13083655297E+02 -0.60123378616E+03  0.60541768352E+03  0.00000000000E+00 0. -1.
          1    1    1    2  502    0  0.52552452181E+01  0.53105945531E+02  0.19865928214E+03  0.20570213765E+03  0.00000000000E+00 0. -1.
         22    1    3    3    0    0  0.74184949337E+02 -0.70023493244E+02 -0.25888221010E+02  0.10524683511E+03  0.00000000000E+00 0. -1.
         22    1    3    3    0    0 -0.96023547836E+01  0.30001203009E+02  0.26294764313E+02  0.41032816497E+02  0.00000000000E+00 0. -1.
</event>
<event>
 7    1  0.7961130E-006  0.1121418E+03  0.7818608E-02  0.1356855E+00
          2   -1    0    0  502    0  0.00000000000E+00  0.00000000000E+00  0.39168621298E+03  0.39168621298E+03  0.00000000000E+00 0. -1.
          1   -1    0    0  501    0 -0.00000000000E+00 -0.00000000000E+00 -0.40594955637E+03  0.40594955637E+03  0.00000000000E+00 0. -1.
         25    2    1    2    0    0  0.14701353802E+03  0.39680098099E+02 -0.11637625629E+03  0.22881617696E+03  0.12500367701E+03 0.  0.
          2    1    1    2  501    0 -0.38087010067E+02 -0.23782777472E+02 -0.22201428523E+03  0.22650956644E+03  0.00000000000E+00 0. -1.
          1    1    1    2  502    0 -0.10892652796E+03 -0.15897320627E+02  0.32412719813E+03  0.34231002595E+03  0.00000000000E+00 0. -1.
         22    1    3    3    0    0  0.63084459061E+02  0.76177225781E+02 -0.89603604200E+02  0.13345944923E+03  0.00000000000E+00 0.  1.
         22    1    3    3    0    0  0.83929078963E+02 -0.36497127682E+02 -0.26772652091E+02  0.95356727736E+02  0.00000000000E+00 0.  1.
</event>
<event>
 7    1  0.7961130E-006  0.7705629E+02  0.7818608E-02  0.1394037E+00
          2   -1    0    0  502    0  0.00000000000E+00  0.00000000000E+00  0.17276952026E+04  0.17276952026E+04  0.00000000000E+00 0. -1.
          1   -1    0    0  501    0 -0.00000000000E+00 -0.00000000000E+00 -0.47605152290E+03  0.47605152290E+03  0.00000000000E+00 0. -1.
         25    2    1    2    0    0 -0.11156032006E+03 -0.47319646963E+02  0.74089020902E+02  0.18920117536E+03  0.12499219071E+03 0.  0.
          2    1    1    2  501    0  0.63797558212E+02  0.41201894176E+02 -0.41468295302E+03  0.42157997586E+03  0.00000000000E+00 0. -1.
          1    1    1    2  502    0  0.47762761852E+02  0.61177527876E+01  0.15922376118E+04  0.15929655743E+04  0.00000000000E+00 0. -1.
         22    1    3    3    0    0 -0.71377534017E+02 -0.88347999064E+02  0.65563339974E+02  0.13114371068E+03  0.00000000000E+00 0. -1.
         22    1    3    3    0    0 -0.40182786047E+02  0.41028352101E+02  0.85256809275E+01  0.58057464687E+02  0.00000000000E+00 0. -1.
</event>
<event>
 7    1  0.7961130E-006  0.4089286E+02  0.7818608E-02  0.1577192E+00
          2   -1    0    0  502    0  0.00000000000E+00  0.00000000000E+00  0.33139486131E+04  0.33139486131E+04  0.00000000000E+00 0. -1.
          1   -1    0    0  501    0 -0.00000000000E+00 -0.00000000000E+00 -0.12494424681E+03  0.12494424681E+03  0.00000000000E+00 0. -1.
         25    2    1    2    0    0  0.52634927909E+02  0.28838978803E+02  0.16668169339E+04  0.16725746028E+04  0.12499995396E+03 0.  0.
          2    1    1    2  501    0 -0.13967784770E+02 -0.20743544431E+02 -0.12054457882E+03  0.12311128758E+03  0.00000000000E+00 0. -1.
          1    1    1    2  502    0 -0.38667143139E+02 -0.80954343722E+01  0.16427320112E+04  0.16432069695E+04  0.00000000000E+00 0. -1.
         22    1    3    3    0    0 -0.21866905243E+02  0.31580165390E+02  0.18822973865E+03  0.19210909115E+03  0.00000000000E+00 0.  1.
         22    1    3    3    0    0  0.74501833152E+02 -0.27411865871E+01  0.14785871952E+04  0.14804655116E+04  0.00000000000E+00 0.  1.
</event>
<event>
 7    1  0.7961130E-006  0.4926203E+02  0.7818608E-02  0.1505217E+00
          2   -1    0    0  502    0  0.00000000000E+00  0.00000000000E+00  0.15211231299E+03  0.15211231299E+03  0.00000000000E+00 0. -1.
          1   -1    0    0  501    0 -0.00000000000E+00 -0.00000000000E+00 -0.60447528577E+03  0.60447528577E+03  0.00000000000E+00 0. -1.
         25    2    1    2    0    0 -0.87697054279E+00  0.47871079788E+02 -0.11659629099E+03  0.17751834942E+03  0.12500263978E+03 0.  0.
          2    1    1    2  501    0  0.32449853171E+02 -0.37772929839E+02 -0.45377214273E+03  0.45649637974E+03  0.00000000000E+00 0. -1.
          1    1    1    2  502    0 -0.31572882628E+02 -0.10098149948E+02  0.11800546093E+03  0.12257286959E+03  0.00000000000E+00 0. -1.
         22    1    3    3    0    0 -0.27771163481E+02  0.20997369005E+02  0.16909302373E+02  0.38704670686E+02  0.00000000000E+00 0.  1.
         22    1    3    3    0    0  0.26894192938E+02  0.26873710783E+02 -0.13350559336E+03  0.13881367874E+03  0.00000000000E+00 0.  1.
</event>
<event>
 7    1  0.7961130E-006  0.8186674E+02  0.7818608E-02  0.1334895E+00
          2   -1    0    0  502    0  0.00000000000E+00  0.00000000000E+00  0.21849870860E+03  0.21849870860E+03  0.00000000000E+00 0. -1.
          1   -1    0    0  501    0 -0.00000000000E+00 -0.00000000000E+00 -0.11632429825E+04  0.11632429825E+04  0.00000000000E+00 0. -1.
         25    2    1    2    0    0 -0.37741766738E+01  0.35075247299E+02  0.83675085850E+02  0.15450862296E+03  0.12500750855E+03 0.  0.
          2    1    1    2  501    0  0.77733968086E+02 -0.28288194431E+02 -0.11121999245E+04  0.11152719237E+04  0.00000000000E+00 0. -1.
          1    1    1    2  502    0 -0.73959791413E+02 -0.67870528679E+01  0.83780564758E+02  0.11196114444E+03  0.00000000000E+00 0. -1.
         22    1    3    3    0    0  0.25552631722E+00  0.81678904031E+02  0.63978636397E+02  0.10375343162E+03  0.00000000000E+00 0. -1.
         22    1    3    3    0    0 -0.40297029910E+01 -0.46603656732E+02  0.19696449453E+02  0.50755191341E+02  0.00000000000E+00 0. -1.
</event>
<event>
 7    1  0.7961130E-006  0.5798919E+02  0.7818608E-02  0.1439511E+00
          2   -1    0    0  502    0  0.00000000000E+00  0.00000000000E+00  0.42489937041E+03  0.42489937041E+03  0.00000000000E+00 0. -1.
          1   -1    0    0  501    0 -0.00000000000E+00 -0.00000000000E+00 -0.15019268040E+04  0.15019268040E+04  0.00000000000E+00 0. -1.
         25    2    1    2    0    0  0.18111685779E+02  0.14682810590E+02  0.30290984169E+03  0.32852564650E+03  0.12502443813E+03 0.  0.
          2    1    1    2  501    0 -0.52372826404E+01 -0.57827558867E+02 -0.14838849899E+04  0.14850205786E+04  0.00000000000E+00 0. -1.
          1    1    1    2  502    0 -0.12874403139E+02  0.43144748277E+02  0.10394771455E+03  0.11327994933E+03  0.00000000000E+00 0. -1.
         22    1    3    3    0    0  0.87068211066E+01  0.40657045939E+02  0.29748110192E+03  0.30037278525E+03  0.00000000000E+00 0.  1.
         22    1    3    3    0    0  0.94048646726E+01 -0.25974235349E+02  0.54287397737E+01  0.28152861258E+02  0.00000000000E+00 0.  1.
</event>
<event>
 7    1  0.7961130E-006  0.6927713E+02  0.7818608E-02  0.1433123E+00
          2   -1    0    0  502    0  0.00000000000E+00  0.00000000000E+00  0.31383137906E+03  0.31383137906E+03  0.00000000000E+00 0. -1.
          1   -1    0    0  501    0 -0.00000000000E+00 -0.00000000000E+00 -0.59705052578E+03  0.59705052578E+03  0.00000000000E+00 0. -1.
         25    2    1    2    0    0 -0.44791096034E+02 -0.45921953102E+02  0.25628655828E+02  0.14281762445E+03  0.12499991117E+03 0.  0.
          2    1    1    2  501    0  0.12394713612E+02  0.68592916138E+02 -0.53447370634E+03  0.53899977721E+03  0.00000000000E+00 0. -1.
          1    1    1    2  502    0  0.32396382423E+02 -0.22670963036E+02  0.22562590379E+03  0.22906450318E+03  0.00000000000E+00 0. -1.
         22    1    3    3    0    0  0.60706447509E+01  0.14095453475E+02  0.56319238789E+02  0.58372863509E+02  0.00000000000E+00 0. -1.
         22    1    3    3    0    0 -0.50861740785E+02 -0.60017406577E+02 -0.30690582962E+02  0.84444760941E+02  0.00000000000E+00 0. -1.
</event>
<event>
 7    1  0.7961130E-006  0.4549133E+02  0.7818608E-02  0.1550107E+00
          2   -1    0    0  502    0  0.00000000000E+00  0.00000000000E+00  0.53202530225E+03  0.53202530225E+03  0.00000000000E+00 0. -1.
          1   -1    0    0  501    0 -0.00000000000E+00 -0.00000000000E+00 -0.87759956444E+02  0.87759956444E+02  0.00000000000E+00 0. -1.
         25    2    1    2    0    0  0.46000231079E+01 -0.44188403938E+02  0.16648506752E+03  0.21287502592E+03  0.12499889478E+03 0.  0.
          2    1    1    2  501    0 -0.29635168197E+02  0.34998145228E+02 -0.55821768109E+02  0.72243914334E+02  0.00000000000E+00 0. -1.
          1    1    1    2  502    0  0.25035145089E+02  0.91902587105E+01  0.33360204639E+03  0.33466631845E+03  0.00000000000E+00 0. -1.
         22    1    3    3    0    0  0.63894022786E+01 -0.27989142310E+02  0.18557029920E+03  0.18777793399E+03  0.00000000000E+00 0.  1.
         22    1    3    3    0    0 -0.17893791706E+01 -0.16199261628E+02 -0.19085231674E+02  0.25097091927E+02  0.00000000000E+00 0.  1.
</event>
<event>
 7    1  0.7961130E-006  0.4659185E+02  0.7818608E-02  0.1542973E+00
          2   -1    0    0  502    0  0.00000000000E+00  0.00000000000E+00  0.28202942120E+03  0.28202942120E+03  0.00000000000E+00 0. -1.
          1   -1    0    0  501    0 -0.00000000000E+00 -0.00000000000E+00 -0.13320545992E+03  0.13320545992E+03  0.00000000000E+00 0. -1.
         25    2    1    2    0    0  0.38000268995E+02  0.29419740531E+02  0.39817551690E+02  0.13971049178E+03  0.12499617000E+03 0.  0.
          2    1    1    2  501    0 -0.22778069957E+02  0.14985507165E+02 -0.78046101678E+02  0.82671638928E+02  0.00000000000E+00 0. -1.
          1    1    1    2  502    0 -0.15222199038E+02 -0.44405247696E+02  0.18705251127E+03  0.19285275040E+03  0.00000000000E+00 0. -1.
         22    1    3    3    0    0 -0.35276203716E+02  0.36175931823E+02  0.42571813063E+02  0.66071687274E+02  0.00000000000E+00 0. -1.
         22    1    3    3    0    0  0.73276472711E+02 -0.67561912914E+01 -0.27542613725E+01  0.73638804508E+02  0.00000000000E+00 0. -1.
</event>
<event>
 7    1  0.7961130E-006  0.6518894E+02  0.7818608E-02  0.1383509E+00
          2   -1    0    0  502    0  0.00000000000E+00  0.00000000000E+00  0.30084694165E+02  0.30084694165E+02  0.00000000000E+00 0. -1.
          1   -1    0    0  501    0 -0.00000000000E+00 -0.00000000000E+00 -0.11775207500E+04  0.11775207500E+04  0.00000000000E+00 0. -1.
         25    2    1    2    0    0 -0.10899649179E+02 -0.24273232295E+02 -0.24385843118E+03  0.27532511700E+03  0.12501597273E+03 0.  0.
          2    1    1    2  501    0 -0.23654624614E+01 -0.61907939585E+02 -0.77169899320E+03  0.77418184201E+03  0.00000000000E+00 0. -1.
          1    1    1    2  502    0  0.13265111640E+02  0.86181171880E+02 -0.13187863150E+03  0.15809848519E+03  0.00000000000E+00 0. -1.
         22    1    3    3    0    0  0.54029463703E+00 -0.68828798462E+02 -0.20097808104E+03  0.21243795441E+03  0.00000000000E+00 0.  1.
         22    1    3    3    0    0 -0.11439943816E+02  0.44555566167E+02 -0.42880350138E+02  0.62887162592E+02  0.00000000000E+00 0.  1.
</event>
<event>
 7    1  0.7961130E-006  0.8243039E+02  0.7818608E-02  0.1419475E+00
          2   -1    0    0  502    0  0.00000000000E+00  0.00000000000E+00  0.20907351358E+04  0.20907351358E+04  0.00000000000E+00 0. -1.
          1   -1    0    0  501    0 -0.00000000000E+00 -0.00000000000E+00 -0.20572725390E+04  0.20572725390E+04  0.00000000000E+00 0. -1.
         25    2    1    2    0    0  0.65967689418E+01  0.67883192123E+02  0.16401254327E+04  0.16462949985E+04  0.12499656774E+03 0.  0.
          2    1    1    2  501    0 -0.43404749386E+02 -0.70089659014E+02 -0.20525993225E+04  0.20542542469E+04  0.00000000000E+00 0. -1.
          1    1    1    2  502    0  0.36807980444E+02  0.22064668912E+01  0.44593648653E+03  0.44745842929E+03  0.00000000000E+00 0. -1.
         22    1    3    3    0    0  0.40006047598E+02 -0.95741781449E+01  0.97133279167E+03  0.97220344625E+03  0.00000000000E+00 0.  1.
         22    1    3    3    0    0 -0.33409278657E+02  0.77457370268E+02  0.66879264107E+03  0.67409155228E+03  0.00000000000E+00 0.  1.
</event>
