<event>
 7    1  0.6508013E-006  0.4326877E+02  0.7818608E-02  0.1568875E+00
          2   -1    0    0  502    0  0.00000000000E+00  0.00000000000E+00  0.26649099221E+03  0.26649099221E+03  0.00000000000E+00 0. -1.
          1   -1    0    0  501    0 -0.00000000000E+00 -0.00000000000E+00 -0.98147659773E+03  0.98147659773E+03  0.00000000000E+00 0. -1.
         25    2    1    2    0    0 -0.21667365024E+00  0.26868667904E+02 -0.27618490068E+03  0.30434307982E+03  0.12499855442E+03 0.  0.
          2    1    1    2  501    0  0.22675015617E+02  0.10268492769E+02 -0.68912069217E+03  0.68957010279E+03  0.00000000000E+00 0. -1.
          1    1    1    2  502    0 -0.22458341967E+02 -0.37137160673E+02  0.25031998733E+03  0.25405440733E+03  0.00000000000E+00 0. -1.
         22    1    3    3    0    0 -0.22154216070E+02 -0.46368228768E+02 -0.11315294608E+03  0.12427554520E+03  0.00000000000E+00 0. -1.
         22    1    3    3    0    0  0.21937542419E+02  0.73236896672E+02 -0.16303195460E+03  0.18006753462E+03  0.00000000000E+00 0. -1.
</event>
<event>
 7    1  0.6508013E-006  0.6842805E+02  0.7818608E-02  0.1392827E+00
          2   -1    0    0  502    0  0.00000000000E+00  0.00000000000E+00  0.44070376819E+03  0.44070376819E+03  0.00000000000E+00 0. -1.
          1   -1    0    0  501    0 -0.00000000000E+00 -0.00000000000E+00 -0.68191978879E+02  0.68191978879E+02  0.00000000000E+00 0. -1.
         25    2    1    2    0    0  0.18652397491E+02  0.15205786623E+02  0.12737085803E+03  0.18007478981E+03  0.12499786626E+03 0.  0.
          2    1    1    2  501    0  0.31404223718E+02  0.44849678401E+02 -0.15340363135E+02  0.56859877428E+02  0.00000000000E+00 0. -1.
          1    1    1    2  502    0 -0.50056621209E+02 -0.60055465025E+02  0.26048129441E+03  0.27196107984E+03  0.00000000000E+00 0. -1.
         22    1    3    3    0    0 -0.46740160724E+02  0.26972685967E+02  0.86851754237E+02  0.10225162897E+03  0.00000000000E+00 0. -1.
         22    1    3    3    0    0  0.65392558215E+02 -0.11766899344E+02  0.40519103796E+02  0.77823160836E+02  0.00000000000E+00 0. -1.
</event>
<event>
 7    1  0.6508013E-006  0.8130653E+02  0.7818608E-02  0.1390594E+00
          2   -1    0    0  502    0  0.00000000000E+00  0.00000000000E+00  0.25798668164E+04  0.25798668164E+04  0.00000000000E+00 0. -1.
          1   -1    0    0  501    0 -0.00000000000E+00 -0.00000000000E+00 -0.54887831257E+02  0.54887831257E+02  0.00000000000E+00 0. -1.
         25    2    1    2    0    0 -0.32234289787E+02 -0.71868928931E+02  0.11678851136E+03  0.18833105893E+03  0.12499935596E+03 0.  0.
          2    1    1    2  501    0  0.73234455769E+02  0.49073123263E+02  0.84026808609E+02  0.12178654073E+03  0.00000000000E+00 0. -1.
          1    1    1    2  502    0 -0.41000165982E+02  0.22795805668E+02  0.23241636652E+04  0.23246370480E+04  0.00000000000E+00 0. -1.
         22    1    3    3    0    0 -0.42611384157E+02 -0.47413298537E+02 -0.47487583055E+01  0.63924186686E+02  0.00000000000E+00 0. -1.
         22    1    3    3    0    0  0.10377094370E+02 -0.24455630393E+02  0.12153726966E+03  0.12440687225E+03  0.00000000000E+00 0. -1.
</event>
<event>
 7    1  0.6508013E-006  0.1195043E+03  0.7818608E-02  0.1274980E+00
          2   -1    0    0  502    0  0.00000000000E+00  0.00000000000E+00  0.37790903813E+03  0.37790903813E+03  0.00000000000E+00 0. -1.
          1   -1    0    0  501    0 -0.00000000000E+00 -0.00000000000E+00 -0.11809884148E+03  0.11809884148E+03  0.00000000000E+00 0. -1.
         25    2    1    2    0    0 -0.25832461138E+02 -0.38282271198E+02  0.80045183542E+02  0.15544904556E+03  0.12499730405E+03 0.  0.
          2    1    1    2  501    0 -0.76996953496E+02  0.99170607487E+02  0.10340172072E+01  0.12555639939E+03  0.00000000000E+00 0. -1.
          1    1    1    2  502    0  0.10282941463E+03 -0.60888336289E+02  0.17873099591E+03  0.21500243465E+03  0.00000000000E+00 0. -1.
         22    1    3    3    0    0  0.60614792366E+01 -0.79283073518E+02  0.35746671592E+02  0.87180111304E+02  0.00000000000E+00 0. -1.
         22    1    3    3    0    0 -0.31893940375E+02  0.41000802320E+02  0.44298511950E+02  0.68268934256E+02  0.00000000000E+00 0. -1.
</event>
<event>
 7    1  0.6508013E-006  0.5499460E+02  0.7818608E-02  0.1483826E+00
          2   -1    0    0  502    0  0.00000000000E+00  0.00000000000E+00  0.35681880890E+03  0.35681880890E+03  0.00000000000E+00 0. -1.
          1   -1    0    0  501    0 -0.00000000000E+00 -0.00000000000E+00 -0.16355432341E+03  0.16355432341E+03  0.00000000000E+00 0. -1.
         25    2    1    2    0    0  0.37496631286E+02 -0.79235710777E+02  0.12897208603E+03  0.19986039313E+03  0.12500433011E+03 0.  0.
          2    1    1    2  501    0 -0.18253607193E+02  0.50681908490E+02 -0.12078844165E+03  0.13225618194E+03  0.00000000000E+00 0. -1.
          1    1    1    2  502    0 -0.19243024092E+02  0.28553802288E+02  0.18508084110E+03  0.18825655724E+03  0.00000000000E+00 0. -1.
         22    1    3    3    0    0  0.92174431683E+01 -0.95326162786E+02  0.37633041316E+02  0.10289938955E+03  0.00000000000E+00 0. -1.
         22    1    3    3    0    0  0.28279188117E+02  0.16090452009E+02  0.91339044715E+02  0.96961003584E+02  0.00000000000E+00 0. -1.
</event>
<event>
 7    1  0.6508013E-006  0.1353488E+03  0.7818608E-02  0.1273131E+00
          2   -1    0    0  502    0  0.00000000000E+00  0.00000000000E+00  0.21817534656E+04  0.21817534656E+04  0.00000000000E+00 0. -1.
          1   -1    0    0  501    0 -0.00000000000E+00 -0.00000000000E+00 -0.39192445562E+03  0.39192445562E+03  0.00000000000E+00 0. -1.
         25    2    1    2    0    0  0.94162952699E+01 -0.69817709336E+02  0.44828034503E+03  0.47068372437E+03  0.12499888594E+03 0.  0.
          2    1    1    2  501    0  0.40590958677E+02  0.13113653292E+03 -0.36740345499E+03  0.39221131413E+03  0.00000000000E+00 0. -1.
          1    1    1    2  502    0 -0.50007253947E+02 -0.61318823581E+02  0.17089521199E+04  0.17107828827E+04  0.00000000000E+00 0. -1.
         22    1    3    3    0    0  0.44735222228E+02 -0.73573767002E+02  0.17428094305E+03  0.19439183730E+03  0.00000000000E+00 0. -1.
         22    1    3    3    0    0 -0.35318926959E+02  0.37560576660E+01  0.27399940199E+03  0.27629188707E+03  0.00000000000E+00 0. -1.
</event>
<event>
 7    1  0.6508013E-006  0.4259747E+02  0.7818608E-02  0.1498392E+00
          2   -1    0    0  502    0  0.00000000000E+00  0.00000000000E+00  0.25643397844E+04  0.25643397844E+04  0.00000000000E+00 0. -1.
          1   -1    0    0  501    0 -0.00000000000E+00 -0.00000000000E+00 -0.14829120571E+04  0.14829120571E+04  0.00000000000E+00 0. -1.
         25    2    1    2    0    0 -0.28369892473E+01 -0.44596817515E+02  0.49193806866E+03  0.50953528566E+03  0.12500487708E+03 0.  0.
          2    1    1    2  501    0 -0.33156176872E+02  0.26759900813E+02 -0.14736100035E+04  0.14742258533E+04  0.00000000000E+00 0. -1.
          1    1    1    2  502    0  0.35993166120E+02  0.17836916701E+02  0.20630996621E+04  0.20634907025E+04  0.00000000000E+00 0. -1.
         22    1    3    3    0    0 -0.28839680074E+02  0.35398907052E+02  0.22766237061E+03  0.23219596198E+03  0.00000000000E+00 0. -1.
         22    1    3    3    0    0  0.26002690826E+02 -0.79995724566E+02  0.26427569805E+03  0.27733932368E+03  0.00000000000E+00 0. -1.
</event>
<event>
 7    1  0.6508013E-006  0.3869511E+02  0.7818608E-02  0.1563134E+00
          2   -1    0    0  502    0  0.00000000000E+00  0.00000000000E+00  0.14076695403E+04  0.14076695403E+04  0.00000000000E+00 0. -1.
          1   -1    0    0  501    0 -0.00000000000E+00 -0.00000000000E+00 -0.13829747428E+03  0.13829747428E+03  0.00000000000E+00 0. -1.
         25    2    1    2    0    0  0.15758126754E+02  0.52965972923E+01  0.14989744760E+03  0.19588398169E+03  0.12499966792E+03 0.  0.
          2    1    1    2  501    0 -0.19716026699E+02 -0.33880960393E+02 -0.11179854819E+03  0.11847175429E+03  0.00000000000E+00 0. -1.
          1    1    1    2  502    0  0.39578999452E+01  0.28584363101E+02  0.12312731666E+04  0.12316112786E+04  0.00000000000E+00 0. -1.
         22    1    3    3    0    0 -0.13784990802E+02  0.33733560742E+02 -0.39599603217E+01  0.36655973286E+02  0.00000000000E+00 0.  1.
         22    1    3    3    0    0  0.29543117556E+02 -0.28436963450E+02  0.15385740793E+03  0.15922800840E+03  0.00000000000E+00 0.  1.
</event>
<event>
 7    1  0.6508013E-006  0.6997150E+02  0.7818608E-02  0.1392904E+00
          2   -1    0    0  502    0  0.00000000000E+00  0.00000000000E+00  0.14562566302E+04  0.14562566302E+04  0.00000000000E+00 0. -1.
          1   -1    0    0  501    0 -0.00000000000E+00 -0.00000000000E+00 -0.16619480069E+02  0.16619480069E+02  0.00000000000E+00 0. -1.
         25    2    1    2    0    0 -0.29620233441E+02  0.45690251432E+01  0.36507237941E+03  0.38704220340E+03  0.12500236313E+03 0.  0.
          2    1    1    2  501    0 -0.28343620103E+02  0.45387930749E+02  0.17445473854E+03  0.18247706940E+03  0.00000000000E+00 0. -1.
          1    1    1    2  502    0  0.57963853544E+02 -0.49956955892E+02  0.90011003216E+03  0.90335683744E+03  0.00000000000E+00 0. -1.
         22    1    3    3    0    0 -0.20820123144E+02  0.17324259377E+02  0.36983886187E+03  0.37082932899E+03  0.00000000000E+00 0.  1.
         22    1    3    3    0    0 -0.88001102972E+01 -0.12755234233E+02 -0.47664824619E+01  0.16212874410E+02  0.00000000000E+00 0.  1.
</event>
<event>
 7    1  0.6508013E-006  0.1193805E+03  0.7818608E-02  0.1377729E+00
          2   -1    0    0  502    0  0.00000000000E+00  0.00000000000E+00  0.14215867358E+04  0.14215867358E+04  0.00000000000E+00 0. -1.
          1   -1    0    0  501    0 -0.00000000000E+00 -0.00000000000E+00 -0.22085411984E+03  0.22085411984E+03  0.00000000000E+00 0. -1.
         25    2    1    2    0    0  0.22785686992E+02  0.83833474452E+02  0.98058030317E+02  0.18107578438E+03  0.12500329359E+03 0.  0.
          2    1    1    2  501    0  0.16935341848E+02  0.31156158333E+02 -0.17467345036E+03  0.17823671413E+03  0.00000000000E+00 0. -1.
          1    1    1    2  502    0 -0.39721028840E+02 -0.11498963279E+03  0.12773480360E+04  0.12831283571E+04  0.00000000000E+00 0. -1.
         22    1    3    3    0    0  0.48606066967E+02 -0.13095432698E+02  0.45386432367E+02  0.67778819306E+02  0.00000000000E+00 0.  1.
         22    1    3    3    0    0 -0.25820379975E+02  0.96928907151E+02  0.52671597950E+02  0.11329696507E+03  0.00000000000E+00 0.  1.
</event>
<event>
 7    1  0.6508013E-006  0.1287751E+03  0.7818608E-02  0.1256247E+00
          2   -1    0    0  502    0  0.00000000000E+00  0.00000000000E+00  0.93580368764E+03  0.93580368764E+03  0.00000000000E+00 0. -1.
          1   -1    0    0  501    0 -0.00000000000E+00 -0.00000000000E+00 -0.11513568274E+03  0.11513568274E+03  0.00000000000E+00 0. -1.
         25    2    1    2    0    0  0.30208945250E+02 -0.61529555064E+02  0.64500120915E+03  0.66056810118E+03  0.12500075990E+03 0.  0.
          2    1    1    2  501    0 -0.12679258891E+03  0.44629309878E+02 -0.50715579162E+02  0.14366699646E+03  0.00000000000E+00 0. -1.
          1    1    1    2  502    0  0.96583643662E+02  0.16900245187E+02  0.22638237492E+03  0.24670427274E+03  0.00000000000E+00 0. -1.
         22    1    3    3    0    0  0.43555313453E+02 -0.92268513784E+02  0.38012513781E+03  0.39358056908E+03  0.00000000000E+00 0.  1.
         22    1    3    3    0    0 -0.13346368204E+02  0.30738958720E+02  0.26487607134E+03  0.26698753209E+03  0.00000000000E+00 0.  1.
</event>
<event>
 7    1  0.6508013E-006  0.1277418E+03  0.7818608E-02  0.1339375E+00
          2   -1    0    0  502    0  0.00000000000E+00  0.00000000000E+00  0.21414791357E+03  0.21414791357E+03  0.00000000000E+00 0. -1.
          1   -1    0    0  501    0 -0.00000000000E+00 -0.00000000000E+00 -0.83448810812E+03  0.83448810812E+03  0.00000000000E+00 0. -1.
         25    2    1    2    0    0 -0.10319650232E+03 -0.61936495404E+02  0.33613987042E+02  0.17674751727E+03  0.12499654869E+03 0.  0.
          2    1    1    2  501    0  0.12652178199E+03  0.22545826264E+02 -0.75241194647E+03  0.76330846504E+03  0.00000000000E+00 0. -1.
          1    1    1    2  502    0 -0.23325279673E+02  0.39390669140E+02  0.98457764877E+02  0.10858003938E+03  0.00000000000E+00 0. -1.
         22    1    3    3    0    0  0.29253429043E+02 -0.67178882633E+01  0.51970291252E+01  0.30461487902E+02  0.00000000000E+00 0. -1.
         22    1    3    3    0    0 -0.13244993136E+03 -0.55218607140E+02  0.28416957917E+02  0.14628602937E+03  0.00000000000E+00 0. -1.
</event>
<event>
 7    1  0.6508013E-006  0.4939973E+02  0.7818608E-02  0.1555994E+00
          2   -1    0    0  502    0  0.00000000000E+00  0.00000000000E+00  0.15832631864E+04  0.15832631864E+04  0.00000000000E+00 0. -1.
          1   -1    0    0  501    0 -0.00000000000E+00 -0.00000000000E+00 -0.45429857536E+03  0.45429857536E+03  0.00000000000E+00 0. -1.
         25    2    1    2    0    0  0.43818429159E+02  0.37705272119E+01 -0.24248559202E+03  0.27632305448E+03  0.12498358489E+03 0.  0.
          2    1    1    2  501    0 -0.26127037538E+01  0.23506237842E+02 -0.19378535482E+03  0.19522329057E+03  0.00000000000E+00 0. -1.
          1    1    1    2  502    0 -0.41205725406E+02 -0.27276765054E+02  0.15652355578E+04  0.15660154167E+04  0.00000000000E+00 0. -1.
         22    1    3    3    0    0  0.62440517538E+02 -0.57856108144E+01 -0.24706352284E+03  0.25489738296E+03  0.00000000000E+00 0. -1.
         22    1    3    3    0    0 -0.18622088379E+02  0.95561380262E+01  0.45779308172E+01  0.21425671521E+02  0.00000000000E+00 0. -1.
</event>
<event>
 7    1  0.6508013E-006  0.8268479E+02  0.7818608E-02  0.1450678E+00
          2   -1    0    0  502    0  0.00000000000E+00  0.00000000000E+00  0.20760199765E+04  0.20760199765E+04  0.00000000000E+00 0. -1.
          1   -1    0    0  501    0 -0.00000000000E+00 -0.00000000000E+00 -0.18969672301E+03  0.18969672301E+03  0.00000000000E+00 0. -1.
         25    2    1    2    0    0  0.84308294540E+02  0.69917783546E+02  0.76692258096E+03  0.78472364609E+03  0.12499828227E+03 0.  0.
          2    1    1    2  501    0 -0.57302865187E+02 -0.59167662955E+02 -0.17124273812E+03  0.19002238304E+03  0.00000000000E+00 0. -1.
          1    1    1    2  502    0 -0.27005429353E+02 -0.10750120591E+02  0.12906434107E+04  0.12909706704E+04  0.00000000000E+00 0. -1.
         22    1    3    3    0    0  0.59371759801E+02  0.22466600753E+02  0.12154589805E+03  0.13712461247E+03  0.00000000000E+00 0.  1.
         22    1    3    3    0    0  0.24936534739E+02  0.47451182793E+02  0.64537668290E+03  0.64759903362E+03  0.00000000000E+00 0.  1.
</event>
<event>
 7    1  0.6508013E-006  0.5584927E+02  0.7818608E-02  0.1468771E+00
          2   -1    0    0  502    0  0.00000000000E+00  0.00000000000E+00  0.49773810835E+02  0.49773810835E+02  0.00000000000E+00 0. -1.
          1   -1    0    0  501    0 -0.00000000000E+00 -0.00000000000E+00 -0.50872284000E+03  0.50872284000E+03  0.00000000000E+00 0. -1.
         25    2    1    2    0    0 -0.76099299900E+02 -0.30576293708E+02 -0.15978536769E+03  0.21882118965E+03  0.12500134451E+03 0.  0.
          2    1    1    2  501    0  0.24437390492E+02  0.28747972170E+02 -0.28301290914E+03  0.28551696744E+03  0.00000000000E+00 0. -1.
          1    1    1    2  502    0  0.51661909408E+02  0.18283215383E+01 -0.16150752331E+02  0.54158493740E+02  0.00000000000E+00 0. -1.
         22    1    3    3    0    0  0.10170183727E+02 -0.52732281145E+02 -0.30307621997E+02  0.61665858162E+02  0.00000000000E+00 0.  1.
         22    1    3    3    0    0 -0.86269483627E+02  0.22155987437E+02 -0.12947774569E+03  0.15715533148E+03  0.00000000000E+00 0.  1.
</event>
<event>
 7    1  0.6508013E-006  0.2240919E+03  0.7818608E-02  0.1192298E+00
          2   -1    0    0  502    0  0.00000000000E+00  0.00000000000E+00  0.15461342990E+04  0.15461342990E+04  0.00000000000E+00 0. -1.
          1   -1    0    0  501    0 -0.00000000000E+00 -0.00000000000E+00 -0.54371181100E+03  0.54371181100E+03  0.00000000000E+00 0. -1.
         25    2    1    2    0    0 -0.11519450483E+03 -0.22162342672E+03  0.55130459512E+03  0.61801533921E+03  0.12497794083E+03 0.  0.
          2    1    1    2  501    0  0.18018289047E+03  0.13313786389E+03 -0.48239714194E+03  0.53188209913E+03  0.00000000000E+00 0. -1.
          1    1    1    2  502    0 -0.64988385643E+02  0.88485562828E+02  0.93351503482E+03  0.93994867165E+03  0.00000000000E+00 0. -1.
         22    1    3    3    0    0 -0.52263279657E+02 -0.79995189732E+02  0.89592462277E+02  0.13098660266E+03  0.00000000000E+00 0.  1.
         22    1    3    3    0    0 -0.62931225170E+02 -0.14162823698E+03  0.46171213284E+03  0.48702873655E+03  0.00000000000E+00 0.  1.
</event>
<event>
 7    1  0.6508013E-006  0.2391294E+03  0.7818608E-02  0.1140948E+00
          2   -1    0    0  502    0  0.00000000000E+00  0.00000000000E+00  0.86894111735E+03  0.86894111735E+03  0.00000000000E+00 0. -1.
          1   -1    0    0  501    0 -0.00000000000E+00 -0.00000000000E+00 -0.15407484329E+03  0.15407484329E+03  0.00000000000E+00 0. -1.
         25    2    1    2    0    0  0.12888936641E+03 -0.34110369338E+02  0.33048015059E+03  0.37764588641E+03  0.12499319788E+03 0.  0.
          2    1    1    2  501    0 -0.29738846747E+03  0.11239219177E+03  0.16601491892E+03  0.35865423274E+03  0.00000000000E+00 0. -1.
          1    1    1    2  502    0  0.16849910106E+03 -0.78281822433E+02  0.21837120456E+03  0.28671584149E+03  0.00000000000E+00 0. -1.
         22    1    3    3    0    0  0.38837814237E+02  0.23155713961E+02  0.21782640106E+03  0.22247000675E+03  0.00000000000E+00 0. -1.
         22    1    3    3    0    0  0.90051552173E+02 -0.57266083299E+02  0.11265374953E+03  0.15517587966E+03  0.00000000000E+00 0. -1.
</event>
<event>
 7    1  0.6508013E-006  0.5394969E+02  0.7818608E-02  0.1519517E+00
          2   -1    0    0  502    0  0.00000000000E+00  0.00000000000E+00  0.43954820599E+03  0.43954820599E+03  0.00000000000E+00 0. -1.
          1   -1    0    0  501    0 -0.00000000000E+00 -0.00000000000E+00 -0.61791526966E+03  0.61791526966E+03  0.00000000000E+00 0. -1.
         25    2    1    2    0    0 -0.14986183955E+02 -0.44787397725E+02  0.75114116780E+02  0.15328876276E+03  0.12499927017E+03 0.  0.
          2    1    1    2  501    0  0.26036949507E+02 -0.87896475408E+01 -0.57619859828E+03  0.57685353886E+03  0.00000000000E+00 0. -1.
          1    1    1    2  502    0 -0.11050765552E+02  0.53577045266E+02  0.32271741783E+03  0.32732117403E+03  0.00000000000E+00 0. -1.
         22    1    3    3    0    0  0.66398346427E+01 -0.40175471184E+02  0.10699965111E+03  0.11448616173E+03  0.00000000000E+00 0.  1.
         22    1    3    3    0    0 -0.21626018598E+02 -0.46119265415E+01 -0.31885534335E+02  0.38802601029E+02  0.00000000000E+00 0.  1.
</event>
<event>
 7    1  0.8969747E-006  0.5829158E+02  0.7818608E-02  0.1553563E+00
          2   -1    0    0  502    0  0.00000000000E+00  0.00000000000E+00  0.11236912754E+04  0.11236912754E+04  0.00000000000E+00 0. -1.
          1   -1    0    0  501    0 -0.00000000000E+00 -0.00000000000E+00 -0.13027279275E+04  0.13027279275E+04  0.00000000000E+00 0. -1.
         25    2    1    2    0    0 -0.24869437794E+01 -0.39325257311E+02 -0.59472511188E+03  0.60899613953E+03  0.12500271404E+03 0.  0.
          2    1    1    2  501    0  0.79674517657E+01 -0.18732738788E+02 -0.69995778337E+03  0.70025373565E+03  0.00000000000E+00 0. -1.
          1    1    1    2  502    0 -0.54805079863E+01  0.58057996099E+02  0.11156462432E+04  0.11171693277E+04  0.00000000000E+00 0. -1.
         22    1    3    3    0    0 -0.14050048969E+02  0.23365265774E+02 -0.45033778297E+03  0.45116234140E+03  0.00000000000E+00 0.  1.
         22    1    3    3    0    0  0.11563105190E+02 -0.62690523086E+02 -0.14438732890E+03  0.15783379814E+03  0.00000000000E+00 0.  1.
</event>
<event>
 7    1  0.6508013E-006  0.8315208E+02  0.7818608E-02  0.1413599E+00
          2   -1    0    0  502    0  0.00000000000E+00  0.00000000000E+00  0.32008825570E+03  0.32008825570E+03  0.00000000000E+00 0. -1.
          1   -1    0    0  501    0 -0.00000000000E+00 -0.00000000000E+00 -0.68846226408E+03  0.68846226408E+03  0.00000000000E+00 0. -1.
         25    2    1    2    0    0  0.10405646538E+03  0.43266776700E+02 -0.16589090605E+03  0.23630596225E+03  0.12498381147E+03 0.  0.
          2    1    1    2  501    0 -0.79336005661E+02 -0.14075041942E+02 -0.48272528067E+03  0.48940372414E+03  0.00000000000E+00 0. -1.
          1    1    1    2  502    0 -0.24720459714E+02 -0.29191734759E+02  0.28024217835E+03  0.28284083339E+03  0.00000000000E+00 0. -1.
         22    1    3    3    0    0  0.63500944622E+02 -0.17400276031E+02 -0.14677951217E+03  0.16087064607E+03  0.00000000000E+00 0. -1.
         22    1    3    3    0    0  0.40555520754E+02  0.60667052731E+02 -0.19111393880E+02  0.75435316177E+02  0.00000000000E+00 0. -1.
</event>
<event>
 7    1  0.6508013E-006  0.4965105E+02  0.7818608E-02  0.1566508E+00
          2   -1    0    0  502    0  0.00000000000E+00  0.00000000000E+00  0.41872682007E+02  0.41872682007E+02  0.00000000000E+00 0. -1.
          1   -1    0    0  501    0 -0.00000000000E+00 -0.00000000000E+00 -0.89395233015E+03  0.89395233015E+03  0.00000000000E+00 0. -1.
         25    2    1    2    0    0 -0.12060560285E+02  0.37905074461E+02 -0.42431076811E+03  0.44412443964E+03  0.12499855267E+03 0.  0.
          2    1    1    2  501    0  0.18490328882E+02  0.11951730726E+02 -0.43952372284E+03  0.44007481076E+03  0.00000000000E+00 0. -1.
          1    1    1    2  502    0 -0.64297685975E+01 -0.49856805188E+02  0.11754842800E+02  0.51625761757E+02  0.00000000000E+00 0. -1.
         22    1    3    3    0    0  0.21619866619E+02  0.43217915559E+02 -0.39834729463E+03  0.40126770864E+03  0.00000000000E+00 0.  1.
         22    1    3    3    0    0 -0.33680426904E+02 -0.53128410979E+01 -0.25963473475E+02  0.42856730998E+02  0.00000000000E+00 0.  1.
</event>
<event>
 7    1  0.6508013E-006  0.1517016E+03  0.7818608E-02  0.1234959E+00
          2   -1    0    0  502    0  0.00000000000E+00  0.00000000000E+00  0.96573905644E+03  0.96573905644E+03  0.00000000000E+00 0. -1.
          1   -1    0    0  501    0 -0.00000000000E+00 -0.00000000000E+00 -0.12064319445E+03  0.12064319445E+03  0.00000000000E+00 0. -1.
         25    2    1    2    0    0 -0.89512006234E+02  0.51165351084E+02  0.26709349955E+03  0.31239793757E+03  0.12499296574E+03 0.  0.
          2    1    1    2  501    0 -0.13779986979E+02  0.10218923712E+03 -0.53361621038E+02  0.11610336268E+03  0.00000000000E+00 0. -1.
          1    1    1    2  502    0  0.10329199321E+03 -0.15335458821E+03  0.63136398348E+03  0.65788095064E+03  0.00000000000E+00 0. -1.
         22    1    3    3    0    0 -0.25257050626E+02  0.17784934195E+02  0.22805276946E+03  0.23013536918E+03  0.00000000000E+00 0.  1.
         22    1    3    3    0    0 -0.64254955608E+02  0.33380416889E+02  0.39040730089E+02  0.82262568388E+02  0.00000000000E+00 0.  1.
</event>
<event>
 7    1  0.6508013E-006  0.3532787E+02  0.7818608E-02  0.1569586E+00
          2   -1    0    0  502    0  0.00000000000E+00  0.00000000000E+00  0.20374057727E+04  0.20374057727E+04  0.00000000000E+00 0. -1.
          1   -1    0    0  501    0 -0.00000000000E+00 -0.00000000000E+00 -0.30286290277E+03  0.30286290277E+03  0.00000000000E+00 0. -1.
         25    2    1    2    0    0 -0.16992317367E+01  0.60192683189E+02  0.73208452491E+03  0.74511798230E+03  0.12500803750E+03 0.  0.
          2    1    1    2  501    0 -0.12100373034E+02 -0.33159665591E+02 -0.29511696036E+03  0.29722046151E+03  0.00000000000E+00 0. -1.
          1    1    1    2  502    0  0.13799604771E+02 -0.27033017598E+02  0.12975753054E+04  0.12979302317E+04  0.00000000000E+00 0. -1.
         22    1    3    3    0    0  0.17512927365E+02  0.95513365563E+02  0.46571976869E+03  0.47573564989E+03  0.00000000000E+00 0.  1.
         22    1    3    3    0    0 -0.19212159102E+02 -0.35320682374E+02  0.26636475622E+03  0.26938233241E+03  0.00000000000E+00 0.  1.
</event>
<event>
 7    1  0.6508013E-006  0.1042614E+03  0.7818608E-02  0.1302937E+00
          2   -1    0    0  502    0  0.00000000000E+00  0.00000000000E+00  0.46777867606E+03  0.46777867606E+03  0.00000000000E+00 0. -1.
          1   -1    0    0  501    0 -0.00000000000E+00 -0.00000000000E+00 -0.48235505493E+03  0.48235505493E+03  0.00000000000E+00 0. -1.
         25    2    1    2    0    0  0.15956371341E+01 -0.12557361696E+03 -0.19220007221E+03  0.26141135113E+03  0.12499498952E+03 0.  0.
          2    1    1    2  501    0 -0.65076724232E+02  0.80892601061E+02 -0.24128958963E+03  0.26267710027E+03  0.00000000000E+00 0. -1.
          1    1    1    2  502    0  0.63481087097E+02  0.44681015898E+02  0.41891328298E+03  0.42604527959E+03  0.00000000000E+00 0. -1.
         22    1    3    3    0    0 -0.51707397237E+02 -0.10838887404E+03 -0.11714309392E+03  0.16776265197E+03  0.00000000000E+00 0.  1.
         22    1    3    3    0    0  0.53303034371E+02 -0.17184742923E+02 -0.75056978293E+02  0.93648699153E+02  0.00000000000E+00 0.  1.
</event>
<event>
 7    1  0.6508013E-006  0.5186343E+02  0.7818608E-02  0.1450693E+00
          2   -1    0    0  502    0  0.00000000000E+00  0.00000000000E+00  0.19697852027E+03  0.19697852027E+03  0.00000000000E+00 0. -1.
          1   -1    0    0  501    0 -0.00000000000E+00 -0.00000000000E+00 -0.24247908082E+04  0.24247908082E+04  0.00000000000E+00 0. -1.
         25    2    1    2    0    0 -0.73567199541E+02 -0.62694540578E+02 -0.34997312690E+03  0.38399097806E+03  0.12500057366E+03 0.  0.
          2    1    1    2  501    0  0.42409250231E+02  0.28400208356E+02 -0.20545042067E+04  0.20551381101E+04  0.00000000000E+00 0. -1.
          1    1    1    2  502    0  0.31157949310E+02  0.34294332223E+02  0.17666504564E+03  0.18264024031E+03  0.00000000000E+00 0. -1.
         22    1    3    3    0    0 -0.37291435935E+02 -0.28086399013E+02 -0.32433856828E+03  0.32768125347E+03  0.00000000000E+00 0. -1.
         22    1    3    3    0    0 -0.36275763606E+02 -0.34608141565E+02 -0.25634558621E+02  0.56309724591E+02  0.00000000000E+00 0. -1.
</event>
<event>
 7    1  0.6508013E-006  0.4458188E+02  0.7818608E-02  0.1578052E+00
          2   -1    0    0  502    0  0.00000000000E+00  0.00000000000E+00  0.57044267851E+03  0.57044267851E+03  0.00000000000E+00 0. -1.
          1   -1    0    0  501    0 -0.00000000000E+00 -0.00000000000E+00 -0.91869428706E+03  0.91869428706E+03  0.00000000000E+00 0. -1.
         25    2    1    2    0    0  0.54760747699E+02 -0.10313776825E+02  0.13974904033E+03  0.19559901505E+03  0.12499626767E+03 0.  0.
          2    1    1    2  501    0 -0.11491252311E+02  0.19711792660E+02 -0.88940561254E+03  0.88969823383E+03  0.00000000000E+00 0. -1.
          1    1    1    2  502    0 -0.43269495388E+02 -0.93980158350E+01  0.40140496365E+03  0.40383971669E+03  0.00000000000E+00 0. -1.
         22    1    3    3    0    0  0.50314309872E+02  0.42824063843E+02  0.12314490691E+03  0.13975012816E+03  0.00000000000E+00 0. -1.
         22    1    3    3    0    0  0.44464378275E+01 -0.53137840667E+02  0.16604133422E+02  0.55848886890E+02  0.00000000000E+00 0. -1.
</event>
<event>
 7    1  0.6508013E-006  0.8454060E+02  0.7818608E-02  0.1364780E+00
          2   -1    0    0  502    0  0.00000000000E+00  0.00000000000E+00  0.75499071180E+02  0.75499071180E+02  0.00000000000E+00 0. -1.
          1   -1    0    0  501    0 -0.00000000000E+00 -0.00000000000E+00 -0.90886208527E+03  0.90886208527E+03  0.00000000000E+00 0. -1.
         25    2    1    2    0    0 -0.36644189074E+02  0.15794322965E+02 -0.17589346567E+03  0.21942847237E+03  0.12497234090E+03 0.  0.
          2    1    1    2  501    0  0.90935152954E+02 -0.32115489826E+01 -0.69292922838E+03  0.69887798051E+03  0.00000000000E+00 0. -1.
          1    1    1    2  502    0 -0.54290963880E+02 -0.12582773983E+02  0.35459679968E+02  0.66054703569E+02  0.00000000000E+00 0. -1.
         22    1    3    3    0    0 -0.68565832301E+02  0.25088171951E+02 -0.17085565815E+03  0.18580189895E+03  0.00000000000E+00 0. -1.
         22    1    3    3    0    0  0.31921643228E+02 -0.92938489853E+01 -0.50378075170E+01  0.33626573419E+02  0.00000000000E+00 0. -1.
</event>
<event>
 7    1  0.6508013E-006  0.1186571E+03  0.7818608E-02  0.1346663E+00
          2   -1    0    0  502    0  0.00000000000E+00  0.00000000000E+00  0.11255100435E+04  0.11255100435E+04  0.00000000000E+00 0. -1.
          1   -1    0    0  501    0 -0.00000000000E+00 -0.00000000000E+00 -0.32644604650E+03  0.32644604650E+03  0.00000000000E+00 0. -1.
         25    2    1    2    0    0 -0.14306388121E+03 -0.87714163294E+01  0.46874769977E+03  0.50585981747E+03  0.12500214817E+03 0.  0.
          2    1    1    2  501    0  0.11487776914E+03 -0.27937647858E+02 -0.29565474144E+03  0.31841661412E+03  0.00000000000E+00 0. -1.
          1    1    1    2  502    0  0.28186112067E+02  0.36709064187E+02  0.62597103864E+03  0.62767965837E+03  0.00000000000E+00 0. -1.
         22    1    3    3    0    0  0.10144588268E+02  0.17099005349E+02  0.11577428433E+02  0.23007075089E+02  0.00000000000E+00 0.  1.
         22    1    3    3    0    0 -0.15320846948E+03 -0.25870421678E+02  0.45717027133E+03  0.48285274239E+03  0.00000000000E+00 0.  1.
</event>
<event>
 7    1  0.6508013E-006  0.6846386E+02  0.7818608E-02  0.1460090E+00
          2   -1    0    0  502    0  0.00000000000E+00  0.00000000000E+00  0.12585091787E+04  0.12585091787E+04  0.00000000000E+00 0. -1.
          1   -1    0    0  501    0 -0.00000000000E+00 -0.00000000000E+00 -0.16672332125E+03  0.16672332125E+03  0.00000000000E+00 0. -1.
         25    2    1    2    0    0 -0.82759326627E+02 -0.26868673624E+02  0.31740810078E+02  0.15557230854E+03  0.12499692954E+03 0.  0.
          2    1    1    2  501    0  0.29026532743E+02 -0.15208921676E+02 -0.10121950289E+03  0.10639191072E+03  0.00000000000E+00 0. -1.
          1    1    1    2  502    0  0.53732793884E+02  0.42077595300E+02  0.11612645502E+04  0.11632682807E+04  0.00000000000E+00 0. -1.
         22    1    3    3    0    0  0.23326296048E+02 -0.28287984323E+02  0.33206397454E+02  0.49467069615E+02  0.00000000000E+00 0. -1.
         22    1    3    3    0    0 -0.10608562268E+03  0.14193106987E+01 -0.14655873764E+01  0.10610523893E+03  0.00000000000E+00 0. -1.
</event>
<event>
 7    1  0.6508013E-006  0.7977855E+02  0.7818608E-02  0.1355502E+00
          2   -1    0    0  502    0  0.00000000000E+00  0.00000000000E+00  0.37628902415E+03  0.37628902415E+03  0.00000000000E+00 0. -1.
          1   -1    0    0  501    0 -0.00000000000E+00 -0.00000000000E+00 -0.16341252121E+04  0.16341252121E+04  0.00000000000E+00 0. -1.
         25    2    1    2    0    0  0.33844732014E+02 -0.13640873398E+03 -0.21036426035E+02  0.18926361710E+03  0.12500150778E+03 0.  0.
          2    1    1    2  501    0 -0.31263326081E+02  0.72616916405E+02 -0.15244508666E+04  0.15264996091E+04  0.00000000000E+00 0. -1.
          1    1    1    2  502    0 -0.25814059328E+01  0.63791817575E+02  0.28765110470E+03  0.29465100997E+03  0.00000000000E+00 0. -1.
         22    1    3    3    0    0 -0.96859344790E+01 -0.13390361251E+03 -0.42290214821E+02  0.14075673000E+03  0.00000000000E+00 0.  1.
         22    1    3    3    0    0  0.43530666493E+02 -0.25051214722E+01  0.21253788786E+02  0.48506887106E+02  0.00000000000E+00 0.  1.
</event>
<event>
 7    1  0.6508013E-006  0.1685559E+03  0.7818608E-02  0.1275739E+00
          2   -1    0    0  502    0  0.00000000000E+00  0.00000000000E+00  0.13132353055E+04  0.13132353055E+04  0.00000000000E+00 0. -1.
          1   -1    0    0  501    0 -0.00000000000E+00 -0.00000000000E+00 -0.14707348292E+03  0.14707348292E+03  0.00000000000E+00 0. -1.
         25    2    1    2    0    0  0.17684545011E+03 -0.59518160185E+02  0.48707957489E+03  0.53636570499E+03  0.12499973041E+03 0.  0.
          2    1    1    2  501    0 -0.12002420423E+02  0.60791894726E+02 -0.10543373946E+03  0.12229466864E+03  0.00000000000E+00 0. -1.
          1    1    1    2  502    0 -0.16484302969E+03 -0.12737345407E+01  0.78451598712E+03  0.80164841476E+03  0.00000000000E+00 0. -1.
         22    1    3    3    0    0  0.13497528686E+01 -0.92885034007E+01 -0.56184222670E+01  0.10939140597E+02  0.00000000000E+00 0.  1.
         22    1    3    3    0    0  0.17549569724E+03 -0.50229656784E+02  0.49269799715E+03  0.52542656439E+03  0.00000000000E+00 0.  1.
</event>
<event>
 7    1  0.6508013E-006  0.9310623E+02  0.7818608E-02  0.1383164E+00
          2   -1    0    0  502    0  0.00000000000E+00  0.00000000000E+00  0.59699076567E+03  0.59699076567E+03  0.00000000000E+00 0. -1.
          1   -1    0    0  501    0 -0.00000000000E+00 -0.00000000000E+00 -0.18608712151E+03  0.18608712151E+03  0.00000000000E+00 0. -1.
         25    2    1    2    0    0  0.27533334458E+02 -0.60421299891E+02  0.13441401045E+03  0.19520002152E+03  0.12500841655E+03 0.  0.
          2    1    1    2  501    0 -0.24256405932E+01  0.95941865253E+02 -0.13966228668E+03  0.16945878425E+03  0.00000000000E+00 0. -1.
          1    1    1    2  502    0 -0.25107693864E+02 -0.35520565362E+02  0.41615192038E+03  0.41841908141E+03  0.00000000000E+00 0. -1.
         22    1    3    3    0    0  0.65129687153E+02 -0.72637279205E+02  0.11605398943E+03  0.15161325450E+03  0.00000000000E+00 0. -1.
         22    1    3    3    0    0 -0.37596352696E+02  0.12215979314E+02  0.18360021022E+02  0.43586767012E+02  0.00000000000E+00 0. -1.
</event>
<event>
 7    1  0.6508013E-006  0.8056603E+02  0.7818608E-02  0.1396294E+00
          2   -1    0    0  502    0  0.00000000000E+00  0.00000000000E+00  0.19927725285E+04  0.19927725285E+04  0.00000000000E+00 0. -1.
          1   -1    0    0  501    0 -0.00000000000E+00 -0.00000000000E+00 -0.59979425549E+02  0.59979425549E+02  0.00000000000E+00 0. -1.
         25    2    1    2    0    0  0.31938949888E+02 -0.52110241319E+02  0.36393307347E+03  0.38962376420E+03  0.12499528747E+03 0.  0.
          2    1    1    2  501    0 -0.33112373215E+02 -0.30816607052E+02 -0.34957680768E+02  0.57167578004E+02  0.00000000000E+00 0. -1.
          1    1    1    2  502    0  0.11734233275E+01  0.82926848371E+02  0.16038177102E+04  0.16059606118E+04  0.00000000000E+00 0. -1.
         22    1    3    3    0    0  0.23466863656E+02  0.30661861586E+02  0.41738190964E+02  0.56858772680E+02  0.00000000000E+00 0. -1.
         22    1    3    3    0    0  0.84720862316E+01 -0.82772102905E+02  0.32219488251E+03  0.33276499152E+03  0.00000000000E+00 0. -1.
</event>
<event>
 7    1  0.6508013E-006  0.5169621E+02  0.7818608E-02  0.1550405E+00
          2   -1    0    0  502    0  0.00000000000E+00  0.00000000000E+00  0.84182160443E+03  0.84182160443E+03  0.00000000000E+00 0. -1.
          1   -1    0    0  501    0 -0.00000000000E+00 -0.00000000000E+00 -0.11175124435E+03  0.11175124435E+03  0.00000000000E+00 0. -1.
         25    2    1    2    0    0 -0.32512828940E+02  0.41391892093E+02  0.54896400621E+02  0.14632090688E+03  0.12500328081E+03 0.  0.
          2    1    1    2  501    0  0.21535406836E+02  0.92117146551E+01 -0.63026242115E+02  0.67237910658E+02  0.00000000000E+00 0. -1.
          1    1    1    2  502    0  0.10977422103E+02 -0.50603606748E+02  0.73820020158E+03  0.74001403123E+03  0.00000000000E+00 0. -1.
         22    1    3    3    0    0 -0.56829885993E+02 -0.69813378521E+01 -0.13758023371E+02  0.58886825583E+02  0.00000000000E+00 0.  1.
         22    1    3    3    0    0  0.24317057054E+02  0.48373229945E+02  0.68654423992E+02  0.87434081299E+02  0.00000000000E+00 0.  1.
</event>
<event>
 7    1  0.6508013E-006  0.8423035E+02  0.7818608E-02  0.1338645E+00
          2   -1    0    0  502    0  0.00000000000E+00  0.00000000000E+00  0.86771631920E+02  0.86771631920E+02  0.00000000000E+00 0. -1.
          1   -1    0    0  501    0 -0.00000000000E+00 -0.00000000000E+00 -0.33852285416E+04  0.33852285416E+04  0.00000000000E+00 0. -1.
         25    2    1    2    0    0 -0.42672168732E+02  0.29723286601E+01 -0.25283651395E+02  0.13451381043E+03  0.12499981379E+03 0.  0.
          2    1    1    2  501    0 -0.48425349592E+02 -0.68918335468E+02 -0.32047261468E+04  0.32058328757E+04  0.00000000000E+00 0. -1.
          1    1    1    2  502    0  0.91097518324E+02  0.65946006808E+02 -0.68447111559E+02  0.13165348738E+03  0.00000000000E+00 0. -1.
         22    1    3    3    0    0  0.63821668740E+01  0.26290055203E+02  0.40812043351E+02  0.48964496720E+02  0.00000000000E+00 0.  1.
         22    1    3    3    0    0 -0.49054335606E+02 -0.23317726542E+02 -0.66095694747E+02  0.85549313714E+02  0.00000000000E+00 0.  1.
</event>
<event>
 7    1  0.6508013E-006  0.4028295E+02  0.7818608E-02  0.1539051E+00
          2   -1    0    0  502    0  0.00000000000E+00  0.00000000000E+00  0.22133970069E+04  0.22133970069E+04  0.00000000000E+00 0. -1.
          1   -1    0    0  501    0 -0.00000000000E+00 -0.00000000000E+00 -0.51860797224E+02  0.51860797224E+02  0.00000000000E+00 0. -1.
         25    2    1    2    0    0  0.57406228567E+02  0.35669774612E+02  0.99678598914E+02  0.17356971352E+03  0.12499125758E+03 0.  0.
          2    1    1    2  501    0 -0.18262941472E+02 -0.26701613182E+02  0.30548683204E+01  0.32493743986E+02  0.00000000000E+00 0. -1.
          1    1    1    2  502    0 -0.39143287095E+02 -0.89681614299E+01  0.20588027425E+04  0.20591943467E+04  0.00000000000E+00 0. -1.
         22    1    3    3    0    0 -0.72254893402E+01 -0.17459690522E+02 -0.20020266104E+02  0.27529248885E+02  0.00000000000E+00 0.  1.
         22    1    3    3    0    0  0.64631717907E+02  0.53129465134E+02  0.11969886502E+03  0.14604046464E+03  0.00000000000E+00 0.  1.
</event>
<event>
 7    1  0.6508013E-006  0.1069822E+03  0.7818608E-02  0.1450851E+00
          2   -1    0    0  502    0  0.00000000000E+00  0.00000000000E+00  0.74626400526E+02  0.74626400526E+02  0.00000000000E+00 0. -1.
          1   -1    0    0  501    0 -0.00000000000E+00 -0.00000000000E+00 -0.71256669122E+03  0.71256669122E+03  0.00000000000E+00 0. -1.
         25    2    1    2    0    0 -0.10146332465E+03  0.51868543950E+02 -0.18241578581E+03  0.24876864404E+03  0.12500066899E+03 0.  0.
          2    1    1    2  501    0  0.10192072773E+03 -0.29436840530E+02 -0.48775225128E+03  0.49915590846E+03  0.00000000000E+00 0. -1.
          1    1    1    2  502    0 -0.45740308554E+00 -0.22431703421E+02  0.32227746400E+02  0.39268539239E+02  0.00000000000E+00 0. -1.
         22    1    3    3    0    0 -0.51242271433E+02  0.11528239614E+02  0.28732391469E+01  0.52601579762E+02  0.00000000000E+00 0. -1.
         22    1    3    3    0    0 -0.50221053212E+02  0.40340304336E+02 -0.18528902495E+03  0.19616706428E+03  0.00000000000E+00 0. -1.
</event>
<event>
 7    1  0.6508013E-006  0.1392291E+03  0.7818608E-02  0.1329905E+00
          2   -1    0    0  502    0  0.00000000000E+00  0.00000000000E+00  0.21685547249E+03  0.21685547249E+03  0.00000000000E+00 0. -1.
          1   -1    0    0  501    0 -0.00000000000E+00 -0.00000000000E+00 -0.75836576377E+03  0.75836576377E+03  0.00000000000E+00 0. -1.
         25    2    1    2    0    0  0.14091673151E+03 -0.63594586283E+02 -0.18481223625E+03  0.27144618762E+03  0.12500269391E+03 0.  0.
          2    1    1    2  501    0 -0.13593012791E+03  0.18244706520E+02 -0.51815364362E+03  0.53599726435E+03  0.00000000000E+00 0. -1.
          1    1    1    2  502    0 -0.49866035957E+01  0.45349879763E+02  0.16145558860E+03  0.16777778428E+03  0.00000000000E+00 0. -1.
         22    1    3    3    0    0  0.15178603909E+03 -0.56201633938E+02 -0.11049765126E+03  0.19597794838E+03  0.00000000000E+00 0. -1.
         22    1    3    3    0    0 -0.10869307579E+02 -0.73929523450E+01 -0.74314584992E+02  0.75468239241E+02  0.00000000000E+00 0. -1.
</event>
<event>
 7    1  0.6508013E-006  0.6148079E+02  0.7818608E-02  0.1501325E+00
          2   -1    0    0  502    0  0.00000000000E+00  0.00000000000E+00  0.13074484150E+04  0.13074484150E+04  0.00000000000E+00 0. -1.
          1   -1    0    0  501    0 -0.00000000000E+00 -0.00000000000E+00 -0.17408792704E+03  0.17408792704E+03  0.00000000000E+00 0. -1.
         25    2    1    2    0    0  0.50409500211E+02 -0.44387832671E+02  0.76513819009E+02  0.16121746277E+03  0.12500123361E+03 0.  0.
          2    1    1    2  501    0 -0.25659576790E+02  0.55854013944E+02 -0.12440028186E+03  0.13875703543E+03  0.00000000000E+00 0. -1.
          1    1    1    2  502    0 -0.24749923421E+02 -0.11466181273E+02  0.11812469508E+04  0.11815618438E+04  0.00000000000E+00 0. -1.
         22    1    3    3    0    0  0.75163683055E+02 -0.36456108235E+02  0.33855726171E+01  0.83606753196E+02  0.00000000000E+00 0. -1.
         22    1    3    3    0    0 -0.24754182844E+02 -0.79317244355E+01  0.73128246392E+02  0.77610709577E+02  0.00000000000E+00 0. -1.
</event>
<event>
 7    1  0.6508013E-006  0.1092730E+03  0.7818608E-02  0.1308238E+00
          2   -1    0    0  502    0  0.00000000000E+00  0.00000000000E+00  0.53491523774E+03  0.53491523774E+03  0.00000000000E+00 0. -1.
          1   -1    0    0  501    0 -0.00000000000E+00 -0.00000000000E+00 -0.61336689311E+03  0.61336689311E+03  0.00000000000E+00 0. -1.
         25    2    1    2    0    0 -0.76425853926E+02 -0.30659058323E+02  0.26757459393E+03  0.30659260218E+03  0.12498788497E+03 0.  0.
          2    1    1    2  501    0  0.10471710926E+03 -0.33987265567E+02 -0.58358121552E+03  0.59387527504E+03  0.00000000000E+00 0. -1.
          1    1    1    2  502    0 -0.28291255331E+02  0.64646323890E+02  0.23755496622E+03  0.24781425362E+03  0.00000000000E+00 0. -1.
         22    1    3    3    0    0 -0.60635566381E+02  0.39128977410E+02  0.17713719563E+03  0.19127293290E+03  0.00000000000E+00 0.  1.
         22    1    3    3    0    0 -0.15790287545E+02 -0.69788035733E+02  0.90437398303E+02  0.11531966929E+03  0.00000000000E+00 0.  1.
</event>
<event>
 7    1  0.6508013E-006  0.1082182E+03  0.7818608E-02  0.1279473E+00
          2   -1    0    0  502    0  0.00000000000E+00  0.00000000000E+00  0.82251452577E+03  0.82251452577E+03  0.00000000000E+00 0. -1.
          1   -1    0    0  501    0 -0.00000000000E+00 -0.00000000000E+00 -0.85496189340E+03  0.85496189340E+03  0.00000000000E+00 0. -1.
         25    2    1    2    0    0 -0.36319200971E+02 -0.48419668890E+02  0.26209163466E+03  0.29661528314E+03  0.12500021015E+03 0.  0.
          2    1    1    2  501    0  0.94372697122E+02 -0.52962072551E+02 -0.82785549011E+03  0.83489873614E+03  0.00000000000E+00 0. -1.
          1    1    1    2  502    0 -0.58053496152E+02  0.10138174144E+03  0.53331648782E+03  0.54596239989E+03  0.00000000000E+00 0. -1.
         22    1    3    3    0    0 -0.37041427470E+02  0.40527643163E+01  0.23427778509E+03  0.23722262294E+03  0.00000000000E+00 0.  1.
         22    1    3    3    0    0  0.72222649970E+00 -0.52472433206E+02  0.27813849572E+02  0.59392660201E+02  0.00000000000E+00 0.  1.
</event>
<event>
 7    1  0.6508013E-006  0.1148839E+03  0.7818608E-02  0.1310460E+00
          2   -1    0    0  502    0  0.00000000000E+00  0.00000000000E+00  0.68039272838E+03  0.68039272838E+03  0.00000000000E+00 0. -1.
          1   -1    0    0  501    0 -0.00000000000E+00 -0.00000000000E+00 -0.12379051881E+03  0.12379051881E+03  0.00000000000E+00 0. -1.
         25    2    1    2    0    0  0.69741078442E+02  0.73485209000E+02  0.39824699022E+03  0.42952241996E+03  0.12499980025E+03 0.  0.
          2    1    1    2  501    0 -0.19284797260E+02 -0.11568675975E+03 -0.70295744780E+02  0.13673632115E+03  0.00000000000E+00 0. -1.
          1    1    1    2  502    0 -0.50456281181E+02  0.42201550753E+02  0.22865096413E+03  0.23792450608E+03  0.00000000000E+00 0. -1.
         22    1    3    3    0    0 -0.29669000535E+02  0.43692163803E+02  0.90917535133E+02  0.10514396305E+03  0.00000000000E+00 0.  1.
         22    1    3    3    0    0  0.99410078977E+02  0.29793045198E+02  0.30732945508E+03  0.32437845691E+03  0.00000000000E+00 0.  1.
</event>
<event>
 7    1  0.6508013E-006  0.4017736E+02  0.7818608E-02  0.1551727E+00
          2   -1    0    0  502    0  0.00000000000E+00  0.00000000000E+00  0.51805984976E+03  0.51805984976E+03  0.00000000000E+00 0. -1.
          1   -1    0    0  501    0 -0.00000000000E+00 -0.00000000000E+00 -0.36893201551E+03  0.36893201551E+03  0.00000000000E+00 0. -1.
         25    2    1    2    0    0  0.12375141027E+02 -0.76768351485E+01  0.14346334534E+03  0.19084620823E+03  0.12501386254E+03 0.  0.
          2    1    1    2  501    0 -0.40262036079E+02 -0.30636388166E+01 -0.34341936832E+03  0.34578501987E+03  0.00000000000E+00 0. -1.
          1    1    1    2  502    0  0.27886895052E+02  0.10740473965E+02  0.34908385723E+03  0.35036063716E+03  0.00000000000E+00 0. -1.
         22    1    3    3    0    0 -0.50702457880E+02  0.18825193503E+02  0.85525928287E+02  0.10119195400E+03  0.00000000000E+00 0.  1.
         22    1    3    3    0    0  0.63077598907E+02 -0.26502028651E+02  0.57937417056E+02  0.89654254230E+02  0.00000000000E+00 0.  1.
</event>
<event>
 7    1  0.6508013E-006  0.1715873E+03  0.7818608E-02  0.1317370E+00
          2   -1    0    0  502    0  0.00000000000E+00  0.00000000000E+00  0.23438859323E+04  0.23438859323E+04  0.00000000000E+00 0. -1.
          1   -1    0    0  501    0 -0.00000000000E+00 -0.00000000000E+00 -0.49162744523E+03  0.49162744523E+03  0.00000000000E+00 0. -1.
         25    2    1    2    0    0  0.17798337299E+03 -0.78398577822E+01  0.19112936091E+03  0.28964586312E+03  0.12499899597E+03 0.  0.
          2    1    1    2  501    0 -0.16485554327E+03  0.47082528722E+02 -0.42554460241E+03  0.45878352553E+03  0.00000000000E+00 0. -1.
          1    1    1    2  502    0 -0.13127829722E+02 -0.39242670940E+02  0.20866737286E+04  0.20870839889E+04  0.00000000000E+00 0. -1.
         22    1    3    3    0    0  0.25966180323E+02  0.20210904497E+02  0.11050579865E+03  0.11530071429E+03  0.00000000000E+00 0.  1.
         22    1    3    3    0    0  0.15201719266E+03 -0.28050762279E+02  0.80623562264E+02  0.17434514883E+03  0.00000000000E+00 0.  1.
</event>
<event>
 7    1  0.6508013E-006  0.8238404E+02  0.7818608E-02  0.1466479E+00
          2   -1    0    0  502    0  0.00000000000E+00  0.00000000000E+00  0.10828223082E+03  0.10828223082E+03  0.00000000000E+00 0. -1.
          1   -1    0    0  501    0 -0.00000000000E+00 -0.00000000000E+00 -0.13877484556E+04  0.13877484556E+04  0.00000000000E+00 0. -1.
         25    2    1    2    0    0 -0.25584066676E+02 -0.59705462702E+02 -0.11084940905E+03  0.17925305426E+03  0.12499911692E+03 0.  0.
          2    1    1    2  501    0  0.50859242290E+02  0.65815236753E+02 -0.12389771888E+04  0.12417659934E+04  0.00000000000E+00 0. -1.
          1    1    1    2  502    0 -0.25275175615E+02 -0.61097740509E+01  0.70360373116E+02  0.75011638739E+02  0.00000000000E+00 0. -1.
         22    1    3    3    0    0 -0.23903073389E+02  0.28449180179E+02 -0.75712264712E+02  0.84338957772E+02  0.00000000000E+00 0. -1.
         22    1    3    3    0    0 -0.16809932865E+01 -0.88154642881E+02 -0.35137144341E+02  0.94914096490E+02  0.00000000000E+00 0. -1.
</event>
<event>
 7    1  0.6508013E-006  0.1714907E+03  0.7818608E-02  0.1288233E+00
          2   -1    0    0  502    0  0.00000000000E+00  0.00000000000E+00  0.60565638367E+03  0.60565638367E+03  0.00000000000E+00 0. -1.
          1   -1    0    0  501    0 -0.00000000000E+00 -0.00000000000E+00 -0.34686222230E+03  0.34686222230E+03  0.00000000000E+00 0. -1.
         25    2    1    2    0    0 -0.11109141103E+02  0.14336885359E+03  0.23157647061E+03  0.29989002363E+03  0.12501329263E+03 0.  0.
          2    1    1    2  501    0 -0.35462628726E+02 -0.17089478551E+03 -0.28584947784E+03  0.33492170686E+03  0.00000000000E+00 0. -1.
          1    1    1    2  502    0  0.46571769829E+02  0.27525931913E+02  0.31306716859E+03  0.31770687548E+03  0.00000000000E+00 0. -1.
         22    1    3    3    0    0 -0.62705317375E+02  0.73758019331E+02  0.81284918228E+02  0.12640981043E+03  0.00000000000E+00 0.  1.
         22    1    3    3    0    0  0.51596176272E+02  0.69610834261E+02  0.15029155238E+03  0.17348021320E+03  0.00000000000E+00 0.  1.
</event>
<event>
 7    1  0.6508013E-006  0.8630497E+02  0.7818608E-02  0.1445760E+00
          2   -1    0    0  502    0  0.00000000000E+00  0.00000000000E+00  0.72833872789E+03  0.72833872789E+03  0.00000000000E+00 0. -1.
          1   -1    0    0  501    0 -0.00000000000E+00 -0.00000000000E+00 -0.68695393125E+03  0.68695393125E+03  0.00000000000E+00 0. -1.
         25    2    1    2    0    0  0.21610498430E+02  0.10959284675E+03  0.30645238620E+03  0.34930834462E+03  0.12500259563E+03 0.  0.
          2    1    1    2  501    0 -0.27976096907E+02 -0.81425851461E+02 -0.66221494114E+03  0.66778848414E+03  0.00000000000E+00 0. -1.
          1    1    1    2  502    0  0.63655984766E+01 -0.28166995284E+02  0.39714735157E+03  0.39819583037E+03  0.00000000000E+00 0. -1.
         22    1    3    3    0    0  0.59391517316E+02  0.13946641914E+02  0.15164313238E+03  0.16345488903E+03  0.00000000000E+00 0. -1.
         22    1    3    3    0    0 -0.37781018886E+02  0.95646204832E+02  0.15480925382E+03  0.18585345559E+03  0.00000000000E+00 0. -1.
</event>
<event>
 7    1  0.8133747E-006  0.5335516E+02  0.7818608E-02  0.1438973E+00
          2   -1    0    0  502    0  0.00000000000E+00  0.00000000000E+00  0.74930263498E+03  0.74930263498E+03  0.00000000000E+00 0. -1.
          1   -1    0    0  501    0 -0.00000000000E+00 -0.00000000000E+00 -0.14208798317E+04  0.14208798317E+04  0.00000000000E+00 0. -1.
         25    2    1    2    0    0 -0.17375768973E+01  0.72201281201E+01 -0.27739700871E+03  0.30435104055E+03  0.12500122407E+03 0.  0.
          2    1    1    2  501    0 -0.46387833418E+02  0.16191820271E+02 -0.11284974537E+04  0.11295665138E+04  0.00000000000E+00 0. -1.
          1    1    1    2  502    0  0.48125410315E+02 -0.23411948391E+02  0.73431726568E+03  0.73626491232E+03  0.00000000000E+00 0. -1.
         22    1    3    3    0    0 -0.39289579677E+02  0.18133349451E+00 -0.25896988329E+03  0.26193339689E+03  0.00000000000E+00 0.  1.
         22    1    3    3    0    0  0.37552002780E+02  0.70387946256E+01 -0.18427125419E+02  0.42417643661E+02  0.00000000000E+00 0.  1.
</event>
<event>
 7    1  0.6508013E-006  0.3194406E+02  0.7818608E-02  0.1590062E+00
          2   -1    0    0  502    0  0.00000000000E+00  0.00000000000E+00  0.98424800657E+02  0.98424800657E+02  0.00000000000E+00 0. -1.
          1   -1    0    0  501    0 -0.00000000000E+00 -0.00000000000E+00 -0.34407589457E+03  0.34407589457E+03  0.00000000000E+00 0. -1.
         25    2    1    2    0    0 -0.27302279272E+02 -0.11867502232E+02 -0.11310164778E+02  0.12899229915E+03  0.12499936540E+03 0.  0.
          2    1    1    2  501    0  0.20915082219E+02 -0.20916228986E+02 -0.26590993000E+03  0.26755003303E+03  0.00000000000E+00 0. -1.
          1    1    1    2  502    0  0.63871970526E+01  0.32783731218E+02  0.31569000865E+02  0.45958363051E+02  0.00000000000E+00 0. -1.
         22    1    3    3    0    0  0.95261875964E+01  0.52502732632E+02 -0.12570044387E+02  0.54820536296E+02  0.00000000000E+00 0.  1.
         22    1    3    3    0    0 -0.36828466868E+02 -0.64370234864E+02  0.12598796097E+01  0.74171762854E+02  0.00000000000E+00 0.  1.
</event>
<event>
 7    1  0.6508013E-006  0.3072373E+02  0.7818608E-02  0.1643817E+00
          2   -1    0    0  502    0  0.00000000000E+00  0.00000000000E+00  0.14316041992E+04  0.14316041992E+04  0.00000000000E+00 0. -1.
          1   -1    0    0  501    0 -0.00000000000E+00 -0.00000000000E+00 -0.26888270747E+03  0.26888270747E+03  0.00000000000E+00 0. -1.
         25    2    1    2    0    0  0.36019558141E+02  0.33277892511E+02  0.23431202558E+03  0.27005920531E+03  0.12500008936E+03 0.  0.
          2    1    1    2  501    0 -0.14502095036E+02 -0.27019769245E+02 -0.24996559376E+03  0.25183958536E+03  0.00000000000E+00 0. -1.
          1    1    1    2  502    0 -0.21517463105E+02 -0.62581232663E+01  0.11783750600E+04  0.11785881160E+04  0.00000000000E+00 0. -1.
         22    1    3    3    0    0  0.71052923781E+02  0.32511995059E+02  0.21766315902E+03  0.23126348306E+03  0.00000000000E+00 0. -1.
         22    1    3    3    0    0 -0.35033365640E+02  0.76589745206E+00  0.16648866556E+02  0.38795722246E+02  0.00000000000E+00 0. -1.
</event>
<event>
 7    1  0.6508013E-006  0.1315447E+03  0.7818608E-02  0.1268798E+00
          2   -1    0    0  502    0  0.00000000000E+00  0.00000000000E+00  0.18151432274E+03  0.18151432274E+03  0.00000000000E+00 0. -1.
          1   -1    0    0  501    0 -0.00000000000E+00 -0.00000000000E+00 -0.11367639637E+04  0.11367639637E+04  0.00000000000E+00 0. -1.
         25    2    1    2    0    0  0.78272847663E+02 -0.67334925659E+02 -0.34772945937E+03  0.38367881885E+03  0.12503210876E+03 0.  0.
          2    1    1    2  501    0 -0.14742442717E+03  0.18096203990E+02 -0.75227014538E+03  0.76679319634E+03  0.00000000000E+00 0. -1.
          1    1    1    2  502    0  0.69151579503E+02  0.49238721669E+02  0.14474996379E+03  0.16780627126E+03  0.00000000000E+00 0. -1.
         22    1    3    3    0    0  0.31479828650E+02 -0.93895017428E+02 -0.15802605138E+03  0.18649259188E+03  0.00000000000E+00 0. -1.
         22    1    3    3    0    0  0.46793019013E+02  0.26560091770E+02 -0.18970340799E+03  0.19718622697E+03  0.00000000000E+00 0. -1.
</event>
<event>
 7    1  0.6508013E-006  0.1406385E+03  0.7818608E-02  0.1374732E+00
          2   -1    0    0  502    0  0.00000000000E+00  0.00000000000E+00  0.22194166762E+04  0.22194166762E+04  0.00000000000E+00 0. -1.
          1   -1    0    0  501    0 -0.00000000000E+00 -0.00000000000E+00 -0.37360697382E+03  0.37360697382E+03  0.00000000000E+00 0. -1.
         25    2    1    2    0    0  0.16291199443E+02 -0.11506609945E+03  0.59929529197E+03  0.62312561917E+03  0.12500031947E+03 0.  0.
          2    1    1    2  501    0  0.78300634844E-01  0.14121510995E+03 -0.34775325594E+03  0.37533190702E+03  0.00000000000E+00 0. -1.
          1    1    1    2  502    0 -0.16369500078E+02 -0.26149010506E+02  0.15942676663E+04  0.15945661238E+04  0.00000000000E+00 0. -1.
         22    1    3    3    0    0  0.40918792003E+02 -0.12944504120E+03  0.41510752116E+03  0.43674319726E+03  0.00000000000E+00 0. -1.
         22    1    3    3    0    0 -0.24627592560E+02  0.14378941752E+02  0.18418777080E+03  0.18638242190E+03  0.00000000000E+00 0. -1.
</event>
<event>
 7    1  0.6508013E-006  0.5991785E+02  0.7818608E-02  0.1466458E+00
          2   -1    0    0  502    0  0.00000000000E+00  0.00000000000E+00  0.15243745951E+04  0.15243745951E+04  0.00000000000E+00 0. -1.
          1   -1    0    0  501    0 -0.00000000000E+00 -0.00000000000E+00 -0.10318558297E+03  0.10318558297E+03  0.00000000000E+00 0. -1.
         25    2    1    2    0    0  0.16898085053E+02 -0.25314519085E+02  0.38468791242E+03  0.40563108305E+03  0.12500166168E+03 0.  0.
          2    1    1    2  501    0  0.34048940532E+02 -0.10924331564E+02 -0.88365451218E+02  0.95326409460E+02  0.00000000000E+00 0. -1.
          1    1    1    2  502    0 -0.50947025585E+02  0.36238850649E+02  0.11248665510E+04  0.11266026856E+04  0.00000000000E+00 0. -1.
         22    1    3    3    0    0  0.20563634323E+02  0.49304277721E+02  0.14260860260E+03  0.15228587720E+03  0.00000000000E+00 0.  1.
         22    1    3    3    0    0 -0.36655492696E+01 -0.74618796806E+02  0.24207930982E+03  0.25334520586E+03  0.00000000000E+00 0.  1.
</event>
<event>
 7    1  0.6508013E-006  0.1109333E+03  0.7818608E-02  0.1287975E+00
          2   -1    0    0  502    0  0.00000000000E+00  0.00000000000E+00  0.56312212703E+03  0.56312212703E+03  0.00000000000E+00 0. -1.
          1   -1    0    0  501    0 -0.00000000000E+00 -0.00000000000E+00 -0.57195291315E+03  0.57195291315E+03  0.00000000000E+00 0. -1.
         25    2    1    2    0    0  0.10692991723E+03  0.10650189622E+03  0.27304573321E+03  0.33608883049E+03  0.12500027384E+03 0.  0.
          2    1    1    2  501    0 -0.23114149457E+02 -0.10818806563E+03 -0.52774641630E+03  0.53921721168E+03  0.00000000000E+00 0. -1.
          1    1    1    2  502    0 -0.83815767774E+02  0.16861694109E+01  0.24586989697E+03  0.25976899802E+03  0.00000000000E+00 0. -1.
         22    1    3    3    0    0  0.80824318426E+01  0.19630520526E+02 -0.10358890787E+02  0.23621804735E+02  0.00000000000E+00 0.  1.
         22    1    3    3    0    0  0.98847485388E+02  0.86871375694E+02  0.28340462400E+03  0.31246702576E+03  0.00000000000E+00 0.  1.
</event>
<event>
 7    1  0.6508013E-006  0.1537175E+03  0.7818608E-02  0.1238750E+00
          2   -1    0    0  502    0  0.00000000000E+00  0.00000000000E+00  0.13232555347E+04  0.13232555347E+04  0.00000000000E+00 0. -1.
          1   -1    0    0  501    0 -0.00000000000E+00 -0.00000000000E+00 -0.29986990164E+03  0.29986990164E+03  0.00000000000E+00 0. -1.
         25    2    1    2    0    0 -0.76062113812E+02 -0.75283348361E+02  0.67001260286E+01  0.16468942028E+03  0.12499874306E+03 0.  0.
          2    1    1    2  501    0  0.54486525899E+02 -0.81335940153E+02 -0.20467601490E+03  0.22688452513E+03  0.00000000000E+00 0. -1.
          1    1    1    2  502    0  0.21575587913E+02  0.15661928851E+03  0.12213615219E+04  0.12315514909E+04  0.00000000000E+00 0. -1.
         22    1    3    3    0    0 -0.10083559931E+03 -0.88393306849E+02  0.16258265117E+02  0.13507600072E+03  0.00000000000E+00 0.  1.
         22    1    3    3    0    0  0.24773485503E+02  0.13109958488E+02 -0.95581390879E+01  0.29613419565E+02  0.00000000000E+00 0.  1.
</event>
<event>
 7    1  0.6508013E-006  0.1643446E+03  0.7818608E-02  0.1205235E+00
          2   -1    0    0  502    0  0.00000000000E+00  0.00000000000E+00  0.14113126788E+04  0.14113126788E+04  0.00000000000E+00 0. -1.
          1   -1    0    0  501    0 -0.00000000000E+00 -0.00000000000E+00 -0.10805216640E+03  0.10805216640E+03  0.00000000000E+00 0. -1.
         25    2    1    2    0    0  0.85261143204E+02 -0.24904117824E+03  0.30403600309E+03  0.42113390614E+03  0.12499961891E+03 0.  0.
          2    1    1    2  501    0 -0.89947579747E+02  0.93914587820E+02  0.54759612418E+02  0.14109972381E+03  0.00000000000E+00 0. -1.
          1    1    1    2  502    0  0.46864365431E+01  0.15512659042E+03  0.94446489686E+03  0.95713121522E+03  0.00000000000E+00 0. -1.
         22    1    3    3    0    0  0.45194151560E+02 -0.19297418959E+03  0.13840326503E+03  0.24173748769E+03  0.00000000000E+00 0. -1.
         22    1    3    3    0    0  0.40066991644E+02 -0.56066988646E+02  0.16563273806E+03  0.17939641845E+03  0.00000000000E+00 0. -1.
</event>
<event>
 7    1  0.6508013E-006  0.2103881E+03  0.7818608E-02  0.1210899E+00
          2   -1    0    0  502    0  0.00000000000E+00  0.00000000000E+00  0.33129459492E+04  0.33129459492E+04  0.00000000000E+00 0. -1.
          1   -1    0    0  501    0 -0.00000000000E+00 -0.00000000000E+00 -0.13384323489E+04  0.13384323489E+04  0.00000000000E+00 0. -1.
         25    2    1    2    0    0 -0.16617162104E+03  0.14002451040E+03 -0.17519462007E+03  0.30583901338E+03  0.12499790420E+03 0.  0.
          2    1    1    2  501    0  0.80106415091E+02  0.52178287490E+02 -0.10924117444E+04  0.10965869919E+04  0.00000000000E+00 0. -1.
          1    1    1    2  502    0  0.86065205947E+02 -0.19220279789E+03  0.32421199648E+04  0.32489522929E+04  0.00000000000E+00 0. -1.
         22    1    3    3    0    0 -0.66137127811E+02  0.55311910629E+02 -0.14902412937E+03  0.17216770390E+03  0.00000000000E+00 0.  1.
         22    1    3    3    0    0 -0.10003449323E+03  0.84712599775E+02 -0.26170490708E+02  0.13367130949E+03  0.00000000000E+00 0.  1.
</event>
<event>
 7    1  0.6508013E-006  0.1215562E+03  0.7818608E-02  0.1247030E+00
          2   -1    0    0  502    0  0.00000000000E+00  0.00000000000E+00  0.45317747019E+03  0.45317747019E+03  0.00000000000E+00 0. -1.
          1   -1    0    0  501    0 -0.00000000000E+00 -0.00000000000E+00 -0.34738919498E+03  0.34738919498E+03  0.00000000000E+00 0. -1.
         25    2    1    2    0    0 -0.55829805393E+02  0.23202306152E+02  0.63089411199E+02  0.15252087664E+03  0.12500811904E+03 0.  0.
          2    1    1    2  501    0 -0.55294668173E+01  0.11372948193E+03 -0.27448227938E+03  0.29716239964E+03  0.00000000000E+00 0. -1.
          1    1    1    2  502    0  0.61359272210E+02 -0.13693178808E+03  0.31718114339E+03  0.35088338888E+03  0.00000000000E+00 0. -1.
         22    1    3    3    0    0 -0.75243021424E+02 -0.28734808499E+02  0.21954846035E+02  0.83481834892E+02  0.00000000000E+00 0.  1.
         22    1    3    3    0    0  0.19413216031E+02  0.51937114651E+02  0.41134565164E+02  0.69039041753E+02  0.00000000000E+00 0.  1.
</event>
<event>
 7    1  0.6508013E-006  0.3760902E+02  0.7818608E-02  0.1559035E+00
          2   -1    0    0  502    0  0.00000000000E+00  0.00000000000E+00  0.70398493596E+03  0.70398493596E+03  0.00000000000E+00 0. -1.
          1   -1    0    0  501    0 -0.00000000000E+00 -0.00000000000E+00 -0.25638303050E+03  0.25638303050E+03  0.00000000000E+00 0. -1.
         25    2    1    2    0    0 -0.36929583478E+02 -0.12397415270E+02  0.31422507049E+03  0.34041284042E+03  0.12500406778E+03 0.  0.
          2    1    1    2  501    0  0.20701812056E+02 -0.22358675578E+02 -0.24135216852E+03  0.24326805102E+03  0.00000000000E+00 0. -1.
          1    1    1    2  502    0  0.16227771422E+02  0.34756090848E+02  0.37472900350E+03  0.37668707501E+03  0.00000000000E+00 0. -1.
         22    1    3    3    0    0 -0.29645508889E+02  0.51665691849E+02  0.97081916280E+02  0.11389951001E+03  0.00000000000E+00 0.  1.
         22    1    3    3    0    0 -0.72840745894E+01 -0.64063107119E+02  0.21714315421E+03  0.22651333041E+03  0.00000000000E+00 0.  1.
</event>
<event>
 7    1  0.6508013E-006  0.9444354E+02  0.7818608E-02  0.1313646E+00
          2   -1    0    0  502    0  0.00000000000E+00  0.00000000000E+00  0.83222930799E+03  0.83222930799E+03  0.00000000000E+00 0. -1.
          1   -1    0    0  501    0 -0.00000000000E+00 -0.00000000000E+00 -0.58347774229E+03  0.58347774229E+03  0.00000000000E+00 0. -1.
         25    2    1    2    0    0 -0.64453011559E+00  0.24180957600E+02  0.82329788213E+02  0.15161572295E+03  0.12499599709E+03 0.  0.
          2    1    1    2  501    0 -0.10196902167E+02  0.77070307702E+02 -0.54242493767E+03  0.54796771999E+03  0.00000000000E+00 0. -1.
          1    1    1    2  502    0  0.10841432282E+02 -0.10125126530E+03  0.70884671516E+03  0.71612360733E+03  0.00000000000E+00 0. -1.
         22    1    3    3    0    0 -0.16773559201E+02  0.38528931406E+02 -0.20350891740E+02  0.46690359157E+02  0.00000000000E+00 0.  1.
         22    1    3    3    0    0  0.16129029085E+02 -0.14347973806E+02  0.10268067995E+03  0.10492536379E+03  0.00000000000E+00 0.  1.
</event>
<event>
 7    1  0.6508013E-006  0.6774740E+02  0.7818608E-02  0.1380616E+00
          2   -1    0    0  502    0  0.00000000000E+00  0.00000000000E+00  0.14344095832E+03  0.14344095832E+03  0.00000000000E+00 0. -1.
          1   -1    0    0  501    0 -0.00000000000E+00 -0.00000000000E+00 -0.21486387820E+04  0.21486387820E+04  0.00000000000E+00 0. -1.
         25    2    1    2    0    0  0.18823625985E+02 -0.11916390098E+03 -0.75159120895E+02  0.18928251726E+03  0.12499845477E+03 0.  0.
          2    1    1    2  501    0 -0.31494973400E+02  0.59461753103E+02 -0.20050019952E+04  0.20061307619E+04  0.00000000000E+00 0. -1.
          1    1    1    2  502    0  0.12671347414E+02  0.59702147875E+02  0.74963292362E+02  0.96666461133E+02  0.00000000000E+00 0. -1.
         22    1    3    3    0    0 -0.11705151238E+02  0.16920887251E+02  0.12953625451E+02  0.24313029494E+02  0.00000000000E+00 0. -1.
         22    1    3    3    0    0  0.30528777223E+02 -0.13608478823E+03 -0.88112746347E+02  0.16496948777E+03  0.00000000000E+00 0. -1.
</event>
<event>
 7    1  0.6508013E-006  0.5551538E+02  0.7818608E-02  0.1542895E+00
          2   -1    0    0  502    0  0.00000000000E+00  0.00000000000E+00  0.37513132381E+03  0.37513132381E+03  0.00000000000E+00 0. -1.
          1   -1    0    0  501    0 -0.00000000000E+00 -0.00000000000E+00 -0.29156468704E+03  0.29156468704E+03  0.00000000000E+00 0. -1.
         25    2    1    2    0    0 -0.26761470382E+02  0.20276848168E+02 -0.72818348306E+02  0.14850719456E+03  0.12499819246E+03 0.  0.
          2    1    1    2  501    0 -0.21260261251E+02  0.84944416872E+01 -0.17784019087E+03  0.17930780166E+03  0.00000000000E+00 0. -1.
          1    1    1    2  502    0  0.48021731633E+02 -0.28771289855E+02  0.33422517596E+03  0.33888101462E+03  0.00000000000E+00 0. -1.
         22    1    3    3    0    0 -0.43292532062E+02 -0.34096686450E+01  0.22499386843E+02  0.48909013289E+02  0.00000000000E+00 0.  1.
         22    1    3    3    0    0  0.16531061680E+02  0.23686516813E+02 -0.95317735149E+02  0.99598181273E+02  0.00000000000E+00 0.  1.
</event>
<event>
 7    1  0.6508013E-006  0.1315953E+03  0.7818608E-02  0.1399557E+00
          2   -1    0    0  502    0  0.00000000000E+00  0.00000000000E+00  0.27487945604E+04  0.27487945604E+04  0.00000000000E+00 0. -1.
          1   -1    0    0  501    0 -0.00000000000E+00 -0.00000000000E+00 -0.13969308537E+03  0.13969308537E+03  0.00000000000E+00 0. -1.
         25    2    1    2    0    0  0.37154795820E+01  0.15786510451E+03  0.12682239567E+04  0.12841152769E+04  0.12499937579E+03 0.  0.
          2    1    1    2  501    0 -0.31143959828E+01 -0.13088696213E+03 -0.99063335890E+02  0.16417868569E+03  0.00000000000E+00 0. -1.
          1    1    1    2  502    0 -0.60108359918E+00 -0.26978142376E+02  0.14399408542E+04  0.14401936832E+04  0.00000000000E+00 0. -1.
         22    1    3    3    0    0 -0.14279918184E+02  0.95393930697E+02  0.33446490910E+03  0.34809581080E+03  0.00000000000E+00 0. -1.
         22    1    3    3    0    0  0.17995397766E+02  0.62471173809E+02  0.93375904762E+03  0.93601946609E+03  0.00000000000E+00 0. -1.
</event>
<event>
 7    1  0.6508013E-006  0.4404805E+02  0.7818608E-02  0.1517841E+00
          2   -1    0    0  502    0  0.00000000000E+00  0.00000000000E+00  0.22822281708E+03  0.22822281708E+03  0.00000000000E+00 0. -1.
          1   -1    0    0  501    0 -0.00000000000E+00 -0.00000000000E+00 -0.80428874268E+02  0.80428874268E+02  0.00000000000E+00 0. -1.
         25    2    1    2    0    0 -0.11374184079E+01 -0.15326698689E+02  0.56285096900E+02  0.13794685376E+03  0.12500048367E+03 0.  0.
          2    1    1    2  501    0 -0.72019949575E+01  0.48327217614E+02 -0.20983184777E+02  0.53175960143E+02  0.00000000000E+00 0. -1.
          1    1    1    2  502    0  0.83394133653E+01 -0.33000518925E+02  0.11249203069E+03  0.11752887744E+03  0.00000000000E+00 0. -1.
         22    1    3    3    0    0 -0.49666003781E+02  0.20203222149E+01  0.68833880394E+02  0.84905222003E+02  0.00000000000E+00 0.  1.
         22    1    3    3    0    0  0.48528585373E+02 -0.17347020904E+02 -0.12548783493E+02  0.53041631759E+02  0.00000000000E+00 0.  1.
</event>
<event>
 7    1  0.6508013E-006  0.1216179E+03  0.7818608E-02  0.1359910E+00
          2   -1    0    0  502    0  0.00000000000E+00  0.00000000000E+00  0.80690907549E+03  0.80690907549E+03  0.00000000000E+00 0. -1.
          1   -1    0    0  501    0 -0.00000000000E+00 -0.00000000000E+00 -0.14434354300E+03  0.14434354300E+03  0.00000000000E+00 0. -1.
         25    2    1    2    0    0  0.54778930538E+02 -0.14312265105E+03  0.13398149406E+03  0.23887220319E+03  0.12499625687E+03 0.  0.
          2    1    1    2  501    0 -0.52713065316E+02  0.10282352773E+03 -0.54602331490E+02  0.12779968589E+03  0.00000000000E+00 0. -1.
          1    1    1    2  502    0 -0.20658652213E+01  0.40299123325E+02  0.58318636991E+03  0.58458072941E+03  0.00000000000E+00 0. -1.
         22    1    3    3    0    0  0.92160240706E+02 -0.78699178385E+02  0.99459074209E+02  0.15677747953E+03  0.00000000000E+00 0.  1.
         22    1    3    3    0    0 -0.37381310168E+02 -0.64423472665E+02  0.34522419855E+02  0.82094723659E+02  0.00000000000E+00 0.  1.
</event>
<event>
 7    1  0.8461858E-006  0.9728178E+02  0.7818608E-02  0.1468073E+00
          2   -1    0    0  502    0  0.00000000000E+00  0.00000000000E+00  0.22241662784E+04  0.22241662784E+04  0.00000000000E+00 0. -1.
          1   -1    0    0  501    0 -0.00000000000E+00 -0.00000000000E+00 -0.95108282481E+03  0.95108282481E+03  0.00000000000E+00 0. -1.
         25    2    1    2    0    0 -0.79851080976E+02  0.46266243078E+02 -0.38053349588E+03  0.41103383804E+03  0.12500525650E+03 0.  0.
          2    1    1    2  501    0  0.86014022601E+01  0.19998913831E+02 -0.55401375018E+03  0.55444131887E+03  0.00000000000E+00 0. -1.
          1    1    1    2  502    0  0.71249678716E+02 -0.66265156909E+02  0.22076306996E+04  0.22097739463E+04  0.00000000000E+00 0. -1.
         22    1    3    3    0    0  0.29145376426E+02 -0.11561219095E+02 -0.93039628983E+02  0.98180890785E+02  0.00000000000E+00 0.  1.
         22    1    3    3    0    0 -0.10899645740E+03  0.57827462173E+02 -0.28749386689E+03  0.31285294726E+03  0.00000000000E+00 0.  1.
</event>
<event>
 7    1  0.6508013E-006  0.1052888E+03  0.7818608E-02  0.1351974E+00
          2   -1    0    0  502    0  0.00000000000E+00  0.00000000000E+00  0.13879575853E+03  0.13879575853E+03  0.00000000000E+00 0. -1.
          1   -1    0    0  501    0 -0.00000000000E+00 -0.00000000000E+00 -0.12193722230E+04  0.12193722230E+04  0.00000000000E+00 0. -1.
         25    2    1    2    0    0  0.64219590335E+02  0.12367222662E+03 -0.15295049828E+03  0.24173841792E+03  0.12499852941E+03 0.  0.
          2    1    1    2  501    0 -0.19460076000E+02 -0.10173813202E+03 -0.10126166589E+04  0.10179007024E+04  0.00000000000E+00 0. -1.
          1    1    1    2  502    0 -0.44759514334E+02 -0.21934094596E+02  0.84990692746E+02  0.98528861166E+02  0.00000000000E+00 0. -1.
         22    1    3    3    0    0  0.90401050844E+02  0.43589361285E+02 -0.63024916398E+02  0.11850958821E+03  0.00000000000E+00 0.  1.
         22    1    3    3    0    0 -0.26181460509E+02  0.80082865333E+02 -0.89925581878E+02  0.12322882970E+03  0.00000000000E+00 0.  1.
</event>
<event>
 7    1  0.6508013E-006  0.1028896E+03  0.7818608E-02  0.1359986E+00
          2   -1    0    0  502    0  0.00000000000E+00  0.00000000000E+00  0.16379292139E+04  0.16379292139E+04  0.00000000000E+00 0. -1.
          1   -1    0    0  501    0 -0.00000000000E+00 -0.00000000000E+00 -0.39001130944E+03  0.39001130944E+03  0.00000000000E+00 0. -1.
         25    2    1    2    0    0 -0.12741319939E+02  0.12758500425E+03  0.14779025020E+03  0.23217989764E+03  0.12500108908E+03 0.  0.
          2    1    1    2  501    0  0.44459326309E+02 -0.92003045953E+02 -0.33990880811E+03  0.35493547300E+03  0.00000000000E+00 0. -1.
          1    1    1    2  502    0 -0.31718006371E+02 -0.35581958297E+02  0.14400364623E+04  0.14408251527E+04  0.00000000000E+00 0. -1.
         22    1    3    3    0    0  0.34343942316E+00  0.58640599658E+01 -0.22048747144E+02  0.22817808847E+02  0.00000000000E+00 0.  1.
         22    1    3    3    0    0 -0.13084759362E+02  0.12172094428E+03  0.16983899735E+03  0.20936208879E+03  0.00000000000E+00 0.  1.
</event>
<event>
 7    1  0.6508013E-006  0.6373252E+02  0.7818608E-02  0.1479939E+00
          2   -1    0    0  502    0  0.00000000000E+00  0.00000000000E+00  0.11955373754E+04  0.11955373754E+04  0.00000000000E+00 0. -1.
          1   -1    0    0  501    0 -0.00000000000E+00 -0.00000000000E+00 -0.43566230132E+03  0.43566230132E+03  0.00000000000E+00 0. -1.
         25    2    1    2    0    0 -0.92187593618E+01  0.77421118345E+02  0.28867157842E+03  0.32409014715E+03  0.12499651275E+03 0.  0.
          2    1    1    2  501    0 -0.16785309751E+02 -0.61412063188E+02 -0.41526415848E+03  0.42011606664E+03  0.00000000000E+00 0. -1.
          1    1    1    2  502    0  0.26004069113E+02 -0.16009055157E+02  0.88646765418E+03  0.88699346298E+03  0.00000000000E+00 0. -1.
         22    1    3    3    0    0 -0.13463039205E+02 -0.26792995100E+02  0.20427915152E+02  0.36282471368E+02  0.00000000000E+00 0. -1.
         22    1    3    3    0    0  0.42442798435E+01  0.10421411345E+03  0.26824366327E+03  0.28780767578E+03  0.00000000000E+00 0. -1.
</event>
<event>
 7    1  0.6508013E-006  0.5630262E+02  0.7818608E-02  0.1446178E+00
          2   -1    0    0  502    0  0.00000000000E+00  0.00000000000E+00  0.14111471035E+04  0.14111471035E+04  0.00000000000E+00 0. -1.
          1   -1    0    0  501    0 -0.00000000000E+00 -0.00000000000E+00 -0.55312477603E+03  0.55312477603E+03  0.00000000000E+00 0. -1.
         25    2    1    2    0    0 -0.55405578507E+01  0.35333948726E+02  0.77014537190E+03  0.78104310989E+03  0.12500103974E+03 0.  0.
          2    1    1    2  501    0 -0.38156906712E+02 -0.41487533169E+02 -0.54545582198E+03  0.54836048241E+03  0.00000000000E+00 0. -1.
          1    1    1    2  502    0  0.43697464563E+02  0.61535844424E+01  0.63333277760E+03  0.63486828728E+03  0.00000000000E+00 0. -1.
         22    1    3    3    0    0  0.20075933519E+02 -0.35601908860E+02  0.46191832471E+03  0.46372306145E+03  0.00000000000E+00 0.  1.
         22    1    3    3    0    0 -0.25616491369E+02  0.70935857586E+02  0.30822704719E+03  0.31732004844E+03  0.00000000000E+00 0.  1.
</event>
<event>
 7    1  0.6508013E-006  0.2024308E+03  0.7818608E-02  0.1306089E+00
          2   -1    0    0  502    0  0.00000000000E+00  0.00000000000E+00  0.15012534788E+04  0.15012534788E+04  0.00000000000E+00 0. -1.
          1   -1    0    0  501    0 -0.00000000000E+00 -0.00000000000E+00 -0.73549031167E+03  0.73549031167E+03  0.00000000000E+00 0. -1.
         25    2    1    2    0    0  0.36695467521E+02 -0.23579238744E+03 -0.29597060661E+02  0.27101026928E+03  0.12500389091E+03 0.  0.
          2    1    1    2  501    0  0.16575651807E+01  0.38809970977E+02 -0.57723745948E+03  0.57854303729E+03  0.00000000000E+00 0. -1.
          1    1    1    2  502    0 -0.38353032702E+02  0.19698241647E+03  0.13725976872E+04  0.13871904839E+04  0.00000000000E+00 0. -1.
         22    1    3    3    0    0  0.46523669817E+02 -0.24281151199E+03 -0.45151464641E+02  0.25131760179E+03  0.00000000000E+00 0. -1.
         22    1    3    3    0    0 -0.98282022962E+01  0.70191245492E+01  0.15554403980E+02  0.19692667493E+02  0.00000000000E+00 0. -1.
</event>
<event>
 7    1  0.1041341E-005  0.5199462E+02  0.7818608E-02  0.1446828E+00
          2   -1    0    0  502    0  0.00000000000E+00  0.00000000000E+00  0.21565566820E+04  0.21565566820E+04  0.00000000000E+00 0. -1.
          1   -1    0    0  501    0 -0.00000000000E+00 -0.00000000000E+00 -0.80487069484E+03  0.80487069484E+03  0.00000000000E+00 0. -1.
         25    2    1    2    0    0  0.46791961136E+02  0.44799486490E+02 -0.12615937707E+03  0.18904379824E+03  0.12499955046E+03 0.  0.
          2    1    1    2  501    0  0.18110652980E+00 -0.52217822320E+02 -0.64594932884E+03  0.64805653241E+03  0.00000000000E+00 0. -1.
          1    1    1    2  502    0 -0.46973067666E+02  0.74183358305E+01  0.21237946931E+04  0.21243270462E+04  0.00000000000E+00 0. -1.
         22    1    3    3    0    0  0.83840159222E+02  0.13893732039E+02 -0.49160632829E+02  0.98178286339E+02  0.00000000000E+00 0.  1.
         22    1    3    3    0    0 -0.37048198085E+02  0.30905754451E+02 -0.76998744239E+02  0.90865511906E+02  0.00000000000E+00 0.  1.
</event>
<event>
 7    1  0.6508013E-006  0.9098153E+02  0.7818608E-02  0.1339421E+00
          2   -1    0    0  502    0  0.00000000000E+00  0.00000000000E+00  0.10417458042E+03  0.10417458042E+03  0.00000000000E+00 0. -1.
          1   -1    0    0  501    0 -0.00000000000E+00 -0.00000000000E+00 -0.86036640880E+03  0.86036640880E+03  0.00000000000E+00 0. -1.
         25    2    1    2    0    0  0.25323934184E+02  0.23038233554E+02 -0.90745854715E+02  0.15821603035E+03  0.12500176104E+03 0.  0.
          2    1    1    2  501    0 -0.51186055891E+02 -0.81852323135E+02 -0.71729618644E+03  0.72376352091E+03  0.00000000000E+00 0. -1.
          1    1    1    2  502    0  0.25862121708E+02  0.58814089581E+02  0.51850212775E+02  0.82561437956E+02  0.00000000000E+00 0. -1.
         22    1    3    3    0    0 -0.46050858889E+02  0.29851830461E+02 -0.56472771649E+02  0.78746348004E+02  0.00000000000E+00 0. -1.
         22    1    3    3    0    0  0.71374793073E+02 -0.68135969065E+01 -0.34273083066E+02  0.79469682344E+02  0.00000000000E+00 0. -1.
</event>
<event>
 7    1  0.6508013E-006  0.8131878E+02  0.7818608E-02  0.1360918E+00
          2   -1    0    0  502    0  0.00000000000E+00  0.00000000000E+00  0.11362317836E+04  0.11362317836E+04  0.00000000000E+00 0. -1.
          1   -1    0    0  501    0 -0.00000000000E+00 -0.00000000000E+00 -0.16668973637E+04  0.16668973637E+04  0.00000000000E+00 0. -1.
         25    2    1    2    0    0 -0.50726427199E+02  0.18209811232E+01 -0.20913818241E+03  0.24887677357E+03  0.12499753074E+03 0.  0.
          2    1    1    2  501    0  0.57601576975E+02 -0.61265633860E+02 -0.14358569154E+04  0.14383172463E+04  0.00000000000E+00 0. -1.
          1    1    1    2  502    0 -0.68751497763E+01  0.59444652736E+02  0.11143295178E+04  0.11159351274E+04  0.00000000000E+00 0. -1.
         22    1    3    3    0    0 -0.27887331328E+02  0.15054269999E+02 -0.21856306957E+03  0.22084870312E+03  0.00000000000E+00 0. -1.
         22    1    3    3    0    0 -0.22839095871E+02 -0.13233288876E+02  0.94248871571E+01  0.28028070441E+02  0.00000000000E+00 0. -1.
</event>
<event>
 7    1  0.6508013E-006  0.9822413E+02  0.7818608E-02  0.1357698E+00
          2   -1    0    0  502    0  0.00000000000E+00  0.00000000000E+00  0.18038827664E+04  0.18038827664E+04  0.00000000000E+00 0. -1.
          1   -1    0    0  501    0 -0.00000000000E+00 -0.00000000000E+00 -0.23929971715E+03  0.23929971715E+03  0.00000000000E+00 0. -1.
         25    2    1    2    0    0  0.92705038721E+02 -0.11272166258E+03  0.19375899918E+03  0.27288778723E+03  0.12499918895E+03 0.  0.
          2    1    1    2  501    0 -0.39217975135E+02  0.32449126081E+02 -0.19498383314E+03  0.20151846204E+03  0.00000000000E+00 0. -1.
          1    1    1    2  502    0 -0.53487063587E+02  0.80272536502E+02  0.15658078832E+04  0.15687762343E+04  0.00000000000E+00 0. -1.
         22    1    3    3    0    0  0.10483004530E+03 -0.49807884441E+02  0.16719074721E+03  0.20352618923E+03  0.00000000000E+00 0.  1.
         22    1    3    3    0    0 -0.12125006579E+02 -0.62913778142E+02  0.26568251965E+02  0.69361598000E+02  0.00000000000E+00 0.  1.
</event>
<event>
 7    1  0.6508013E-006  0.6239051E+02  0.7818608E-02  0.1482915E+00
          2   -1    0    0  502    0  0.00000000000E+00  0.00000000000E+00  0.26075227838E+04  0.26075227838E+04  0.00000000000E+00 0. -1.
          1   -1    0    0  501    0 -0.00000000000E+00 -0.00000000000E+00 -0.24308385357E+02  0.24308385357E+02  0.00000000000E+00 0. -1.
         25    2    1    2    0    0  0.15574579456E+01  0.75695005023E+02  0.28820103833E+03  0.32313886490E+03  0.12500691203E+03 0.  0.
          2    1    1    2  501    0  0.23951567704E+02 -0.18957362460E+02  0.29964585214E+02  0.42789432737E+02  0.00000000000E+00 0. -1.
          1    1    1    2  502    0 -0.25509025650E+02 -0.56737642562E+02  0.22650487749E+04  0.22659028715E+04  0.00000000000E+00 0. -1.
         22    1    3    3    0    0  0.33984622727E+02  0.33430507543E+02  0.23533931087E+02  0.53163891212E+02  0.00000000000E+00 0. -1.
         22    1    3    3    0    0 -0.32427164781E+02  0.42264497480E+02  0.26466710724E+03  0.26997497369E+03  0.00000000000E+00 0. -1.
</event>
<event>
 7    1  0.6508013E-006  0.1782173E+03  0.7818608E-02  0.1381980E+00
          2   -1    0    0  502    0  0.00000000000E+00  0.00000000000E+00  0.68932514745E+02  0.68932514745E+02  0.00000000000E+00 0. -1.
          1   -1    0    0  501    0 -0.00000000000E+00 -0.00000000000E+00 -0.18062635434E+04  0.18062635434E+04  0.00000000000E+00 0. -1.
         25    2    1    2    0    0  0.16005781937E+03 -0.44432082794E+02 -0.62520152183E+03  0.65885829179E+03  0.12499836097E+03 0.  0.
          2    1    1    2  501    0  0.18630144074E+02  0.13392961909E+02 -0.10058830446E+04  0.10061446979E+04  0.00000000000E+00 0. -1.
          1    1    1    2  502    0 -0.17868796344E+03  0.31039120885E+02 -0.10624646230E+03  0.21019306853E+03  0.00000000000E+00 0. -1.
         22    1    3    3    0    0  0.11549669159E+02  0.29121441129E+02 -0.40962265882E+02  0.51568986973E+02  0.00000000000E+00 0.  1.
         22    1    3    3    0    0  0.14850815021E+03 -0.73553523923E+02 -0.58423925595E+03  0.60728930482E+03  0.00000000000E+00 0.  1.
</event>
<event>
 7    1  0.6508013E-006  0.5610010E+02  0.7818608E-02  0.1543553E+00
          2   -1    0    0  502    0  0.00000000000E+00  0.00000000000E+00  0.26880133182E+03  0.26880133182E+03  0.00000000000E+00 0. -1.
          1   -1    0    0  501    0 -0.00000000000E+00 -0.00000000000E+00 -0.77210962474E+03  0.77210962474E+03  0.00000000000E+00 0. -1.
         25    2    1    2    0    0 -0.14766113667E+02  0.32455861697E+02 -0.12706350315E+03  0.18176096648E+03  0.12498197482E+03 0.  0.
          2    1    1    2  501    0  0.14699674578E+01  0.22511302226E+02 -0.61417607009E+03  0.61459024122E+03  0.00000000000E+00 0. -1.
          1    1    1    2  502    0  0.13296146210E+02 -0.54967163922E+02  0.23793128032E+03  0.24455974887E+03  0.00000000000E+00 0. -1.
         22    1    3    3    0    0  0.53455967763E+01 -0.40549587933E+02 -0.86900143384E+02  0.96044153422E+02  0.00000000000E+00 0.  1.
         22    1    3    3    0    0 -0.20111710444E+02  0.73005449629E+02 -0.40163359766E+02  0.85716813055E+02  0.00000000000E+00 0.  1.
</event>
<event>
 7    1  0.6508013E-006  0.1032497E+03  0.7818608E-02  0.1287540E+00
          2   -1    0    0  502    0  0.00000000000E+00  0.00000000000E+00  0.11547233820E+04  0.11547233820E+04  0.00000000000E+00 0. -1.
          1   -1    0    0  501    0 -0.00000000000E+00 -0.00000000000E+00 -0.80747532621E+02  0.80747532621E+02  0.00000000000E+00 0. -1.
         25    2    1    2    0    0  0.15045201387E+02  0.68375710800E+02  0.33653480447E+03  0.36576204683E+03  0.12499841745E+03 0.  0.
          2    1    1    2  501    0 -0.85571149883E+02  0.29275895713E+02 -0.28133929513E+02  0.94715456774E+02  0.00000000000E+00 0. -1.
          1    1    1    2  502    0  0.70525948495E+02 -0.97651606513E+02  0.76557497438E+03  0.77499341098E+03  0.00000000000E+00 0. -1.
         22    1    3    3    0    0 -0.17057322043E+02  0.12323175643E+01  0.25420668863E+03  0.25478130109E+03  0.00000000000E+00 0. -1.
         22    1    3    3    0    0  0.32102523430E+02  0.67143393236E+02  0.82328115841E+02  0.11098074573E+03  0.00000000000E+00 0. -1.
</event>
<event>
 7    1  0.6508013E-006  0.8105195E+02  0.7818608E-02  0.1382542E+00
          2   -1    0    0  502    0  0.00000000000E+00  0.00000000000E+00  0.12309629608E+04  0.12309629608E+04  0.00000000000E+00 0. -1.
          1   -1    0    0  501    0 -0.00000000000E+00 -0.00000000000E+00 -0.18590383902E+03  0.18590383902E+03  0.00000000000E+00 0. -1.
         25    2    1    2    0    0  0.49998402111E+02 -0.27488349951E+02  0.98829367507E+02  0.16925529980E+03  0.12499865212E+03 0.  0.
          2    1    1    2  501    0  0.31819928254E+02  0.38853772672E+02 -0.14490165686E+03  0.15335779617E+03  0.00000000000E+00 0. -1.
          1    1    1    2  502    0 -0.81818330365E+02 -0.11365422720E+02  0.10911314111E+04  0.10942537038E+04  0.00000000000E+00 0. -1.
         22    1    3    3    0    0  0.24519008137E+02  0.37379724379E+01 -0.27275919315E+02  0.36866379975E+02  0.00000000000E+00 0.  1.
         22    1    3    3    0    0  0.25479393973E+02 -0.31226322389E+02  0.12610528682E+03  0.13238891982E+03  0.00000000000E+00 0.  1.
</event>
<event>
 7    1  0.6508013E-006  0.4143429E+02  0.7818608E-02  0.1504126E+00
          2   -1    0    0  502    0  0.00000000000E+00  0.00000000000E+00  0.49155482467E+03  0.49155482467E+03  0.00000000000E+00 0. -1.
          1   -1    0    0  501    0 -0.00000000000E+00 -0.00000000000E+00 -0.35597980727E+02  0.35597980727E+02  0.00000000000E+00 0. -1.
         25    2    1    2    0    0 -0.11154996172E+02 -0.17314806150E+02  0.18976877317E+03  0.22817403771E+03  0.12500787080E+03 0.  0.
          2    1    1    2  501    0 -0.19646181672E+02  0.42370816995E+02  0.22075788986E+02  0.51658484748E+02  0.00000000000E+00 0. -1.
          1    1    1    2  502    0  0.30801177843E+02 -0.25056010845E+02  0.24411228179E+03  0.24732028294E+03  0.00000000000E+00 0. -1.
         22    1    3    3    0    0  0.43573030727E+02  0.24771866446E+02  0.11987391076E+03  0.12993078486E+03  0.00000000000E+00 0. -1.
         22    1    3    3    0    0 -0.54728026899E+02 -0.42086672596E+02  0.69894862415E+02  0.98243252849E+02  0.00000000000E+00 0. -1.
</event>
<event>
 7    1  0.6508013E-006  0.1783880E+03  0.7818608E-02  0.1174728E+00
          2   -1    0    0  502    0  0.00000000000E+00  0.00000000000E+00  0.26275762544E+03  0.26275762544E+03  0.00000000000E+00 0. -1.
          1   -1    0    0  501    0 -0.00000000000E+00 -0.00000000000E+00 -0.12861748283E+04  0.12861748283E+04  0.00000000000E+00 0. -1.
         25    2    1    2    0    0  0.51985609991E+02 -0.77213203815E+02 -0.27375267370E+03  0.31500711643E+03  0.12499829821E+03 0.  0.
          2    1    1    2  501    0 -0.49657316789E+02  0.24502268809E+03 -0.94435370408E+03  0.97688580970E+03  0.00000000000E+00 0. -1.
          1    1    1    2  502    0 -0.23282932016E+01 -0.16780948427E+03  0.19468917487E+03  0.25703952765E+03  0.00000000000E+00 0. -1.
         22    1    3    3    0    0  0.89515551053E+02 -0.64892964441E+02 -0.23481129237E+03  0.25953896382E+03  0.00000000000E+00 0. -1.
         22    1    3    3    0    0 -0.37529941062E+02 -0.12320239374E+02 -0.38941381320E+02  0.55468152606E+02  0.00000000000E+00 0. -1.
</event>
<event>
 7    1  0.6508013E-006  0.5821446E+02  0.7818608E-02  0.1503064E+00
          2   -1    0    0  502    0  0.00000000000E+00  0.00000000000E+00  0.26443174641E+03  0.26443174641E+03  0.00000000000E+00 0. -1.
          1   -1    0    0  501    0 -0.00000000000E+00 -0.00000000000E+00 -0.62225794669E+03  0.62225794669E+03  0.00000000000E+00 0. -1.
         25    2    1    2    0    0  0.32880937996E+02 -0.23864671823E+02 -0.26273454669E+03  0.29377658397E+03  0.12499824247E+03 0.  0.
          2    1    1    2  501    0  0.24769638225E+02  0.14028414699E+02 -0.33996398888E+03  0.34115369723E+03  0.00000000000E+00 0. -1.
          1    1    1    2  502    0 -0.57650576221E+02  0.98362571234E+01  0.24487233529E+03  0.25175941191E+03  0.00000000000E+00 0. -1.
         22    1    3    3    0    0  0.63868675547E+02  0.28832796244E+02 -0.13168164544E+03  0.14916632865E+03  0.00000000000E+00 0. -1.
         22    1    3    3    0    0 -0.30987737551E+02 -0.52697468067E+02 -0.13105290124E+03  0.14461025532E+03  0.00000000000E+00 0. -1.
</event>
<event>
 7    1  0.6508013E-006  0.8193097E+02  0.7818608E-02  0.1451955E+00
          2   -1    0    0  502    0  0.00000000000E+00  0.00000000000E+00  0.78455705842E+03  0.78455705842E+03  0.00000000000E+00 0. -1.
          1   -1    0    0  501    0 -0.00000000000E+00 -0.00000000000E+00 -0.25818758302E+02  0.25818758302E+02  0.00000000000E+00 0. -1.
         25    2    1    2    0    0 -0.40768671262E+02 -0.45042066228E+02  0.22824797285E+03  0.26723063475E+03  0.12499681097E+03 0.  0.
          2    1    1    2  501    0 -0.27811727714E+02 -0.84249190245E+01  0.11138898654E+03  0.11511723494E+03  0.00000000000E+00 0. -1.
          1    1    1    2  502    0  0.68580398975E+02  0.53466985252E+02  0.41910134073E+03  0.42802794703E+03  0.00000000000E+00 0. -1.
         22    1    3    3    0    0  0.12223264444E+01 -0.66687827376E+02  0.51470116854E+02  0.84249233415E+02  0.00000000000E+00 0. -1.
         22    1    3    3    0    0 -0.41990997706E+02  0.21645761148E+02  0.17677785600E+03  0.18298140134E+03  0.00000000000E+00 0. -1.
</event>
<event>
 7    1  0.6508013E-006  0.7060511E+02  0.7818608E-02  0.1488954E+00
          2   -1    0    0  502    0  0.00000000000E+00  0.00000000000E+00  0.18976222709E+03  0.18976222709E+03  0.00000000000E+00 0. -1.
          1   -1    0    0  501    0 -0.00000000000E+00 -0.00000000000E+00 -0.27612122344E+04  0.27612122344E+04  0.00000000000E+00 0. -1.
         25    2    1    2    0    0 -0.80108755452E+02 -0.87721167950E+01 -0.18024909272E+04  0.18086159445E+04  0.12499491750E+03 0.  0.
          2    1    1    2  501    0  0.11056555168E+02  0.23392647348E+02 -0.94880503206E+03  0.94915775940E+03  0.00000000000E+00 0. -1.
          1    1    1    2  502    0  0.69052200284E+02 -0.14620530553E+02  0.17984595197E+03  0.19320075755E+03  0.00000000000E+00 0. -1.
         22    1    3    3    0    0 -0.16794336772E+02  0.26970068879E+02 -0.13456954010E+04  0.13460704093E+04  0.00000000000E+00 0. -1.
         22    1    3    3    0    0 -0.63314418680E+02 -0.35742185674E+02 -0.45679552615E+03  0.46254553523E+03  0.00000000000E+00 0. -1.
</event>
<event>
 7    1  0.6508013E-006  0.1069719E+03  0.7818608E-02  0.1421234E+00
          2   -1    0    0  502    0  0.00000000000E+00  0.00000000000E+00  0.14294392875E+04  0.14294392875E+04  0.00000000000E+00 0. -1.
          1   -1    0    0  501    0 -0.00000000000E+00 -0.00000000000E+00 -0.23419087598E+02  0.23419087598E+02  0.00000000000E+00 0. -1.
         25    2    1    2    0    0  0.10047444648E+02  0.12519928484E+03  0.56534363837E+03  0.59246024693E+03  0.12497960907E+03 0.  0.
          2    1    1    2  501    0 -0.15217030242E+02 -0.97647247481E+02  0.24666877468E+03  0.26572923692E+03  0.00000000000E+00 0. -1.
          1    1    1    2  502    0  0.51695855933E+01 -0.27552037360E+02  0.59400778687E+03  0.59466889126E+03  0.00000000000E+00 0. -1.
         22    1    3    3    0    0 -0.27558120610E+02  0.94985213494E+02  0.50793742414E+03  0.51747663487E+03  0.00000000000E+00 0.  1.
         22    1    3    3    0    0  0.37605565258E+02  0.30214071347E+02  0.57406214222E+02  0.74983612057E+02  0.00000000000E+00 0.  1.
</event>
<event>
 7    1  0.6508013E-006  0.6795296E+02  0.7818608E-02  0.1378312E+00
          2   -1    0    0  502    0  0.00000000000E+00  0.00000000000E+00  0.11647936169E+03  0.11647936169E+03  0.00000000000E+00 0. -1.
          1   -1    0    0  501    0 -0.00000000000E+00 -0.00000000000E+00 -0.16003809591E+04  0.16003809591E+04  0.00000000000E+00 0. -1.
         25    2    1    2    0    0 -0.51522175706E+01 -0.11528040969E+03 -0.28894798689E+03  0.33531051125E+03  0.12500432643E+03 0.  0.
          2    1    1    2  501    0  0.30983230482E+02  0.58914686671E+02 -0.12769870194E+04  0.12787207469E+04  0.00000000000E+00 0. -1.
          1    1    1    2  502    0 -0.25831012911E+02  0.56365723024E+02  0.82033408838E+02  0.10282906265E+03  0.00000000000E+00 0. -1.
         22    1    3    3    0    0  0.13288975274E+02 -0.14975160869E+02 -0.19693801509E+03  0.19795311085E+03  0.00000000000E+00 0.  1.
         22    1    3    3    0    0 -0.18441192844E+02 -0.10030524883E+03 -0.92009971792E+02  0.13735740040E+03  0.00000000000E+00 0.  1.
</event>
<event>
 7    1  0.6508013E-006  0.1078413E+03  0.7818608E-02  0.1363202E+00
          2   -1    0    0  502    0  0.00000000000E+00  0.00000000000E+00  0.97965787912E+03  0.97965787912E+03  0.00000000000E+00 0. -1.
          1   -1    0    0  501    0 -0.00000000000E+00 -0.00000000000E+00 -0.68578458547E+02  0.68578458547E+02  0.00000000000E+00 0. -1.
         25    2    1    2    0    0 -0.67671017053E+02 -0.45461629885E+02  0.64314877179E+03  0.66023631142E+03  0.12500207167E+03 0.  0.
          2    1    1    2  501    0  0.10729765107E+03  0.25727872144E+02 -0.60128354209E+01  0.11050277607E+03  0.00000000000E+00 0. -1.
          1    1    1    2  502    0 -0.39626634014E+02  0.19733757741E+02  0.27394348421E+03  0.27749725018E+03  0.00000000000E+00 0. -1.
         22    1    3    3    0    0 -0.96230281894E+02 -0.63326042806E+02  0.51580900111E+03  0.52851620645E+03  0.00000000000E+00 0. -1.
         22    1    3    3    0    0  0.28559264841E+02  0.17864412921E+02  0.12733977068E+03  0.13172010497E+03  0.00000000000E+00 0. -1.
</event>
<event>
 7    1  0.6508013E-006  0.4180913E+02  0.7818608E-02  0.1508537E+00
          2   -1    0    0  502    0  0.00000000000E+00  0.00000000000E+00  0.14639287063E+04  0.14639287063E+04  0.00000000000E+00 0. -1.
          1   -1    0    0  501    0 -0.00000000000E+00 -0.00000000000E+00 -0.26365294914E+02  0.26365294914E+02  0.00000000000E+00 0. -1.
         25    2    1    2    0    0  0.16920364757E+02  0.15723385978E+02  0.50520832494E+03  0.52095596813E+03  0.12500458206E+03 0.  0.
          2    1    1    2  501    0  0.10794693055E+02 -0.41990217241E+02  0.78692130827E+01  0.44063911046E+02  0.00000000000E+00 0. -1.
          1    1    1    2  502    0 -0.27715057812E+02  0.26266831263E+02  0.92448587341E+03  0.92527412208E+03  0.00000000000E+00 0. -1.
         22    1    3    3    0    0  0.60576221419E+02  0.43876237192E+02  0.27814885185E+03  0.28803018344E+03  0.00000000000E+00 0.  1.
         22    1    3    3    0    0 -0.43655856662E+02 -0.28152851214E+02  0.22705947309E+03  0.23292578469E+03  0.00000000000E+00 0.  1.
</event>
<event>
 7    1  0.6508013E-006  0.7399257E+02  0.7818608E-02  0.1459151E+00
          2   -1    0    0  502    0  0.00000000000E+00  0.00000000000E+00  0.96102104388E+03  0.96102104388E+03  0.00000000000E+00 0. -1.
          1   -1    0    0  501    0 -0.00000000000E+00 -0.00000000000E+00 -0.14437016004E+04  0.14437016004E+04  0.00000000000E+00 0. -1.
         25    2    1    2    0    0 -0.82982146528E+02  0.19412341423E+02  0.29829745745E+03  0.33446842128E+03  0.12499950428E+03 0.  0.
          2    1    1    2  501    0  0.22000427849E+02  0.21165430100E+02 -0.14233711630E+04  0.14236985151E+04  0.00000000000E+00 0. -1.
          1    1    1    2  502    0  0.60981718678E+02 -0.40577771523E+02  0.64239314901E+03  0.64655570792E+03  0.00000000000E+00 0. -1.
         22    1    3    3    0    0 -0.87780520724E+02  0.24447774328E+02  0.97133304849E+02  0.13318405460E+03  0.00000000000E+00 0. -1.
         22    1    3    3    0    0  0.47983741967E+01 -0.50354329057E+01  0.20116415260E+03  0.20128436668E+03  0.00000000000E+00 0. -1.
</event>
<event>
 7    1  0.6508013E-006  0.7900332E+02  0.7818608E-02  0.1412807E+00
          2   -1    0    0  502    0  0.00000000000E+00  0.00000000000E+00  0.17863984861E+03  0.17863984861E+03  0.00000000000E+00 0. -1.
          1   -1    0    0  501    0 -0.00000000000E+00 -0.00000000000E+00 -0.48505957206E+04  0.48505957206E+04  0.00000000000E+00 0. -1.
         25    2    1    2    0    0  0.62062265476E+02 -0.18435279146E+02 -0.38069819389E+04  0.38095837675E+04  0.12500165606E+03 0.  0.
          2    1    1    2  501    0  0.14588937268E+02  0.37791593762E+02 -0.10330852152E+04  0.10338791532E+04  0.00000000000E+00 0. -1.
          1    1    1    2  502    0 -0.76651202744E+02 -0.19356314616E+02  0.16811128205E+03  0.18577264855E+03  0.00000000000E+00 0. -1.
         22    1    3    3    0    0  0.10066133014E+03 -0.13669305595E+02 -0.28598694757E+04  0.28616731070E+04  0.00000000000E+00 0. -1.
         22    1    3    3    0    0 -0.38599064665E+02 -0.47659735509E+01 -0.94711246313E+03  0.94791066041E+03  0.00000000000E+00 0. -1.
</event>
<event>
 7    1  0.6508013E-006  0.4014162E+03  0.7818608E-02  0.1184640E+00
          2   -1    0    0  502    0  0.00000000000E+00  0.00000000000E+00  0.30760343505E+04  0.30760343505E+04  0.00000000000E+00 0. -1.
          1   -1    0    0  501    0 -0.00000000000E+00 -0.00000000000E+00 -0.60418254919E+03  0.60418254919E+03  0.00000000000E+00 0. -1.
         25    2    1    2    0    0 -0.41030952913E+03  0.88533241800E+02  0.31824035573E+03  0.54138178484E+03  0.12500107335E+03 0.  0.
          2    1    1    2  501    0  0.39809936497E+03 -0.22945681896E+02 -0.41140978235E+03  0.57294643530E+03  0.00000000000E+00 0. -1.
          1    1    1    2  502    0  0.12210164166E+02 -0.65587559904E+02  0.25650212280E+04  0.25658886796E+04  0.00000000000E+00 0. -1.
         22    1    3    3    0    0 -0.41233995229E+03  0.90590293095E+02  0.28811361160E+03  0.51111670942E+03  0.00000000000E+00 0.  1.
         22    1    3    3    0    0  0.20304231607E+01 -0.20570512951E+01  0.30126744127E+02  0.30265075416E+02  0.00000000000E+00 0.  1.
</event>
<event>
 7    1  0.6508013E-006  0.8709523E+02  0.7818608E-02  0.1349782E+00
          2   -1    0    0  502    0  0.00000000000E+00  0.00000000000E+00  0.13202893027E+03  0.13202893027E+03  0.00000000000E+00 0. -1.
          1   -1    0    0  501    0 -0.00000000000E+00 -0.00000000000E+00 -0.13974625388E+04  0.13974625388E+04  0.00000000000E+00 0. -1.
         25    2    1    2    0    0  0.49120695146E+02 -0.10178156247E+03 -0.12334290741E+03  0.20884187630E+03  0.12501650826E+03 0.  0.
          2    1    1    2  501    0 -0.73836795595E+02  0.45583246245E+02 -0.12190881332E+04  0.12221724843E+04  0.00000000000E+00 0. -1.
          1    1    1    2  502    0  0.24716100449E+02  0.56198316222E+02  0.76997432050E+02  0.98477108558E+02  0.00000000000E+00 0. -1.
         22    1    3    3    0    0  0.36668833650E+02 -0.76728665627E+02 -0.14855962605E+03  0.17117784314E+03  0.00000000000E+00 0. -1.
         22    1    3    3    0    0  0.12451861495E+02 -0.25052896840E+02  0.25216718639E+02  0.37664033157E+02  0.00000000000E+00 0. -1.
</event>
<event>
 7    1  0.6508013E-006  0.1228254E+03  0.7818608E-02  0.1364637E+00
          2   -1    0    0  502    0  0.00000000000E+00  0.00000000000E+00  0.22606725618E+03  0.22606725618E+03  0.00000000000E+00 0. -1.
          1   -1    0    0  501    0 -0.00000000000E+00 -0.00000000000E+00 -0.17791895054E+03  0.17791895054E+03  0.00000000000E+00 0. -1.
         25    2    1    2    0    0  0.94275958299E+02 -0.57679985071E+02 -0.67433895980E+02  0.17996177202E+03  0.12499588821E+03 0.  0.
          2    1    1    2  501    0 -0.13033873898E+03  0.70885610414E+02  0.68929648359E+02  0.16359783943E+03  0.00000000000E+00 0. -1.
          1    1    1    2  502    0  0.36062780682E+02 -0.13205625344E+02  0.46652553256E+02  0.60426595275E+02  0.00000000000E+00 0. -1.
         22    1    3    3    0    0  0.49261516699E+02 -0.34968800777E+02 -0.10219896164E+03  0.11871875090E+03  0.00000000000E+00 0. -1.
         22    1    3    3    0    0  0.45014441601E+02 -0.22711184294E+02  0.34765065662E+02  0.61243021114E+02  0.00000000000E+00 0. -1.
</event>
<event>
 7    1  0.6508013E-006  0.1060434E+03  0.7818608E-02  0.1378053E+00
          2   -1    0    0  502    0  0.00000000000E+00  0.00000000000E+00  0.16299680765E+04  0.16299680765E+04  0.00000000000E+00 0. -1.
          1   -1    0    0  501    0 -0.00000000000E+00 -0.00000000000E+00 -0.18046508066E+03  0.18046508066E+03  0.00000000000E+00 0. -1.
         25    2    1    2    0    0  0.40439534326E+02 -0.76541866200E+02  0.35440735663E+02  0.15612402687E+03  0.12499861121E+03 0.  0.
          2    1    1    2  501    0 -0.26849345782E+02 -0.29400680375E+02 -0.11490904788E+03  0.12161158111E+03  0.00000000000E+00 0. -1.
          1    1    1    2  502    0 -0.13590188544E+02  0.10594254657E+03  0.15289713080E+04  0.15326975491E+04  0.00000000000E+00 0. -1.
         22    1    3    3    0    0  0.19977435496E+02 -0.91942415613E+02  0.66981931075E+02  0.11549495577E+03  0.00000000000E+00 0. -1.
         22    1    3    3    0    0  0.20462098830E+02  0.15400549413E+02 -0.31541195413E+02  0.40629071104E+02  0.00000000000E+00 0. -1.
</event>
<event>
 7    1  0.6508013E-006  0.1615819E+03  0.7818608E-02  0.1295050E+00
          2   -1    0    0  502    0  0.00000000000E+00  0.00000000000E+00  0.89921282998E+03  0.89921282998E+03  0.00000000000E+00 0. -1.
          1   -1    0    0  501    0 -0.00000000000E+00 -0.00000000000E+00 -0.95242657865E+03  0.95242657865E+03  0.00000000000E+00 0. -1.
         25    2    1    2    0    0  0.89345166176E+02  0.72305450947E+02 -0.17007068413E+02  0.17065856771E+03  0.12499787758E+03 0.  0.
          2    1    1    2  501    0  0.51840929545E+02  0.14659948320E+02 -0.84937291417E+03  0.85107975148E+03  0.00000000000E+00 0. -1.
          1    1    1    2  502    0 -0.14118609572E+03 -0.86965399266E+02  0.81316623391E+03  0.82990108945E+03  0.00000000000E+00 0. -1.
         22    1    3    3    0    0  0.15888681080E+02 -0.34468338241E+02 -0.15639376067E+02  0.41050050077E+02  0.00000000000E+00 0. -1.
         22    1    3    3    0    0  0.73456485096E+02  0.10677378919E+03 -0.13676923463E+01  0.12960851763E+03  0.00000000000E+00 0. -1.
</event>
<event>
 7    1  0.6508013E-006  0.7409946E+02  0.7818608E-02  0.1473792E+00
          2   -1    0    0  502    0  0.00000000000E+00  0.00000000000E+00  0.18690960334E+03  0.18690960334E+03  0.00000000000E+00 0. -1.
          1   -1    0    0  501    0 -0.00000000000E+00 -0.00000000000E+00 -0.11253405358E+04  0.11253405358E+04  0.00000000000E+00 0. -1.
         25    2    1    2    0    0  0.70552196258E+02 -0.17014555428E+02  0.53480118726E+02  0.15411733031E+03  0.12499968364E+03 0.  0.
          2    1    1    2  501    0 -0.60711297289E+02  0.42624135225E+02 -0.10714399114E+04  0.10740047310E+04  0.00000000000E+00 0. -1.
          1    1    1    2  502    0 -0.98408989698E+01 -0.25609579798E+02  0.79528860209E+02  0.84128077810E+02  0.00000000000E+00 0. -1.
         22    1    3    3    0    0  0.86504848247E+02  0.34002032654E+01 -0.84530766687E+01  0.86983358510E+02  0.00000000000E+00 0.  1.
         22    1    3    3    0    0 -0.15952651988E+02 -0.20414758693E+02  0.61933195394E+02  0.67133971800E+02  0.00000000000E+00 0.  1.
</event>
<event>
 7    1  0.6508013E-006  0.8825034E+02  0.7818608E-02  0.1349498E+00
          2   -1    0    0  502    0  0.00000000000E+00  0.00000000000E+00  0.25884050654E+03  0.25884050654E+03  0.00000000000E+00 0. -1.
          1   -1    0    0  501    0 -0.00000000000E+00 -0.00000000000E+00 -0.22086416689E+04  0.22086416689E+04  0.00000000000E+00 0. -1.
         25    2    1    2    0    0  0.28657600121E+02 -0.41216462584E+02 -0.87147713705E+02  0.16043697512E+03  0.12500097659E+03 0.  0.
          2    1    1    2  501    0  0.59139009468E+02  0.13839938293E+02 -0.20748698062E+04  0.20757585792E+04  0.00000000000E+00 0. -1.
          1    1    1    2  502    0 -0.87796609589E+02  0.27376524292E+02  0.21221635751E+03  0.23128662117E+03  0.00000000000E+00 0. -1.
         22    1    3    3    0    0  0.78166664963E+02 -0.29123419714E+02 -0.48648603168E+02  0.96565457993E+02  0.00000000000E+00 0.  1.
         22    1    3    3    0    0 -0.49509064843E+02 -0.12093042871E+02 -0.38499110537E+02  0.63871517123E+02  0.00000000000E+00 0.  1.
</event>
<event>
 7    1  0.6508013E-006  0.9442582E+02  0.7818608E-02  0.1416437E+00
          2   -1    0    0  502    0  0.00000000000E+00  0.00000000000E+00  0.12644038011E+04  0.12644038011E+04  0.00000000000E+00 0. -1.
          1   -1    0    0  501    0 -0.00000000000E+00 -0.00000000000E+00 -0.52303150790E+03  0.52303150790E+03  0.00000000000E+00 0. -1.
         25    2    1    2    0    0 -0.86625148951E+02  0.13599427095E+02 -0.13277124012E+03  0.20233820981E+03  0.12499475228E+03 0.  0.
          2    1    1    2  501    0 -0.60462965317E+01 -0.32393740118E+02 -0.35289013526E+03  0.35442539365E+03  0.00000000000E+00 0. -1.
          1    1    1    2  502    0  0.92671445482E+02  0.18794313023E+02  0.12270336686E+04  0.12306717055E+04  0.00000000000E+00 0. -1.
         22    1    3    3    0    0 -0.33849014583E+02  0.31728098286E+02  0.11374234690E+02  0.47768203063E+02  0.00000000000E+00 0. -1.
         22    1    3    3    0    0 -0.52776134368E+02 -0.18128671191E+02 -0.14414547481E+03  0.15457000675E+03  0.00000000000E+00 0. -1.
</event>
<event>
 7    1  0.6508013E-006  0.1219966E+03  0.7818608E-02  0.1434501E+00
          2   -1    0    0  502    0  0.00000000000E+00  0.00000000000E+00  0.68807660990E+03  0.68807660990E+03  0.00000000000E+00 0. -1.
          1   -1    0    0  501    0 -0.00000000000E+00 -0.00000000000E+00 -0.54855223066E+03  0.54855223066E+03  0.00000000000E+00 0. -1.
         25    2    1    2    0    0 -0.13770729846E+03  0.13897310238E+02 -0.19338500585E+03  0.26866167576E+03  0.12499960102E+03 0.  0.
          2    1    1    2  501    0  0.11719183294E+03 -0.53577191993E+01 -0.30649355191E+03  0.32817819584E+03  0.00000000000E+00 0. -1.
          1    1    1    2  502    0  0.20515465519E+02 -0.85395910387E+01  0.63940293701E+03  0.63978896895E+03  0.00000000000E+00 0. -1.
         22    1    3    3    0    0  0.80970856173E+01  0.37563343155E+02 -0.33390964334E+02  0.50907013698E+02  0.00000000000E+00 0. -1.
         22    1    3    3    0    0 -0.14580438407E+03 -0.23666032917E+02 -0.15999404152E+03  0.21775466207E+03  0.00000000000E+00 0. -1.
</event>
<event>
 7    1  0.6508013E-006  0.1386162E+03  0.7818608E-02  0.1397005E+00
          2   -1    0    0  502    0  0.00000000000E+00  0.00000000000E+00  0.12669982062E+04  0.12669982062E+04  0.00000000000E+00 0. -1.
          1   -1    0    0  501    0 -0.00000000000E+00 -0.00000000000E+00 -0.53768179598E+02  0.53768179598E+02  0.00000000000E+00 0. -1.
         25    2    1    2    0    0  0.55167263057E+02  0.10464148273E+03  0.15736844569E+03  0.23320203731E+03  0.12500038275E+03 0.  0.
          2    1    1    2  501    0  0.22520151543E+02  0.13276150303E+02  0.42150039842E+01  0.26479797034E+02  0.00000000000E+00 0. -1.
          1    1    1    2  502    0 -0.77687414599E+02 -0.11791763303E+03  0.10516465770E+04  0.10610845515E+04  0.00000000000E+00 0. -1.
         22    1    3    3    0    0  0.22510513693E+02  0.11330279127E+03  0.16213893506E+03  0.19908108900E+03  0.00000000000E+00 0. -1.
         22    1    3    3    0    0  0.32656749363E+02 -0.86613085445E+01 -0.47704893692E+01  0.34120948309E+02  0.00000000000E+00 0. -1.
</event>
<event>
 7    1  0.6508013E-006  0.6227693E+02  0.7818608E-02  0.1400941E+00
          2   -1    0    0  502    0  0.00000000000E+00  0.00000000000E+00  0.89695701297E+02  0.89695701297E+02  0.00000000000E+00 0. -1.
          1   -1    0    0  501    0 -0.00000000000E+00 -0.00000000000E+00 -0.36687335675E+03  0.36687335675E+03  0.00000000000E+00 0. -1.
         25    2    1    2    0    0 -0.45536210695E+02  0.67709824448E+02 -0.15811308180E+03  0.21744565033E+03  0.12499878959E+03 0.  0.
          2    1    1    2  501    0  0.56054051398E+02 -0.62297047677E+01 -0.15651784999E+03  0.16636917762E+03  0.00000000000E+00 0. -1.
          1    1    1    2  502    0 -0.10517840703E+02 -0.61480119680E+02  0.37453276329E+02  0.72754230095E+02  0.00000000000E+00 0. -1.
         22    1    3    3    0    0  0.34628218484E+02  0.99243646807E+01 -0.67032423502E+01  0.36640687599E+02  0.00000000000E+00 0. -1.
         22    1    3    3    0    0 -0.80164429179E+02  0.57785459768E+02 -0.15140983945E+03  0.18080496273E+03  0.00000000000E+00 0. -1.
</event>
<event>
 7    1  0.6508013E-006  0.1180825E+03  0.7818608E-02  0.1303679E+00
          2   -1    0    0  502    0  0.00000000000E+00  0.00000000000E+00  0.14356683151E+03  0.14356683151E+03  0.00000000000E+00 0. -1.
          1   -1    0    0  501    0 -0.00000000000E+00 -0.00000000000E+00 -0.15233523531E+04  0.15233523531E+04  0.00000000000E+00 0. -1.
         25    2    1    2    0    0 -0.46427343552E+02  0.64388666970E+02 -0.15128955620E+03  0.21169653378E+03  0.12500197573E+03 0.  0.
          2    1    1    2  501    0 -0.67645446481E+02 -0.76573905578E+01 -0.13048953348E+04  0.13066699572E+04  0.00000000000E+00 0. -1.
          1    1    1    2  502    0  0.11407279003E+03 -0.56731276412E+02  0.76399369434E+02  0.14855269368E+03  0.00000000000E+00 0. -1.
         22    1    3    3    0    0  0.40037937557E+02  0.43497904766E+02 -0.59576059381E+02  0.83930989594E+02  0.00000000000E+00 0.  1.
         22    1    3    3    0    0 -0.86465281108E+02  0.20890762204E+02 -0.91713496820E+02  0.12776554419E+03  0.00000000000E+00 0.  1.
</event>
<event>
 7    1  0.6508013E-006  0.5441983E+03  0.7818608E-02  0.1158060E+00
          2   -1    0    0  502    0  0.00000000000E+00  0.00000000000E+00  0.94488530760E+03  0.94488530760E+03  0.00000000000E+00 0. -1.
          1   -1    0    0  501    0 -0.00000000000E+00 -0.00000000000E+00 -0.11538060220E+04  0.11538060220E+04  0.00000000000E+00 0. -1.
         25    2    1    2    0    0  0.39440866700E+01  0.52483061859E+03 -0.18480967713E+03  0.57029837231E+03  0.12499153041E+03 0.  0.
          2    1    1    2  501    0 -0.62875094747E+02  0.22105135192E+02 -0.67380419365E+03  0.67709231714E+03  0.00000000000E+00 0. -1.
          1    1    1    2  502    0  0.58931008077E+02 -0.54693575378E+03  0.64969315638E+03  0.85130064015E+03  0.00000000000E+00 0. -1.
         22    1    3    3    0    0 -0.35670469287E+02  0.33199316019E+03 -0.16497865971E+03  0.37243764438E+03  0.00000000000E+00 0. -1.
         22    1    3    3    0    0  0.39614555957E+02  0.19283745840E+03 -0.19831017415E+02  0.19786072793E+03  0.00000000000E+00 0. -1.
</event>
<event>
 7    1  0.6508013E-006  0.9855346E+02  0.7818608E-02  0.1342904E+00
          2   -1    0    0  502    0  0.00000000000E+00  0.00000000000E+00  0.25381124050E+04  0.25381124050E+04  0.00000000000E+00 0. -1.
          1   -1    0    0  501    0 -0.00000000000E+00 -0.00000000000E+00 -0.32814893217E+03  0.32814893217E+03  0.00000000000E+00 0. -1.
         25    2    1    2    0    0  0.85766745736E+00  0.10958169410E+03  0.14013300950E+03  0.21741987860E+03  0.12500103992E+03 0.  0.
          2    1    1    2  501    0  0.50983218272E+02 -0.84583661027E+02 -0.28072028096E+03  0.29758622347E+03  0.00000000000E+00 0. -1.
          1    1    1    2  502    0 -0.51840885729E+02 -0.24998033073E+02  0.23505507443E+04  0.23512552351E+04  0.00000000000E+00 0. -1.
         22    1    3    3    0    0  0.95883798136E+01  0.96357738590E+01  0.11255378494E+03  0.11337168814E+03  0.00000000000E+00 0.  1.
         22    1    3    3    0    0 -0.87307123563E+01  0.99945920240E+02  0.27579224559E+02  0.10404819046E+03  0.00000000000E+00 0.  1.
</event>
<event>
 7    1  0.6508013E-006  0.6549234E+02  0.7818608E-02  0.1414200E+00
          2   -1    0    0  502    0  0.00000000000E+00  0.00000000000E+00  0.25606520537E+02  0.25606520537E+02  0.00000000000E+00 0. -1.
          1   -1    0    0  501    0 -0.00000000000E+00 -0.00000000000E+00 -0.20285236675E+04  0.20285236675E+04  0.00000000000E+00 0. -1.
         25    2    1    2    0    0  0.10570321136E+03  0.34938263441E+02 -0.53832470636E+03  0.56374889837E+03  0.12500191915E+03 0.  0.
          2    1    1    2  501    0 -0.59656173608E+02 -0.20222843932E+02 -0.14289084333E+04  0.14302961697E+04  0.00000000000E+00 0. -1.
          1    1    1    2  502    0 -0.46047037749E+02 -0.14715419509E+02 -0.35684007288E+02  0.60085119896E+02  0.00000000000E+00 0. -1.
         22    1    3    3    0    0  0.39232629812E+02 -0.45389246879E+02 -0.14697447471E+03  0.15874784783E+03  0.00000000000E+00 0. -1.
         22    1    3    3    0    0  0.66470581545E+02  0.80327510319E+02 -0.39135023166E+03  0.40500105055E+03  0.00000000000E+00 0. -1.
</event>
<event>
 7    1  0.6508013E-006  0.8048191E+02  0.7818608E-02  0.1423560E+00
          2   -1    0    0  502    0  0.00000000000E+00  0.00000000000E+00  0.37455144381E+03  0.37455144381E+03  0.00000000000E+00 0. -1.
          1   -1    0    0  501    0 -0.00000000000E+00 -0.00000000000E+00 -0.40796325844E+03  0.40796325844E+03  0.00000000000E+00 0. -1.
         25    2    1    2    0    0 -0.32114897187E+02 -0.82640727550E+02  0.94610317711E+02  0.18010311106E+03  0.12500064770E+03 0.  0.
          2    1    1    2  501    0 -0.25241519587E+02  0.26505068167E+02 -0.35746685147E+03  0.35933578009E+03  0.00000000000E+00 0. -1.
          1    1    1    2  502    0  0.57356416775E+02  0.56135659383E+02  0.22944471913E+03  0.24307581109E+03  0.00000000000E+00 0. -1.
         22    1    3    3    0    0  0.50771336275E+01  0.30704982128E+02  0.34702247495E+02  0.46613508714E+02  0.00000000000E+00 0.  1.
         22    1    3    3    0    0 -0.37192030815E+02 -0.11334570968E+03  0.59908070215E+02  0.13348960235E+03  0.00000000000E+00 0.  1.
</event>
<event>
 7    1  0.6508013E-006  0.3848716E+02  0.7818608E-02  0.1587280E+00
          2   -1    0    0  502    0  0.00000000000E+00  0.00000000000E+00  0.82955178817E+02  0.82955178817E+02  0.00000000000E+00 0. -1.
          1   -1    0    0  501    0 -0.00000000000E+00 -0.00000000000E+00 -0.34553012857E+03  0.34553012857E+03  0.00000000000E+00 0. -1.
         25    2    1    2    0    0  0.17336666518E+02 -0.14184927384E+02 -0.21173465046E+03  0.24689560610E+03  0.12499642370E+03 0.  0.
          2    1    1    2  501    0 -0.16939320989E+02  0.39152859899E+02 -0.10967255531E+03  0.11767734031E+03  0.00000000000E+00 0. -1.
          1    1    1    2  502    0 -0.39734552950E+00 -0.24967932515E+02  0.58832256017E+02  0.63912360977E+02  0.00000000000E+00 0. -1.
         22    1    3    3    0    0  0.30773528523E+02 -0.51985479204E+02 -0.19371595287E+03  0.20291715182E+03  0.00000000000E+00 0.  1.
         22    1    3    3    0    0 -0.13436862005E+02  0.37800551820E+02 -0.18018697591E+02  0.43978454285E+02  0.00000000000E+00 0.  1.
</event>
<event>
 7    1  0.6508013E-006  0.8374458E+02  0.7818608E-02  0.1323921E+00
          2   -1    0    0  502    0  0.00000000000E+00  0.00000000000E+00  0.20010558976E+04  0.20010558976E+04  0.00000000000E+00 0. -1.
          1   -1    0    0  501    0 -0.00000000000E+00 -0.00000000000E+00 -0.35362627669E+02  0.35362627669E+02  0.00000000000E+00 0. -1.
         25    2    1    2    0    0  0.93429316997E+01 -0.11426233216E+03  0.42800935505E+03  0.46039189269E+03  0.12500206366E+03 0.  0.
          2    1    1    2  501    0 -0.62286436480E+02  0.54327219796E+02  0.76387837701E+02  0.11254398575E+03  0.00000000000E+00 0. -1.
          1    1    1    2  502    0  0.52943504780E+02  0.59935112360E+02  0.14612960772E+04  0.14634826468E+04  0.00000000000E+00 0. -1.
         22    1    3    3    0    0 -0.26250022719E+02 -0.12838478554E+03  0.34190635841E+03  0.36615799154E+03  0.00000000000E+00 0. -1.
         22    1    3    3    0    0  0.35592954418E+02  0.14122453388E+02  0.86102996640E+02  0.94233901141E+02  0.00000000000E+00 0. -1.
</event>
<event>
 7    1  0.6508013E-006  0.1628270E+03  0.7818608E-02  0.1273070E+00
          2   -1    0    0  502    0  0.00000000000E+00  0.00000000000E+00  0.12290417799E+03  0.12290417799E+03  0.00000000000E+00 0. -1.
          1   -1    0    0  501    0 -0.00000000000E+00 -0.00000000000E+00 -0.81283058470E+03  0.81283058470E+03  0.00000000000E+00 0. -1.
         25    2    1    2    0    0 -0.11619307554E+03  0.57762233749E+02 -0.18483723036E+03  0.25812013968E+03  0.12499559326E+03 0.  0.
          2    1    1    2  501    0  0.12739104275E+03 -0.12261270199E+03 -0.56290165228E+03  0.59001747652E+03  0.00000000000E+00 0. -1.
          1    1    1    2  502    0 -0.11197967211E+02  0.64850468245E+02  0.57812475919E+02  0.87597146490E+02  0.00000000000E+00 0. -1.
         22    1    3    3    0    0 -0.48179152778E+02  0.33425589175E+01 -0.16060135688E+03  0.16770569249E+03  0.00000000000E+00 0. -1.
         22    1    3    3    0    0 -0.68013922759E+02  0.54419674832E+02 -0.24235873474E+02  0.90414447191E+02  0.00000000000E+00 0. -1.
</event>
<event>
 7    1  0.6508013E-006  0.7535468E+02  0.7818608E-02  0.1425041E+00
          2   -1    0    0  502    0  0.00000000000E+00  0.00000000000E+00  0.31651251187E+04  0.31651251187E+04  0.00000000000E+00 0. -1.
          1   -1    0    0  501    0 -0.00000000000E+00 -0.00000000000E+00 -0.73651746892E+01  0.73651746892E+01  0.00000000000E+00 0. -1.
         25    2    1    2    0    0  0.73339045190E+01  0.54713462595E+02  0.12652602392E+04  0.12726185330E+04  0.12500843388E+03 0.  0.
          2    1    1    2  501    0  0.35801253724E+02  0.14567899040E+02  0.13357689702E+03  0.13905661030E+03  0.00000000000E+00 0. -1.
          1    1    1    2  502    0 -0.43135158243E+02 -0.69281361635E+02  0.17589228078E+04  0.17608151501E+04  0.00000000000E+00 0. -1.
         22    1    3    3    0    0  0.52406349475E+02  0.70215036927E+02  0.90182336730E+03  0.90606951316E+03  0.00000000000E+00 0.  1.
         22    1    3    3    0    0 -0.45072444956E+02 -0.15501574332E+02  0.36343687186E+03  0.36654901982E+03  0.00000000000E+00 0.  1.
</event>
<event>
 7    1  0.6508013E-006  0.1133439E+03  0.7818608E-02  0.1396560E+00
          2   -1    0    0  502    0  0.00000000000E+00  0.00000000000E+00  0.21243061028E+04  0.21243061028E+04  0.00000000000E+00 0. -1.
          1   -1    0    0  501    0 -0.00000000000E+00 -0.00000000000E+00 -0.22624311048E+02  0.22624311048E+02  0.00000000000E+00 0. -1.
         25    2    1    2    0    0 -0.26262062220E+02 -0.13069668439E+03  0.68594752289E+03  0.70987314419E+03  0.12499822983E+03 0.  0.
          2    1    1    2  501    0  0.35349437533E+02  0.99926119357E+02  0.25861600187E+03  0.27949427273E+03  0.00000000000E+00 0. -1.
          1    1    1    2  502    0 -0.90873753125E+01  0.30770565028E+02  0.11571182669E+04  0.11575629969E+04  0.00000000000E+00 0. -1.
         22    1    3    3    0    0  0.45085191807E+01 -0.25266597226E+02  0.43726750962E+03  0.43802009389E+03  0.00000000000E+00 0. -1.
         22    1    3    3    0    0 -0.30770581401E+02 -0.10543008716E+03  0.24868001327E+03  0.27185305030E+03  0.00000000000E+00 0. -1.
</event>
<event>
 7    1  0.6508013E-006  0.6778161E+02  0.7818608E-02  0.1428392E+00
          2   -1    0    0  502    0  0.00000000000E+00  0.00000000000E+00  0.20561623761E+03  0.20561623761E+03  0.00000000000E+00 0. -1.
          1   -1    0    0  501    0 -0.00000000000E+00 -0.00000000000E+00 -0.50970357183E+03  0.50970357183E+03  0.00000000000E+00 0. -1.
         25    2    1    2    0    0 -0.30640782212E+00  0.34079952624E+02 -0.18197449035E+03  0.22339025266E+03  0.12500781091E+03 0.  0.
          2    1    1    2  501    0 -0.91442418693E+01 -0.74887505793E+02 -0.29991580391E+03  0.30925918761E+03  0.00000000000E+00 0. -1.
          1    1    1    2  502    0  0.94506496914E+01  0.40807553169E+02  0.17780296004E+03  0.18267036917E+03  0.00000000000E+00 0. -1.
         22    1    3    3    0    0  0.14319479907E+02  0.55442814038E+02 -0.22013679468E+02  0.61347821616E+02  0.00000000000E+00 0. -1.
         22    1    3    3    0    0 -0.14625887729E+02 -0.21362861414E+02 -0.15996081088E+03  0.16204243104E+03  0.00000000000E+00 0. -1.
</event>
<event>
 7    1  0.6508013E-006  0.9568464E+02  0.7818608E-02  0.1344639E+00
          2   -1    0    0  502    0  0.00000000000E+00  0.00000000000E+00  0.19277646718E+04  0.19277646718E+04  0.00000000000E+00 0. -1.
          1   -1    0    0  501    0 -0.00000000000E+00 -0.00000000000E+00 -0.16811859197E+03  0.16811859197E+03  0.00000000000E+00 0. -1.
         25    2    1    2    0    0 -0.44949104374E+02  0.66761458074E+02 -0.46053643067E+02  0.15564098303E+03  0.12500265314E+03 0.  0.
          2    1    1    2  501    0 -0.46040904576E+02 -0.35927126032E+02 -0.53118099177E+02  0.78943370458E+02  0.00000000000E+00 0. -1.
          1    1    1    2  502    0  0.90990008950E+02 -0.30834332043E+02  0.18588178221E+04  0.18612989103E+04  0.00000000000E+00 0. -1.
         22    1    3    3    0    0 -0.27755805583E+02  0.54476516348E+02 -0.88883934593E+02  0.10788155267E+03  0.00000000000E+00 0. -1.
         22    1    3    3    0    0 -0.17193298791E+02  0.12284941726E+02  0.42830291526E+02  0.47759430365E+02  0.00000000000E+00 0. -1.
</event>
<event>
 7    1  0.6508013E-006  0.1471018E+03  0.7818608E-02  0.1370589E+00
          2   -1    0    0  502    0  0.00000000000E+00  0.00000000000E+00  0.16988516054E+04  0.16988516054E+04  0.00000000000E+00 0. -1.
          1   -1    0    0  501    0 -0.00000000000E+00 -0.00000000000E+00 -0.12846318108E+04  0.12846318108E+04  0.00000000000E+00 0. -1.
         25    2    1    2    0    0  0.78010403995E+02 -0.94017577624E+02 -0.20515481036E+03  0.26951474869E+03  0.12499910206E+03 0.  0.
          2    1    1    2  501    0 -0.88892115574E+02  0.12253133760E+03 -0.10416859128E+04  0.10526277965E+04  0.00000000000E+00 0. -1.
          1    1    1    2  502    0  0.10881711579E+02 -0.28513759976E+02  0.16610605178E+04  0.16613408711E+04  0.00000000000E+00 0. -1.
         22    1    3    3    0    0  0.26309557996E+02 -0.11496699279E+03 -0.12497178939E+03  0.17183582402E+03  0.00000000000E+00 0. -1.
         22    1    3    3    0    0  0.51700845999E+02  0.20949415170E+02 -0.80183020966E+02  0.97678924667E+02  0.00000000000E+00 0. -1.
</event>
<event>
 7    1  0.6508013E-006  0.9887962E+02  0.7818608E-02  0.1342028E+00
          2   -1    0    0  502    0  0.00000000000E+00  0.00000000000E+00  0.21766740031E+04  0.21766740031E+04  0.00000000000E+00 0. -1.
          1   -1    0    0  501    0 -0.00000000000E+00 -0.00000000000E+00 -0.53611802659E+03  0.53611802659E+03  0.00000000000E+00 0. -1.
         25    2    1    2    0    0  0.14047765784E+03 -0.53135723976E+02 -0.13837280656E+03  0.23943538024E+03  0.12499956080E+03 0.  0.
          2    1    1    2  501    0 -0.87953400798E+02  0.29013641541E+02 -0.34063694936E+03  0.35300300760E+03  0.00000000000E+00 0. -1.
          1    1    1    2  502    0 -0.52524257046E+02  0.24122082435E+02  0.21195657324E+04  0.21203536418E+04  0.00000000000E+00 0. -1.
         22    1    3    3    0    0  0.10693423116E+03 -0.79619809456E+02 -0.14410151938E+03  0.19631477718E+03  0.00000000000E+00 0.  1.
         22    1    3    3    0    0  0.33543426685E+02  0.26484085480E+02  0.57287128249E+01  0.43120603058E+02  0.00000000000E+00 0.  1.
</event>
<event>
 7    1  0.6508013E-006  0.2214938E+03  0.7818608E-02  0.1204232E+00
          2   -1    0    0  502    0  0.00000000000E+00  0.00000000000E+00  0.45062633345E+03  0.45062633345E+03  0.00000000000E+00 0. -1.
          1   -1    0    0  501    0 -0.00000000000E+00 -0.00000000000E+00 -0.88510320408E+03  0.88510320408E+03  0.00000000000E+00 0. -1.
         25    2    1    2    0    0  0.21695802978E+03  0.74199732966E+02  0.53192049830E+02  0.26651568598E+03  0.12499931859E+03 0.  0.
          2    1    1    2  501    0 -0.54612483868E+02  0.80812068490E+02 -0.73139655599E+03  0.73787128683E+03  0.00000000000E+00 0. -1.
          1    1    1    2  502    0 -0.16234554591E+03 -0.15501180146E+03  0.24372763554E+03  0.33134256472E+03  0.00000000000E+00 0. -1.
         22    1    3    3    0    0  0.15908697731E+03 -0.85443477430E+01  0.43074351093E+02  0.16503657761E+03  0.00000000000E+00 0. -1.
         22    1    3    3    0    0  0.57871052470E+02  0.82744080709E+02  0.10117698738E+02  0.10147910836E+03  0.00000000000E+00 0. -1.
</event>
<event>
 7    1  0.6508013E-006  0.4750000E+03  0.7818608E-02  0.1110366E+00
          2   -1    0    0  502    0  0.00000000000E+00  0.00000000000E+00  0.11156478406E+04  0.11156478406E+04  0.00000000000E+00 0. -1.
          1   -1    0    0  501    0 -0.00000000000E+00 -0.00000000000E+00 -0.11345621304E+04  0.11345621304E+04  0.00000000000E+00 0. -1.
         25    2    1    2    0    0  0.45998698697E+03  0.46719259991E+02  0.79090022471E+03  0.92461856402E+03  0.12500242414E+03 0.  0.
          2    1    1    2  501    0  0.52157886308E+02  0.12622906104E+03 -0.77169737918E+03  0.78369066984E+03  0.00000000000E+00 0. -1.
          1    1    1    2  502    0 -0.51214487327E+03 -0.17294832103E+03 -0.38117135295E+02  0.54190073719E+03  0.00000000000E+00 0. -1.
         22    1    3    3    0    0  0.37725073957E+02 -0.22174454482E+02  0.34996926866E+02  0.56032780822E+02  0.00000000000E+00 0. -1.
         22    1    3    3    0    0  0.42226191301E+03  0.68893714472E+02  0.75590329785E+03  0.86858578320E+03  0.00000000000E+00 0. -1.
</event>
<event>
 7    1  0.6508013E-006  0.1471677E+03  0.7818608E-02  0.1328563E+00
          2   -1    0    0  502    0  0.00000000000E+00  0.00000000000E+00  0.49292849382E+03  0.49292849382E+03  0.00000000000E+00 0. -1.
          1   -1    0    0  501    0 -0.00000000000E+00 -0.00000000000E+00 -0.11822978005E+04  0.11822978005E+04  0.00000000000E+00 0. -1.
         25    2    1    2    0    0 -0.15217326147E+03  0.63522378480E+02  0.31452508946E+02  0.20929677903E+03  0.12499634923E+03 0.  0.
          2    1    1    2  501    0  0.86054205150E+01 -0.42819216107E+02 -0.10787980324E+04  0.10796817740E+04  0.00000000000E+00 0. -1.
          1    1    1    2  502    0  0.14356784095E+03 -0.20703162373E+02  0.35797621673E+03  0.38624774127E+03  0.00000000000E+00 0. -1.
         22    1    3    3    0    0 -0.12981175314E+03  0.99651626637E+02  0.32257958342E+02  0.16679962177E+03  0.00000000000E+00 0. -1.
         22    1    3    3    0    0 -0.22361508329E+02 -0.36129248157E+02 -0.80544939553E+00  0.42497157268E+02  0.00000000000E+00 0. -1.
</event>
<event>
 7    1  0.6508013E-006  0.9988590E+02  0.7818608E-02  0.1288523E+00
          2   -1    0    0  502    0  0.00000000000E+00  0.00000000000E+00  0.12150137012E+03  0.12150137012E+03  0.00000000000E+00 0. -1.
          1   -1    0    0  501    0 -0.00000000000E+00 -0.00000000000E+00 -0.80494710470E+03  0.80494710470E+03  0.00000000000E+00 0. -1.
         25    2    1    2    0    0  0.16956564613E+02 -0.64685752085E+01 -0.20471580442E+03  0.24053541737E+03  0.12497743349E+03 0.  0.
          2    1    1    2  501    0 -0.26606765133E+02 -0.96277062010E+02 -0.55096494700E+03  0.55994603797E+03  0.00000000000E+00 0. -1.
          1    1    1    2  502    0  0.96502005200E+01  0.10274563722E+03  0.72235016838E+02  0.12596701947E+03  0.00000000000E+00 0. -1.
         22    1    3    3    0    0  0.26112045063E+02  0.56718516505E+02 -0.10162589177E+03  0.11927552511E+03  0.00000000000E+00 0. -1.
         22    1    3    3    0    0 -0.91554804501E+01 -0.63187091713E+02 -0.10308991265E+03  0.12125989227E+03  0.00000000000E+00 0. -1.
</event>
<event>
 7    1  0.6508013E-006  0.5122603E+02  0.7818608E-02  0.1450816E+00
          2   -1    0    0  502    0  0.00000000000E+00  0.00000000000E+00  0.89188658720E+02  0.89188658720E+02  0.00000000000E+00 0. -1.
          1   -1    0    0  501    0 -0.00000000000E+00 -0.00000000000E+00 -0.12209080865E+04  0.12209080865E+04  0.00000000000E+00 0. -1.
         25    2    1    2    0    0 -0.20010467811E+02  0.55684126480E+02 -0.57901937127E+03  0.59530688301E+03  0.12500284754E+03 0.  0.
          2    1    1    2  501    0  0.49085038152E+02 -0.18923003433E+02 -0.62577153566E+03  0.62797884986E+03  0.00000000000E+00 0. -1.
          1    1    1    2  502    0 -0.29074570341E+02 -0.36761123047E+02  0.73071479122E+02  0.86811012373E+02  0.00000000000E+00 0. -1.
         22    1    3    3    0    0 -0.24908610213E+02 -0.21722520884E+02 -0.38415304256E+03  0.38557212929E+03  0.00000000000E+00 0.  1.
         22    1    3    3    0    0  0.48981424021E+01  0.77406647364E+02 -0.19486632871E+03  0.20973475372E+03  0.00000000000E+00 0.  1.
</event>
<event>
 7    1  0.6508013E-006  0.1342262E+03  0.7818608E-02  0.1347877E+00
          2   -1    0    0  502    0  0.00000000000E+00  0.00000000000E+00  0.11810827912E+04  0.11810827912E+04  0.00000000000E+00 0. -1.
          1   -1    0    0  501    0 -0.00000000000E+00 -0.00000000000E+00 -0.11862192685E+04  0.11862192685E+04  0.00000000000E+00 0. -1.
         25    2    1    2    0    0  0.50086766063E+02 -0.95528920263E+02 -0.42408517251E+02  0.17045997890E+03  0.12499465320E+03 0.  0.
          2    1    1    2  501    0 -0.32853911783E+02  0.13216876472E+03 -0.10751208615E+04  0.10837125212E+04  0.00000000000E+00 0. -1.
          1    1    1    2  502    0 -0.17232854280E+02 -0.36639844462E+02  0.11123929014E+04  0.11131295596E+04  0.00000000000E+00 0. -1.
         22    1    3    3    0    0  0.67067554027E+02 -0.11156768297E+03 -0.57859798250E+02  0.14245406607E+03  0.00000000000E+00 0.  1.
         22    1    3    3    0    0 -0.16980787964E+02  0.16038762704E+02  0.15451280999E+02  0.28005912830E+02  0.00000000000E+00 0.  1.
</event>
<event>
 7    1  0.6508013E-006  0.4382971E+02  0.7818608E-02  0.1509002E+00
          2   -1    0    0  502    0  0.00000000000E+00  0.00000000000E+00  0.67957642481E+03  0.67957642481E+03  0.00000000000E+00 0. -1.
          1   -1    0    0  501    0 -0.00000000000E+00 -0.00000000000E+00 -0.16304193221E+03  0.16304193221E+03  0.00000000000E+00 0. -1.
         25    2    1    2    0    0  0.40073604994E+02 -0.11263219941E+02  0.24501275759E+02  0.13400685856E+03  0.12499908675E+03 0.  0.
          2    1    1    2  501    0 -0.37196763208E+02 -0.24932092403E+02 -0.10308275541E+03  0.11238889130E+03  0.00000000000E+00 0. -1.
          1    1    1    2  502    0 -0.28768417858E+01  0.36195312344E+02  0.59511597225E+03  0.59622260715E+03  0.00000000000E+00 0. -1.
         22    1    3    3    0    0  0.19358603720E+02  0.44368593331E+02 -0.26989719901E+02  0.55423574338E+02  0.00000000000E+00 0. -1.
         22    1    3    3    0    0  0.20715001275E+02 -0.55631813272E+02  0.51490995660E+02  0.78583284226E+02  0.00000000000E+00 0. -1.
</event>
<event>
 7    1  0.6508013E-006  0.5298427E+02  0.7818608E-02  0.1464064E+00
          2   -1    0    0  502    0  0.00000000000E+00  0.00000000000E+00  0.19856555081E+04  0.19856555081E+04  0.00000000000E+00 0. -1.
          1   -1    0    0  501    0 -0.00000000000E+00 -0.00000000000E+00 -0.36499896645E+02  0.36499896645E+02  0.00000000000E+00 0. -1.
         25    2    1    2    0    0  0.61129102452E+02 -0.79576242642E+01  0.25989279626E+03  0.29490497213E+03  0.12499834433E+03 0.  0.
          2    1    1    2  501    0 -0.44629196167E+02 -0.29730804230E+02  0.19621720270E+02  0.57102519884E+02  0.00000000000E+00 0. -1.
          1    1    1    2  502    0 -0.16499906284E+02  0.37688428494E+02  0.16696410950E+04  0.16701479128E+04  0.00000000000E+00 0. -1.
         22    1    3    3    0    0 -0.20630656442E+02  0.38722547262E+02  0.10262192557E+03  0.11160788171E+03  0.00000000000E+00 0. -1.
         22    1    3    3    0    0  0.81759758893E+02 -0.46680171526E+02  0.15727087069E+03  0.18329709042E+03  0.00000000000E+00 0. -1.
</event>
<event>
 7    1  0.6508013E-006  0.8537507E+02  0.7818608E-02  0.1368151E+00
          2   -1    0    0  502    0  0.00000000000E+00  0.00000000000E+00  0.41345990513E+03  0.41345990513E+03  0.00000000000E+00 0. -1.
          1   -1    0    0  501    0 -0.00000000000E+00 -0.00000000000E+00 -0.64529035933E+02  0.64529035933E+02  0.00000000000E+00 0. -1.
         25    2    1    2    0    0  0.81804990329E+01  0.11870832848E+03  0.20107066248E+03  0.26497730952E+03  0.12499990175E+03 0.  0.
          2    1    1    2  501    0 -0.33079444562E+02 -0.71176477788E+02  0.30939096885E+02  0.84365682353E+02  0.00000000000E+00 0. -1.
          1    1    1    2  502    0  0.24898945529E+02 -0.47531850687E+02  0.11692110983E+03  0.12864594918E+03  0.00000000000E+00 0. -1.
         22    1    3    3    0    0 -0.90573395814E+01  0.14679659276E+02  0.14409135222E+03  0.14512010743E+03  0.00000000000E+00 0.  1.
         22    1    3    3    0    0  0.17237838614E+02  0.10402866920E+03  0.56979310267E+02  0.11985720209E+03  0.00000000000E+00 0.  1.
</event>
<event>
 7    1  0.6508013E-006  0.5225240E+02  0.7818608E-02  0.1468971E+00
          2   -1    0    0  502    0  0.00000000000E+00  0.00000000000E+00  0.73009535614E+03  0.73009535614E+03  0.00000000000E+00 0. -1.
          1   -1    0    0  501    0 -0.00000000000E+00 -0.00000000000E+00 -0.13804806733E+04  0.13804806733E+04  0.00000000000E+00 0. -1.
         25    2    1    2    0    0  0.10959559133E+02 -0.42625054801E+02 -0.68888847832E+03  0.70151870918E+03  0.12499662610E+03 0.  0.
          2    1    1    2  501    0 -0.48426319668E+02  0.27862039532E+02 -0.68357637509E+03  0.68585571534E+03  0.00000000000E+00 0. -1.
          1    1    1    2  502    0  0.37466760535E+02  0.14763015269E+02  0.72207953622E+03  0.72320160495E+03  0.00000000000E+00 0. -1.
         22    1    3    3    0    0  0.36237982680E+01 -0.23636763606E+02 -0.17042747618E+02  0.29364668465E+02  0.00000000000E+00 0. -1.
         22    1    3    3    0    0  0.73357608650E+01 -0.18988291195E+02 -0.67184573070E+03  0.67215404072E+03  0.00000000000E+00 0. -1.
</event>
<event>
 7    1  0.6508013E-006  0.5065942E+02  0.7818608E-02  0.1541326E+00
          2   -1    0    0  502    0  0.00000000000E+00  0.00000000000E+00  0.12375915472E+04  0.12375915472E+04  0.00000000000E+00 0. -1.
          1   -1    0    0  501    0 -0.00000000000E+00 -0.00000000000E+00 -0.40388078427E+03  0.40388078427E+03  0.00000000000E+00 0. -1.
         25    2    1    2    0    0 -0.15776261438E+02 -0.60799018369E+02 -0.17552480088E+03  0.22445339838E+03  0.12499984504E+03 0.  0.
          2    1    1    2  501    0  0.29830672981E+02  0.39706906085E+02 -0.20073271138E+03  0.20678522398E+03  0.00000000000E+00 0. -1.
          1    1    1    2  502    0 -0.14054411543E+02  0.21092112283E+02  0.12099682752E+04  0.12102337091E+04  0.00000000000E+00 0. -1.
         22    1    3    3    0    0  0.52555833948E+02 -0.33279849586E+02 -0.54152576345E+02  0.82475242317E+02  0.00000000000E+00 0.  1.
         22    1    3    3    0    0 -0.68332095386E+02 -0.27519168782E+02 -0.12137222454E+03  0.14197815606E+03  0.00000000000E+00 0.  1.
</event>
<event>
 7    1  0.6508013E-006  0.9556420E+02  0.7818608E-02  0.1378615E+00
          2   -1    0    0  502    0  0.00000000000E+00  0.00000000000E+00  0.53711205637E+03  0.53711205637E+03  0.00000000000E+00 0. -1.
          1   -1    0    0  501    0 -0.00000000000E+00 -0.00000000000E+00 -0.11371920824E+04  0.11371920824E+04  0.00000000000E+00 0. -1.
         25    2    1    2    0    0 -0.77372603102E+02  0.35235958918E+02  0.17443070473E+03  0.23081644793E+03  0.12498827694E+03 0.  0.
          2    1    1    2  501    0  0.95649485060E+02  0.47657119047E+01 -0.11054743431E+04  0.11096148247E+04  0.00000000000E+00 0. -1.
          1    1    1    2  502    0 -0.18276881958E+02 -0.40001670822E+02  0.33096361230E+03  0.33387286615E+03  0.00000000000E+00 0. -1.
         22    1    3    3    0    0 -0.12263279874E+02 -0.45140058766E+02  0.42764537848E+02  0.63378376723E+02  0.00000000000E+00 0.  1.
         22    1    3    3    0    0 -0.65109323228E+02  0.80376017684E+02  0.13166616688E+03  0.16743807121E+03  0.00000000000E+00 0.  1.
</event>
<event>
 7    1  0.6508013E-006  0.1115675E+03  0.7818608E-02  0.1387800E+00
          2   -1    0    0  502    0  0.00000000000E+00  0.00000000000E+00  0.19537941180E+03  0.19537941180E+03  0.00000000000E+00 0. -1.
          1   -1    0    0  501    0 -0.00000000000E+00 -0.00000000000E+00 -0.30205800679E+03  0.30205800679E+03  0.00000000000E+00 0. -1.
         25    2    1    2    0    0  0.54565530528E+02 -0.77032526064E+02 -0.71640644291E+02  0.17224413992E+03  0.12499701847E+03 0.  0.
          2    1    1    2  501    0 -0.44532740054E+02  0.11052657586E+03 -0.15769293523E+03  0.19765209518E+03  0.00000000000E+00 0. -1.
          1    1    1    2  502    0 -0.10032790474E+02 -0.33494049794E+02  0.12265498453E+03  0.12754118349E+03  0.00000000000E+00 0. -1.
         22    1    3    3    0    0  0.63642414691E+02 -0.38962816686E+02 -0.99377391336E+02  0.12427519439E+03  0.00000000000E+00 0. -1.
         22    1    3    3    0    0 -0.90768841627E+01 -0.38069709379E+02  0.27736747045E+02  0.47968945527E+02  0.00000000000E+00 0. -1.
</event>
<event>
 7    1  0.6508013E-006  0.1647525E+03  0.7818608E-02  0.1342930E+00
          2   -1    0    0  502    0  0.00000000000E+00  0.00000000000E+00  0.48712619781E+03  0.48712619781E+03  0.00000000000E+00 0. -1.
          1   -1    0    0  501    0 -0.00000000000E+00 -0.00000000000E+00 -0.42230888224E+03  0.42230888224E+03  0.00000000000E+00 0. -1.
         25    2    1    2    0    0 -0.12903156566E+02 -0.18800681972E+03  0.18663078251E+03  0.29320396075E+03  0.12499783162E+03 0.  0.
          2    1    1    2  501    0  0.32866736317E+01  0.34262785765E+02 -0.34408236376E+03  0.34579967288E+03  0.00000000000E+00 0. -1.
          1    1    1    2  502    0  0.96164829341E+01  0.15374403395E+03  0.22226889682E+03  0.27043144642E+03  0.00000000000E+00 0. -1.
         22    1    3    3    0    0 -0.55905977220E+02 -0.12054002844E+03  0.65766717073E+02  0.14825868548E+03  0.00000000000E+00 0. -1.
         22    1    3    3    0    0  0.43002820654E+02 -0.67466791280E+02  0.12086406544E+03  0.14494527528E+03  0.00000000000E+00 0. -1.
</event>
<event>
 7    1  0.6508013E-006  0.2711339E+03  0.7818608E-02  0.1183117E+00
          2   -1    0    0  502    0  0.00000000000E+00  0.00000000000E+00  0.16282947856E+04  0.16282947856E+04  0.00000000000E+00 0. -1.
          1   -1    0    0  501    0 -0.00000000000E+00 -0.00000000000E+00 -0.87756847981E+03  0.87756847981E+03  0.00000000000E+00 0. -1.
         25    2    1    2    0    0  0.35807140654E+03  0.13953391644E+02 -0.25672866251E+02  0.38038455951E+03  0.12499395079E+03 0.  0.
          2    1    1    2  501    0 -0.25892132390E+03  0.22517109272E+01 -0.64785637893E+03  0.69768417632E+03  0.00000000000E+00 0. -1.
          1    1    1    2  502    0 -0.99150082635E+02 -0.16205102571E+02  0.14242555510E+04  0.14277945296E+04  0.00000000000E+00 0. -1.
         22    1    3    3    0    0  0.60900478270E+02  0.46550733072E+02  0.16674736684E+02  0.78446707047E+02  0.00000000000E+00 0. -1.
         22    1    3    3    0    0  0.29717092827E+03 -0.32597341428E+02 -0.42347602935E+02  0.30193785246E+03  0.00000000000E+00 0. -1.
</event>
<event>
 7    1  0.6508013E-006  0.5684465E+02  0.7818608E-02  0.1528320E+00
          2   -1    0    0  502    0  0.00000000000E+00  0.00000000000E+00  0.45601308846E+03  0.45601308846E+03  0.00000000000E+00 0. -1.
          1   -1    0    0  501    0 -0.00000000000E+00 -0.00000000000E+00 -0.90231140225E+03  0.90231140225E+03  0.00000000000E+00 0. -1.
         25    2    1    2    0    0 -0.88801471045E+01  0.54101635756E+02 -0.49431183476E+03  0.51281132288E+03  0.12500167551E+03 0.  0.
          2    1    1    2  501    0 -0.23478981737E+02 -0.73343294246E+01 -0.39655735474E+03  0.39731950691E+03  0.00000000000E+00 0. -1.
          1    1    1    2  502    0  0.32359128842E+02 -0.46767306331E+02  0.44457087572E+03  0.44819366093E+03  0.00000000000E+00 0. -1.
         22    1    3    3    0    0  0.33488836819E+02 -0.26843799523E+02 -0.11786732411E+03  0.12543842257E+03  0.00000000000E+00 0. -1.
         22    1    3    3    0    0 -0.42368983924E+02  0.80945435279E+02 -0.37644451065E+03  0.38737290031E+03  0.00000000000E+00 0. -1.
</event>
<event>
 7    1  0.6508013E-006  0.1133530E+03  0.7818608E-02  0.1304041E+00
          2   -1    0    0  502    0  0.00000000000E+00  0.00000000000E+00  0.15037348929E+04  0.15037348929E+04  0.00000000000E+00 0. -1.
          1   -1    0    0  501    0 -0.00000000000E+00 -0.00000000000E+00 -0.14961463704E+04  0.14961463704E+04  0.00000000000E+00 0. -1.
         25    2    1    2    0    0  0.58227227250E+02 -0.17601258155E+02  0.29886525769E+03  0.32961520788E+03  0.12500211491E+03 0.  0.
          2    1    1    2  501    0 -0.73894329422E+02  0.86526026055E+02 -0.14775319887E+04  0.14819068469E+04  0.00000000000E+00 0. -1.
          1    1    1    2  502    0  0.15667102172E+02 -0.68924767900E+02  0.11862552536E+04  0.11883592085E+04  0.00000000000E+00 0. -1.
         22    1    3    3    0    0  0.91825776328E+02  0.13878787155E+02  0.19365700351E+03  0.21477343630E+03  0.00000000000E+00 0. -1.
         22    1    3    3    0    0 -0.33598549078E+02 -0.31480045310E+02  0.10520825418E+03  0.11484177158E+03  0.00000000000E+00 0. -1.
</event>
<event>
 7    1  0.6508013E-006  0.1077968E+03  0.7818608E-02  0.1314330E+00
          2   -1    0    0  502    0  0.00000000000E+00  0.00000000000E+00  0.15653756389E+04  0.15653756389E+04  0.00000000000E+00 0. -1.
          1   -1    0    0  501    0 -0.00000000000E+00 -0.00000000000E+00 -0.22915334821E+03  0.22915334821E+03  0.00000000000E+00 0. -1.
         25    2    1    2    0    0 -0.52337500014E+02 -0.21158999517E+02 -0.11083182953E+03  0.17633945144E+03  0.12499996212E+03 0.  0.
          2    1    1    2  501    0 -0.54625435132E+02  0.39980110043E+02 -0.69927435185E+02  0.97325194857E+02  0.00000000000E+00 0. -1.
          1    1    1    2  502    0  0.10696293515E+03 -0.18821110526E+02  0.15169815554E+04  0.15208643408E+04  0.00000000000E+00 0. -1.
         22    1    3    3    0    0  0.33399321566E+02 -0.27240762713E+02 -0.67489696116E+02  0.80077668024E+02  0.00000000000E+00 0. -1.
         22    1    3    3    0    0 -0.85736821580E+02  0.60817631955E+01 -0.43342133417E+02  0.96261783420E+02  0.00000000000E+00 0. -1.
</event>
<event>
 7    1  0.6508013E-006  0.1068302E+03  0.7818608E-02  0.1429104E+00
          2   -1    0    0  502    0  0.00000000000E+00  0.00000000000E+00  0.20418107284E+04  0.20418107284E+04  0.00000000000E+00 0. -1.
          1   -1    0    0  501    0 -0.00000000000E+00 -0.00000000000E+00 -0.64501589567E+03  0.64501589567E+03  0.00000000000E+00 0. -1.
         25    2    1    2    0    0 -0.11052269151E+03  0.49034554486E+02 -0.33055929176E+03  0.37351478234E+03  0.12499677751E+03 0.  0.
          2    1    1    2  501    0  0.63283074880E+01 -0.25664745256E+02 -0.29096834530E+03  0.29216656994E+03  0.00000000000E+00 0. -1.
          1    1    1    2  502    0  0.10419438402E+03 -0.23369809231E+02  0.20183224698E+04  0.20211452718E+04  0.00000000000E+00 0. -1.
         22    1    3    3    0    0 -0.10263147113E+03  0.15459622180E+02 -0.32152449221E+03  0.33786124056E+03  0.00000000000E+00 0.  1.
         22    1    3    3    0    0 -0.78912203873E+01  0.33574932307E+02 -0.90347995478E+01  0.35653541780E+02  0.00000000000E+00 0.  1.
</event>
<event>
 7    1  0.6508013E-006  0.2010921E+03  0.7818608E-02  0.1354424E+00
          2   -1    0    0  502    0  0.00000000000E+00  0.00000000000E+00  0.12988151955E+04  0.12988151955E+04  0.00000000000E+00 0. -1.
          1   -1    0    0  501    0 -0.00000000000E+00 -0.00000000000E+00 -0.56197611821E+03  0.56197611821E+03  0.00000000000E+00 0. -1.
         25    2    1    2    0    0 -0.21198056925E+03 -0.31704748785E+02  0.85778287708E+02  0.26253054569E+03  0.12499367961E+03 0.  0.
          2    1    1    2  501    0  0.19938435295E+03  0.94629690307E+01 -0.45241306836E+03  0.49449090225E+03  0.00000000000E+00 0. -1.
          1    1    1    2  502    0  0.12596216301E+02  0.22241779754E+02  0.11034738579E+04  0.11037698657E+04  0.00000000000E+00 0. -1.
         22    1    3    3    0    0 -0.71891941580E+02  0.29620900766E+02 -0.15265989610E+02  0.79239506972E+02  0.00000000000E+00 0.  1.
         22    1    3    3    0    0 -0.14008862767E+03 -0.61325649551E+02  0.10104427732E+03  0.18329103871E+03  0.00000000000E+00 0.  1.
</event>
<event>
 7    1  0.6508013E-006  0.3040636E+02  0.7818608E-02  0.1657227E+00
          2   -1    0    0  502    0  0.00000000000E+00  0.00000000000E+00  0.22458944332E+04  0.22458944332E+04  0.00000000000E+00 0. -1.
          1   -1    0    0  501    0 -0.00000000000E+00 -0.00000000000E+00 -0.11485079154E+04  0.11485079154E+04  0.00000000000E+00 0. -1.
         25    2    1    2    0    0 -0.11370287312E+02  0.49704638730E+02  0.73846367538E+03  0.75070189788E+03  0.12499962035E+03 0.  0.
          2    1    1    2  501    0  0.98268282449E+01 -0.28768816422E+02 -0.11421131428E+04  0.11425176770E+04  0.00000000000E+00 0. -1.
          1    1    1    2  502    0  0.15434590668E+01 -0.20935822309E+02  0.15010359853E+04  0.15011827737E+04  0.00000000000E+00 0. -1.
         22    1    3    3    0    0  0.28347846110E+00  0.58555987542E+02  0.13612349527E+03  0.14818397350E+03  0.00000000000E+00 0.  1.
         22    1    3    3    0    0 -0.11653765773E+02 -0.88513488119E+01  0.60234018011E+03  0.60251792439E+03  0.00000000000E+00 0.  1.
</event>
<event>
 7    1  0.6508013E-006  0.1585281E+03  0.7818608E-02  0.1191684E+00
          2   -1    0    0  502    0  0.00000000000E+00  0.00000000000E+00  0.17875500626E+04  0.17875500626E+04  0.00000000000E+00 0. -1.
          1   -1    0    0  501    0 -0.00000000000E+00 -0.00000000000E+00 -0.48318573907E+03  0.48318573907E+03  0.00000000000E+00 0. -1.
         25    2    1    2    0    0  0.18199605225E+00 -0.62703239957E+01  0.77638799822E+03  0.78641221524E+03  0.12500599356E+03 0.  0.
          2    1    1    2  501    0  0.92465354482E+02  0.13208386725E+03 -0.45825525949E+03  0.48579200551E+03  0.00000000000E+00 0. -1.
          1    1    1    2  502    0 -0.92647350534E+02 -0.12581354325E+03  0.98623158476E+03  0.99853158088E+03  0.00000000000E+00 0. -1.
         22    1    3    3    0    0 -0.52006329866E+02 -0.81406020163E+00  0.60348626219E+03  0.60572352578E+03  0.00000000000E+00 0. -1.
         22    1    3    3    0    0  0.52188325918E+02 -0.54562637941E+01  0.17290173603E+03  0.18068868946E+03  0.00000000000E+00 0. -1.
</event>
<event>
 7    1  0.6508013E-006  0.5348975E+02  0.7818608E-02  0.1467771E+00
          2   -1    0    0  502    0  0.00000000000E+00  0.00000000000E+00  0.12405591629E+03  0.12405591629E+03  0.00000000000E+00 0. -1.
          1   -1    0    0  501    0 -0.00000000000E+00 -0.00000000000E+00 -0.36399184725E+03  0.36399184725E+03  0.00000000000E+00 0. -1.
         25    2    1    2    0    0 -0.31028059541E+02 -0.76400265998E+02 -0.22364126644E+03  0.26914706559E+03  0.12499994295E+03 0.  0.
          2    1    1    2  501    0  0.37625495795E+01  0.47572610324E+02 -0.10849414040E+03  0.11852547631E+03  0.00000000000E+00 0. -1.
          1    1    1    2  502    0  0.27265509962E+02  0.28827655674E+02  0.92199475889E+02  0.10037522164E+03  0.00000000000E+00 0. -1.
         22    1    3    3    0    0  0.31659541522E+02 -0.25755081069E+02 -0.16369751986E+03  0.16870841348E+03  0.00000000000E+00 0.  1.
         22    1    3    3    0    0 -0.62687601063E+02 -0.50645184929E+02 -0.59943746581E+02  0.10043865211E+03  0.00000000000E+00 0.  1.
</event>
<event>
 7    1  0.6508013E-006  0.8106256E+02  0.7818608E-02  0.1372295E+00
          2   -1    0    0  502    0  0.00000000000E+00  0.00000000000E+00  0.39564586296E+04  0.39564586296E+04  0.00000000000E+00 0. -1.
          1   -1    0    0  501    0 -0.00000000000E+00 -0.00000000000E+00 -0.38207662218E+03  0.38207662218E+03  0.00000000000E+00 0. -1.
         25    2    1    2    0    0  0.22693089083E+02 -0.12344946091E+03  0.14397726467E+03  0.22827238910E+03  0.12499634073E+03 0.  0.
          2    1    1    2  501    0  0.96988515523E+01  0.79485758418E+02 -0.33501260411E+03  0.34444955861E+03  0.00000000000E+00 0. -1.
          1    1    1    2  502    0 -0.32391940635E+02  0.43963702491E+02  0.37654173469E+04  0.37658133041E+04  0.00000000000E+00 0. -1.
         22    1    3    3    0    0  0.46967527413E+01 -0.60742415139E+02 -0.93557453385E+01  0.61637897872E+02  0.00000000000E+00 0. -1.
         22    1    3    3    0    0  0.17996336341E+02 -0.62707045770E+02  0.15333301001E+03  0.16663449123E+03  0.00000000000E+00 0. -1.
</event>
<event>
 7    1  0.6508013E-006  0.1099353E+03  0.7818608E-02  0.1310537E+00
          2   -1    0    0  502    0  0.00000000000E+00  0.00000000000E+00  0.61104970977E+03  0.61104970977E+03  0.00000000000E+00 0. -1.
          1   -1    0    0  501    0 -0.00000000000E+00 -0.00000000000E+00 -0.17015933514E+04  0.17015933514E+04  0.00000000000E+00 0. -1.
         25    2    1    2    0    0 -0.15528101744E+03  0.16820765130E+02  0.23450603824E+02  0.20141873201E+03  0.12499776905E+03 0.  0.
          2    1    1    2  501    0  0.51570678786E+02 -0.45375860024E+02 -0.16060649019E+04  0.16075331949E+04  0.00000000000E+00 0. -1.
          1    1    1    2  502    0  0.10371033866E+03  0.28555094894E+02  0.49207065645E+03  0.50369113426E+03  0.00000000000E+00 0. -1.
         22    1    3    3    0    0 -0.84352833286E+02 -0.53669098788E+02  0.14424579900E+02  0.10101406414E+03  0.00000000000E+00 0.  1.
         22    1    3    3    0    0 -0.70928184158E+02  0.70489863919E+02  0.90260239245E+01  0.10040466787E+03  0.00000000000E+00 0.  1.
</event>
<event>
 7    1  0.6508013E-006  0.1731134E+03  0.7818608E-02  0.1243975E+00
          2   -1    0    0  502    0  0.00000000000E+00  0.00000000000E+00  0.26382745200E+03  0.26382745200E+03  0.00000000000E+00 0. -1.
          1   -1    0    0  501    0 -0.00000000000E+00 -0.00000000000E+00 -0.34023361100E+03  0.34023361100E+03  0.00000000000E+00 0. -1.
         25    2    1    2    0    0  0.69908364582E+01  0.22710609625E+02  0.64006010143E+02  0.14243064023E+03  0.12500029743E+03 0.  0.
          2    1    1    2  501    0  0.15706447579E+02  0.17239944235E+03 -0.19202395669E+03  0.25853715431E+03  0.00000000000E+00 0. -1.
          1    1    1    2  502    0 -0.22697284037E+02 -0.19511005197E+03  0.51611787546E+02  0.20309326847E+03  0.00000000000E+00 0. -1.
         22    1    3    3    0    0  0.22432388834E+02 -0.47450870964E+02  0.42218909582E+02  0.67358990123E+02  0.00000000000E+00 0. -1.
         22    1    3    3    0    0 -0.15441552376E+02  0.70161480589E+02  0.21787100562E+02  0.75071650103E+02  0.00000000000E+00 0. -1.
</event>
<event>
 7    1  0.6508013E-006  0.1040338E+03  0.7818608E-02  0.1366567E+00
          2   -1    0    0  502    0  0.00000000000E+00  0.00000000000E+00  0.28447699757E+04  0.28447699757E+04  0.00000000000E+00 0. -1.
          1   -1    0    0  501    0 -0.00000000000E+00 -0.00000000000E+00 -0.41909217169E+02  0.41909217169E+02  0.00000000000E+00 0. -1.
         25    2    1    2    0    0 -0.11544289041E+03 -0.36114402517E+02  0.69671425680E+03  0.71809835593E+03  0.12499272838E+03 0.  0.
          2    1    1    2  501    0  0.80560765639E+02  0.63935695517E+02  0.54400182445E+02  0.11634943047E+03  0.00000000000E+00 0. -1.
          1    1    1    2  502    0  0.34882124768E+02 -0.27821293000E+02  0.20517463193E+04  0.20522314065E+04  0.00000000000E+00 0. -1.
         22    1    3    3    0    0 -0.12976410076E+03 -0.18898021299E+02  0.67229800311E+03  0.68496748977E+03  0.00000000000E+00 0. -1.
         22    1    3    3    0    0  0.14321210355E+02 -0.17216381218E+02  0.24416253686E+02  0.33130866157E+02  0.00000000000E+00 0. -1.
</event>
<event>
 7    1  0.6508013E-006  0.8390499E+02  0.7818608E-02  0.1330278E+00
          2   -1    0    0  502    0  0.00000000000E+00  0.00000000000E+00  0.51269967817E+03  0.51269967817E+03  0.00000000000E+00 0. -1.
          1   -1    0    0  501    0 -0.00000000000E+00 -0.00000000000E+00 -0.40896435550E+03  0.40896435550E+03  0.00000000000E+00 0. -1.
         25    2    1    2    0    0 -0.78716164576E+01  0.33383075529E+02  0.27806908706E+02  0.13256916477E+03  0.12499986879E+03 0.  0.
          2    1    1    2  501    0 -0.61198913765E+02 -0.63766983691E+02 -0.34772107766E+03  0.35877776283E+03  0.00000000000E+00 0. -1.
          1    1    1    2  502    0  0.69070530223E+02  0.30383908162E+02  0.42364949163E+03  0.43031710607E+03  0.00000000000E+00 0. -1.
         22    1    3    3    0    0  0.23128712394E+02  0.25855046251E+02 -0.42798080387E+02  0.55091709344E+02  0.00000000000E+00 0. -1.
         22    1    3    3    0    0 -0.31000328852E+02  0.75280292775E+01  0.70604989093E+02  0.77477455421E+02  0.00000000000E+00 0. -1.
</event>
<event>
 7    1  0.6508013E-006  0.6624530E+02  0.7818608E-02  0.1424149E+00
          2   -1    0    0  502    0  0.00000000000E+00  0.00000000000E+00  0.22022292269E+04  0.22022292269E+04  0.00000000000E+00 0. -1.
          1   -1    0    0  501    0 -0.00000000000E+00 -0.00000000000E+00 -0.27113472434E+02  0.27113472434E+02  0.00000000000E+00 0. -1.
         25    2    1    2    0    0  0.21087204088E+02  0.41414978341E+02  0.66106998939E+03  0.67438842146E+03  0.12500536597E+03 0.  0.
          2    1    1    2  501    0  0.42450472034E+02 -0.12552948534E+02  0.52867042547E+01  0.44582152648E+02  0.00000000000E+00 0. -1.
          1    1    1    2  502    0 -0.63537676122E+02 -0.28862029807E+02  0.15087590608E+04  0.15103721252E+04  0.00000000000E+00 0. -1.
         22    1    3    3    0    0 -0.17521717026E+01 -0.12067119939E+02  0.53936690681E+03  0.53950472255E+03  0.00000000000E+00 0. -1.
         22    1    3    3    0    0  0.22839375791E+02  0.53482098281E+02  0.12170308258E+03  0.13488369891E+03  0.00000000000E+00 0. -1.
</event>
<event>
 7    1  0.6508013E-006  0.1672222E+03  0.7818608E-02  0.1280761E+00
          2   -1    0    0  502    0  0.00000000000E+00  0.00000000000E+00  0.13694875180E+04  0.13694875180E+04  0.00000000000E+00 0. -1.
          1   -1    0    0  501    0 -0.00000000000E+00 -0.00000000000E+00 -0.15875402411E+04  0.15875402411E+04  0.00000000000E+00 0. -1.
         25    2    1    2    0    0 -0.59365541134E+02  0.11473110288E+03  0.61448674714E+03  0.64023739699E+03  0.12498987420E+03 0.  0.
          2    1    1    2  501    0  0.27802679259E+02 -0.16521329529E+03 -0.15690039492E+04  0.15779232600E+04  0.00000000000E+00 0. -1.
          1    1    1    2  502    0  0.31562861875E+02  0.50482192413E+02  0.73646447888E+03  0.73886710216E+03  0.00000000000E+00 0. -1.
         22    1    3    3    0    0 -0.15486930933E+02 -0.24850909256E+02  0.59899543283E+02  0.66673593020E+02  0.00000000000E+00 0.  1.
         22    1    3    3    0    0 -0.43878610201E+02  0.13958201213E+03  0.55458720386E+03  0.57356380397E+03  0.00000000000E+00 0.  1.
</event>
<event>
 7    1  0.6508013E-006  0.4583786E+03  0.7818608E-02  0.1130123E+00
          2   -1    0    0  502    0  0.00000000000E+00  0.00000000000E+00  0.85926894412E+03  0.85926894412E+03  0.00000000000E+00 0. -1.
          1   -1    0    0  501    0 -0.00000000000E+00 -0.00000000000E+00 -0.29783591427E+04  0.29783591427E+04  0.00000000000E+00 0. -1.
         25    2    1    2    0    0 -0.38506311409E+03 -0.12084556036E+03 -0.10588686468E+04  0.11400457682E+04  0.12499716392E+03 0.  0.
          2    1    1    2  501    0 -0.75379685186E+02  0.80879162049E+02 -0.18118539520E+04  0.18152240300E+04  0.00000000000E+00 0. -1.
          1    1    1    2  502    0  0.46044279927E+03  0.39966398313E+02  0.75163240026E+03  0.88235828863E+03  0.00000000000E+00 0. -1.
         22    1    3    3    0    0 -0.16178748380E+03 -0.11079159982E+03 -0.42871617894E+03  0.47143136360E+03  0.00000000000E+00 0. -1.
         22    1    3    3    0    0 -0.22327563029E+03 -0.10053960545E+02 -0.63015246789E+03  0.66861440456E+03  0.00000000000E+00 0. -1.
</event>
<event>
 7    1  0.6508013E-006  0.1063151E+03  0.7818608E-02  0.1313916E+00
          2   -1    0    0  502    0  0.00000000000E+00  0.00000000000E+00  0.77968898077E+03  0.77968898077E+03  0.00000000000E+00 0. -1.
          1   -1    0    0  501    0 -0.00000000000E+00 -0.00000000000E+00 -0.11426883849E+04  0.11426883849E+04  0.00000000000E+00 0. -1.
         25    2    1    2    0    0  0.14151249486E+03  0.47362660330E+02  0.22856704388E+03  0.30022757721E+03  0.12499878708E+03 0.  0.
          2    1    1    2  501    0 -0.77370038738E+02 -0.72501632988E+02 -0.11019993762E+04  0.11070886301E+04  0.00000000000E+00 0. -1.
          1    1    1    2  502    0 -0.64142456125E+02  0.25138972658E+02  0.51043292822E+03  0.51506115835E+03  0.00000000000E+00 0. -1.
         22    1    3    3    0    0  0.15179006926E+03  0.63347784684E+02  0.22810154921E+03  0.28121785808E+03  0.00000000000E+00 0.  1.
         22    1    3    3    0    0 -0.10277574400E+02 -0.15985124355E+02  0.46549467570E+00  0.19009719132E+02  0.00000000000E+00 0.  1.
</event>
<event>
 7    1  0.6508013E-006  0.1352293E+03  0.7818608E-02  0.1258647E+00
          2   -1    0    0  502    0  0.00000000000E+00  0.00000000000E+00  0.37341467633E+03  0.37341467633E+03  0.00000000000E+00 0. -1.
          1   -1    0    0  501    0 -0.00000000000E+00 -0.00000000000E+00 -0.18685159036E+04  0.18685159036E+04  0.00000000000E+00 0. -1.
         25    2    1    2    0    0 -0.37918923273E+02  0.28764236251E+02 -0.75939169969E+03  0.77108227808E+03  0.12500759969E+03 0.  0.
          2    1    1    2  501    0 -0.87509796246E+02  0.25630022776E+02 -0.10885938064E+04  0.10924062147E+04  0.00000000000E+00 0. -1.
          1    1    1    2  502    0  0.12542871952E+03 -0.54394259027E+02  0.35288427883E+03  0.37844208717E+03  0.00000000000E+00 0. -1.
         22    1    3    3    0    0  0.30672582794E+02 -0.70155060742E+01 -0.48425310173E+03  0.48527424329E+03  0.00000000000E+00 0. -1.
         22    1    3    3    0    0 -0.68591506068E+02  0.35779742326E+02 -0.27513859796E+03  0.28580803479E+03  0.00000000000E+00 0. -1.
</event>
<event>
 7    1  0.6508013E-006  0.4973571E+02  0.7818608E-02  0.1494101E+00
          2   -1    0    0  502    0  0.00000000000E+00  0.00000000000E+00  0.69155363529E+03  0.69155363529E+03  0.00000000000E+00 0. -1.
          1   -1    0    0  501    0 -0.00000000000E+00 -0.00000000000E+00 -0.43518325080E+03  0.43518325080E+03  0.00000000000E+00 0. -1.
         25    2    1    2    0    0 -0.12854002334E+02 -0.68203948107E+01 -0.10298051137E+03  0.16261201889E+03  0.12500375917E+03 0.  0.
          2    1    1    2  501    0 -0.31812297230E+02 -0.15619421848E+02 -0.30039988275E+03  0.30248318656E+03  0.00000000000E+00 0. -1.
          1    1    1    2  502    0  0.44666299564E+02  0.22439816659E+02  0.65975077860E+03  0.66164168064E+03  0.00000000000E+00 0. -1.
         22    1    3    3    0    0 -0.46147024523E+02 -0.34574978005E+02 -0.10437631263E+03  0.11924509053E+03  0.00000000000E+00 0. -1.
         22    1    3    3    0    0  0.33293022190E+02  0.27754583195E+02  0.13958012624E+01  0.43366928367E+02  0.00000000000E+00 0. -1.
</event>
<event>
 7    1  0.6508013E-006  0.7708996E+02  0.7818608E-02  0.1392310E+00
          2   -1    0    0  502    0  0.00000000000E+00  0.00000000000E+00  0.15491413754E+04  0.15491413754E+04  0.00000000000E+00 0. -1.
          1   -1    0    0  501    0 -0.00000000000E+00 -0.00000000000E+00 -0.31906856931E+03  0.31906856931E+03  0.00000000000E+00 0. -1.
         25    2    1    2    0    0  0.76462740870E+01 -0.43723260643E+02  0.76587280533E+03  0.77727485246E+03  0.12499941314E+03 0.  0.
          2    1    1    2  501    0  0.52700544034E+01 -0.48515829256E+02 -0.30865446595E+03  0.31248862141E+03  0.00000000000E+00 0. -1.
          1    1    1    2  502    0 -0.12916328490E+02  0.92239089898E+02  0.77285446666E+03  0.77844647079E+03  0.00000000000E+00 0. -1.
         22    1    3    3    0    0  0.27427420778E+02  0.19641486999E+02  0.64698269817E+02  0.72965180322E+02  0.00000000000E+00 0. -1.
         22    1    3    3    0    0 -0.19781146691E+02 -0.63364747641E+02  0.70117453552E+03  0.70430967214E+03  0.00000000000E+00 0. -1.
</event>
<event>
 7    1  0.6508013E-006  0.8988079E+02  0.7818608E-02  0.1352960E+00
          2   -1    0    0  502    0  0.00000000000E+00  0.00000000000E+00  0.14823533194E+03  0.14823533194E+03  0.00000000000E+00 0. -1.
          1   -1    0    0  501    0 -0.00000000000E+00 -0.00000000000E+00 -0.22964785389E+04  0.22964785389E+04  0.00000000000E+00 0. -1.
         25    2    1    2    0    0  0.30903955318E+02  0.49543984910E+02 -0.77205598187E+03  0.78428713932E+03  0.12500486735E+03 0.  0.
          2    1    1    2  501    0 -0.88741639288E+02 -0.46807526218E+02 -0.15106754844E+04  0.15140034486E+04  0.00000000000E+00 0. -1.
          1    1    1    2  502    0  0.57837683970E+02 -0.27364586918E+01  0.13448825934E+03  0.14642328296E+03  0.00000000000E+00 0. -1.
         22    1    3    3    0    0  0.77279595444E+02  0.14175744640E+02 -0.39383071459E+03  0.40159148318E+03  0.00000000000E+00 0. -1.
         22    1    3    3    0    0 -0.46375640125E+02  0.35368240270E+02 -0.37822526728E+03  0.38269565613E+03  0.00000000000E+00 0. -1.
</event>
<event>
 7    1  0.6508013E-006  0.1075791E+03  0.7818608E-02  0.1325845E+00
          2   -1    0    0  502    0  0.00000000000E+00  0.00000000000E+00  0.28450352389E+04  0.28450352389E+04  0.00000000000E+00 0. -1.
          1   -1    0    0  501    0 -0.00000000000E+00 -0.00000000000E+00 -0.13456027600E+02  0.13456027600E+02  0.00000000000E+00 0. -1.
         25    2    1    2    0    0 -0.74364011188E+02  0.11478917133E+03  0.20836862234E+04  0.20919085097E+04  0.12500550198E+03 0.  0.
          2    1    1    2  501    0  0.14321323922E+02 -0.10294323553E+03  0.39626310105E+03  0.40966676130E+03  0.00000000000E+00 0. -1.
          1    1    1    2  502    0  0.60042687267E+02 -0.11845935805E+02  0.35162988685E+03  0.35691599546E+03  0.00000000000E+00 0. -1.
         22    1    3    3    0    0 -0.84319977384E+02  0.29840668730E+02  0.14067001014E+04  0.14095408825E+04  0.00000000000E+00 0.  1.
         22    1    3    3    0    0  0.99559661954E+01  0.84948502600E+02  0.67698612200E+03  0.68236762726E+03  0.00000000000E+00 0.  1.
</event>
<event>
 7    1  0.6508013E-006  0.3761650E+02  0.7818608E-02  0.1552136E+00
          2   -1    0    0  502    0  0.00000000000E+00  0.00000000000E+00  0.92918892306E+03  0.92918892306E+03  0.00000000000E+00 0. -1.
          1   -1    0    0  501    0 -0.00000000000E+00 -0.00000000000E+00 -0.42799626121E+03  0.42799626121E+03  0.00000000000E+00 0. -1.
         25    2    1    2    0    0  0.19729903126E+02  0.16716461306E+02 -0.28552384144E+03  0.31275707968E+03  0.12499767078E+03 0.  0.
          2    1    1    2  501    0 -0.42236009228E+02  0.57985967823E+01 -0.12504414660E+03  0.13211185715E+03  0.00000000000E+00 0. -1.
          1    1    1    2  502    0  0.22506106102E+02 -0.22515058088E+02  0.91176064990E+03  0.91231624744E+03  0.00000000000E+00 0. -1.
         22    1    3    3    0    0 -0.19185393517E+02 -0.61269097741E+01 -0.26026707184E+03  0.26104514367E+03  0.00000000000E+00 0.  1.
         22    1    3    3    0    0  0.38915296644E+02  0.22843371080E+02 -0.25256769604E+02  0.51711936011E+02  0.00000000000E+00 0.  1.
</event>
<event>
 7    1  0.6508013E-006  0.8610609E+02  0.7818608E-02  0.1469610E+00
          2   -1    0    0  502    0  0.00000000000E+00  0.00000000000E+00  0.51288092930E+03  0.51288092930E+03  0.00000000000E+00 0. -1.
          1   -1    0    0  501    0 -0.00000000000E+00 -0.00000000000E+00 -0.44302292616E+03  0.44302292616E+03  0.00000000000E+00 0. -1.
         25    2    1    2    0    0 -0.56604187022E+02 -0.70636403223E+02  0.36736595220E+03  0.39846701727E+03  0.12499874224E+03 0.  0.
          2    1    1    2  501    0  0.69897168093E+02  0.50263704224E+02 -0.42194792259E+03  0.43064150224E+03  0.00000000000E+00 0. -1.
          1    1    1    2  502    0 -0.13292981071E+02  0.20372698999E+02  0.12443997352E+03  0.12679533595E+03  0.00000000000E+00 0. -1.
         22    1    3    3    0    0 -0.33174868706E+02  0.11947665508E+02  0.25312037198E+03  0.25556455414E+03  0.00000000000E+00 0.  1.
         22    1    3    3    0    0 -0.23429318315E+02 -0.82584068731E+02  0.11424558023E+03  0.14290246312E+03  0.00000000000E+00 0.  1.
</event>
<event>
 7    1  0.6508013E-006  0.5585129E+02  0.7818608E-02  0.1418850E+00
          2   -1    0    0  502    0  0.00000000000E+00  0.00000000000E+00  0.49772538562E+03  0.49772538562E+03  0.00000000000E+00 0. -1.
          1   -1    0    0  501    0 -0.00000000000E+00 -0.00000000000E+00 -0.12524720983E+03  0.12524720983E+03  0.00000000000E+00 0. -1.
         25    2    1    2    0    0 -0.45836738445E+01  0.31033742739E+02  0.27543170514E+02  0.13178538845E+03  0.12499863644E+03 0.  0.
          2    1    1    2  501    0 -0.51135582831E+02 -0.22461486295E+02 -0.60217675398E+02  0.82131203743E+02  0.00000000000E+00 0. -1.
          1    1    1    2  502    0  0.55719256675E+02 -0.85722564438E+01  0.40515268068E+03  0.40905600326E+03  0.00000000000E+00 0. -1.
         22    1    3    3    0    0  0.57502863709E+02  0.31827751800E+02  0.22586300813E+02  0.69496230861E+02  0.00000000000E+00 0. -1.
         22    1    3    3    0    0 -0.62086537554E+02 -0.79400906133E+00  0.49568697019E+01  0.62289157588E+02  0.00000000000E+00 0. -1.
</event>
<event>
 7    1  0.6508013E-006  0.1186053E+03  0.7818608E-02  0.1394010E+00
          2   -1    0    0  502    0  0.00000000000E+00  0.00000000000E+00  0.26940908220E+04  0.26940908220E+04  0.00000000000E+00 0. -1.
          1   -1    0    0  501    0 -0.00000000000E+00 -0.00000000000E+00 -0.47692483428E+02  0.47692483428E+02  0.00000000000E+00 0. -1.
         25    2    1    2    0    0 -0.83433213207E+02 -0.34204491784E+02  0.10146408095E+04  0.10262798398E+04  0.12499315583E+03 0.  0.
          2    1    1    2  501    0  0.10968631327E+03  0.51230968929E+02  0.46106099841E+02  0.12954332070E+03  0.00000000000E+00 0. -1.
          1    1    1    2  502    0 -0.26253100065E+02 -0.17026477144E+02  0.15856514292E+04  0.15859601449E+04  0.00000000000E+00 0. -1.
         22    1    3    3    0    0 -0.24562803181E+02 -0.59353184183E+02  0.22334246725E+03  0.23239619070E+03  0.00000000000E+00 0.  1.
         22    1    3    3    0    0 -0.58870410027E+02  0.25148692399E+02  0.79129834227E+03  0.79388364915E+03  0.00000000000E+00 0.  1.
</event>
<event>
 7    1  0.6508013E-006  0.1053345E+03  0.7818608E-02  0.1377263E+00
          2   -1    0    0  502    0  0.00000000000E+00  0.00000000000E+00  0.38535055862E+03  0.38535055862E+03  0.00000000000E+00 0. -1.
          1   -1    0    0  501    0 -0.00000000000E+00 -0.00000000000E+00 -0.34131259636E+04  0.34131259636E+04  0.00000000000E+00 0. -1.
         25    2    1    2    0    0 -0.42958107512E+02  0.69194350295E+02 -0.60883540503E+03  0.62684834150E+03  0.12500014286E+03 0.  0.
          2    1    1    2  501    0 -0.40152622030E+02 -0.39188425888E+01 -0.27877163265E+04  0.27880082330E+04  0.00000000000E+00 0. -1.
          1    1    1    2  502    0  0.83110729542E+02 -0.65275507707E+02  0.36877632653E+03  0.38361994771E+03  0.00000000000E+00 0. -1.
         22    1    3    3    0    0 -0.66214366706E+02  0.45395079870E+02 -0.57034909961E+03  0.57597148459E+03  0.00000000000E+00 0.  1.
         22    1    3    3    0    0  0.23256259194E+02  0.23799270426E+02 -0.38486305418E+02  0.50876856912E+02  0.00000000000E+00 0.  1.
</event>
<event>
 7    1  0.6508013E-006  0.5380834E+02  0.7818608E-02  0.1536565E+00
          2   -1    0    0  502    0  0.00000000000E+00  0.00000000000E+00  0.80576648588E+03  0.80576648588E+03  0.00000000000E+00 0. -1.
          1   -1    0    0  501    0 -0.00000000000E+00 -0.00000000000E+00 -0.40569138116E+03  0.40569138116E+03  0.00000000000E+00 0. -1.
         25    2    1    2    0    0  0.26193693746E+02 -0.54199733030E+02  0.14787702951E+03  0.20277028717E+03  0.12499781138E+03 0.  0.
          2    1    1    2  501    0 -0.15827936040E+01  0.53771960859E+02 -0.37608980609E+03  0.37991771642E+03  0.00000000000E+00 0. -1.
          1    1    1    2  502    0 -0.24610900142E+02  0.42777217117E+00  0.62828788130E+03  0.62876986345E+03  0.00000000000E+00 0. -1.
         22    1    3    3    0    0 -0.68822851761E+01  0.37950782796E+02  0.59309597159E+02  0.70747834449E+02  0.00000000000E+00 0.  1.
         22    1    3    3    0    0  0.33075978923E+02 -0.92150515826E+02  0.88567432351E+02  0.13202245272E+03  0.00000000000E+00 0.  1.
</event>
<event>
 7    1  0.6508013E-006  0.9166523E+02  0.7818608E-02  0.1393199E+00
          2   -1    0    0  502    0  0.00000000000E+00  0.00000000000E+00  0.14027567593E+04  0.14027567593E+04  0.00000000000E+00 0. -1.
          1   -1    0    0  501    0 -0.00000000000E+00 -0.00000000000E+00 -0.33031607198E+03  0.33031607198E+03  0.00000000000E+00 0. -1.
         25    2    1    2    0    0  0.51123558471E+02  0.13407812705E+02  0.16957797709E+03  0.21719891816E+03  0.12500116824E+03 0.  0.
          2    1    1    2  501    0 -0.87509218534E+02 -0.31757321148E+02 -0.29908362072E+03  0.31323697572E+03  0.00000000000E+00 0. -1.
          1    1    1    2  502    0  0.36385660063E+02  0.18349508443E+02  0.12019463309E+04  0.12026369374E+04  0.00000000000E+00 0. -1.
         22    1    3    3    0    0 -0.37489127390E+02 -0.18124506365E+02  0.53727995301E+02  0.67975215208E+02  0.00000000000E+00 0.  1.
         22    1    3    3    0    0  0.88612685861E+02  0.31532319070E+02  0.11584998179E+03  0.14922370295E+03  0.00000000000E+00 0.  1.
</event>
<event>
 7    1  0.6508013E-006  0.7254150E+02  0.7818608E-02  0.1415157E+00
          2   -1    0    0  502    0  0.00000000000E+00  0.00000000000E+00  0.36213082391E+03  0.36213082391E+03  0.00000000000E+00 0. -1.
          1   -1    0    0  501    0 -0.00000000000E+00 -0.00000000000E+00 -0.15743389087E+04  0.15743389087E+04  0.00000000000E+00 0. -1.
         25    2    1    2    0    0  0.17418955350E+02  0.10254535984E+03 -0.56598088069E+02  0.17217940886E+03  0.12499373757E+03 0.  0.
          2    1    1    2  501    0  0.12357325712E+02 -0.71079600677E+02 -0.14575117516E+04  0.14592962410E+04  0.00000000000E+00 0. -1.
          1    1    1    2  502    0 -0.29776281062E+02 -0.31465759166E+02  0.30190175485E+03  0.30499408272E+03  0.00000000000E+00 0. -1.
         22    1    3    3    0    0 -0.40658832834E+02  0.33257836490E+01  0.60657602297E+01  0.41243120293E+02  0.00000000000E+00 0. -1.
         22    1    3    3    0    0  0.58077788184E+02  0.99219576194E+02 -0.62663848298E+02  0.13093628857E+03  0.00000000000E+00 0. -1.
</event>
<event>
 7    1  0.6508013E-006  0.8964910E+02  0.7818608E-02  0.1333636E+00
          2   -1    0    0  502    0  0.00000000000E+00  0.00000000000E+00  0.36866153847E+03  0.36866153847E+03  0.00000000000E+00 0. -1.
          1   -1    0    0  501    0 -0.00000000000E+00 -0.00000000000E+00 -0.16077152413E+03  0.16077152413E+03  0.00000000000E+00 0. -1.
         25    2    1    2    0    0 -0.41188421862E+02 -0.65034087209E+01  0.92876291600E+02  0.16121437036E+03  0.12500114898E+03 0.  0.
          2    1    1    2  501    0 -0.65828865287E+02  0.19205920665E+02 -0.10374237298E+03  0.12435749613E+03  0.00000000000E+00 0. -1.
          1    1    1    2  502    0  0.10701728715E+03 -0.12702511944E+02  0.21875609572E+03  0.24386119612E+03  0.00000000000E+00 0. -1.
         22    1    3    3    0    0 -0.77309439854E+02  0.13834246743E+02  0.90308552670E+02  0.11968195586E+03  0.00000000000E+00 0. -1.
         22    1    3    3    0    0  0.36121017992E+02 -0.20337655464E+02  0.25677389300E+01  0.41532414494E+02  0.00000000000E+00 0. -1.
</event>
<event>
 7    1  0.6508013E-006  0.4017709E+02  0.7818608E-02  0.1587293E+00
          2   -1    0    0  502    0  0.00000000000E+00  0.00000000000E+00  0.12920385134E+03  0.12920385134E+03  0.00000000000E+00 0. -1.
          1   -1    0    0  501    0 -0.00000000000E+00 -0.00000000000E+00 -0.92287151649E+03  0.92287151649E+03  0.00000000000E+00 0. -1.
         25    2    1    2    0    0  0.21034184639E+02 -0.24976901764E+02 -0.41971085624E+03  0.43914478823E+03  0.12499863852E+03 0.  0.
          2    1    1    2  501    0 -0.40017724077E+02  0.10425777369E+02 -0.49136937444E+03  0.49310645626E+03  0.00000000000E+00 0. -1.
          1    1    1    2  502    0  0.18983539438E+02  0.14551124395E+02  0.11741256553E+03  0.11982412334E+03  0.00000000000E+00 0. -1.
         22    1    3    3    0    0  0.50438677198E+02 -0.18758449160E+02 -0.39907631226E+03  0.40268826973E+03  0.00000000000E+00 0. -1.
         22    1    3    3    0    0 -0.29404492558E+02 -0.62184526043E+01 -0.20634543987E+02  0.36456518498E+02  0.00000000000E+00 0. -1.
</event>
<event>
 7    1  0.7903546E-006  0.5134369E+02  0.7818608E-02  0.1490781E+00
          2   -1    0    0  502    0  0.00000000000E+00  0.00000000000E+00  0.23051239325E+04  0.23051239325E+04  0.00000000000E+00 0. -1.
          1   -1    0    0  501    0 -0.00000000000E+00 -0.00000000000E+00 -0.12416337011E+04  0.12416337011E+04  0.00000000000E+00 0. -1.
         25    2    1    2    0    0  0.29056702391E+02 -0.56615053735E+01 -0.89964680600E+02  0.15683160345E+03  0.12500465386E+03 0.  0.
          2    1    1    2  501    0 -0.45110782199E+02 -0.25586212942E+02 -0.11174983185E+04  0.11187010901E+04  0.00000000000E+00 0. -1.
          1    1    1    2  502    0  0.16054079808E+02  0.31247718315E+02  0.22709532305E+04  0.22712249401E+04  0.00000000000E+00 0. -1.
         22    1    3    3    0    0 -0.33899305612E+02 -0.24098935300E+02 -0.80422226857E+02  0.90540908854E+02  0.00000000000E+00 0.  1.
         22    1    3    3    0    0  0.62956008003E+02  0.18437429926E+02 -0.95424537432E+01  0.66290694591E+02  0.00000000000E+00 0.  1.
</event>
<event>
 7    1  0.6508013E-006  0.1104006E+03  0.7818608E-02  0.1410489E+00
          2   -1    0    0  502    0  0.00000000000E+00  0.00000000000E+00  0.45399030692E+03  0.45399030692E+03  0.00000000000E+00 0. -1.
          1   -1    0    0  501    0 -0.00000000000E+00 -0.00000000000E+00 -0.22463181606E+03  0.22463181606E+03  0.00000000000E+00 0. -1.
         25    2    1    2    0    0  0.61599482008E+02 -0.87509415205E+02 -0.17887054396E+02  0.16552287464E+03  0.12500192551E+03 0.  0.
          2    1    1    2  501    0 -0.24133879270E+02 -0.16994232428E+02 -0.12303929976E+03  0.12653030210E+03  0.00000000000E+00 0. -1.
          1    1    1    2  502    0 -0.37465602738E+02  0.10450364763E+03  0.37028484501E+03  0.38656894624E+03  0.00000000000E+00 0. -1.
         22    1    3    3    0    0  0.41313703415E+02 -0.55617153609E+02 -0.71737569729E+02  0.99731483374E+02  0.00000000000E+00 0. -1.
         22    1    3    3    0    0  0.20285778593E+02 -0.31892261595E+02  0.53850515332E+02  0.65791391263E+02  0.00000000000E+00 0. -1.
</event>
<event>
 7    1  0.6508013E-006  0.7577780E+02  0.7818608E-02  0.1358233E+00
          2   -1    0    0  502    0  0.00000000000E+00  0.00000000000E+00  0.49815657237E+03  0.49815657237E+03  0.00000000000E+00 0. -1.
          1   -1    0    0  501    0 -0.00000000000E+00 -0.00000000000E+00 -0.11131312013E+04  0.11131312013E+04  0.00000000000E+00 0. -1.
         25    2    1    2    0    0 -0.14609644950E+01 -0.85217872176E+02  0.74789244037E+02  0.16877038226E+03  0.12500316296E+03 0.  0.
          2    1    1    2  501    0  0.57031721014E+02  0.50202094101E+02 -0.10619072937E+04  0.10646219836E+04  0.00000000000E+00 0. -1.
          1    1    1    2  502    0 -0.55570756519E+02  0.35015778076E+02  0.37214342073E+03  0.37789540787E+03  0.00000000000E+00 0. -1.
         22    1    3    3    0    0  0.69491098643E+01  0.44835710520E+01  0.78175718931E+02  0.78611930186E+02  0.00000000000E+00 0.  1.
         22    1    3    3    0    0 -0.84100743593E+01 -0.89701443228E+02 -0.33864748939E+01  0.90158452073E+02  0.00000000000E+00 0.  1.
</event>
<event>
 7    1  0.6508013E-006  0.5800928E+02  0.7818608E-02  0.1526311E+00
          2   -1    0    0  502    0  0.00000000000E+00  0.00000000000E+00  0.49052960639E+03  0.49052960639E+03  0.00000000000E+00 0. -1.
          1   -1    0    0  501    0 -0.00000000000E+00 -0.00000000000E+00 -0.39911976454E+02  0.39911976454E+02  0.00000000000E+00 0. -1.
         25    2    1    2    0    0  0.44497777069E+02 -0.54944184458E+02  0.31459973443E+03  0.34582784498E+03  0.12499995956E+03 0.  0.
          2    1    1    2  501    0 -0.47978945520E+02  0.30766710471E+02  0.12042094923E+02  0.58254456796E+02  0.00000000000E+00 0. -1.
          1    1    1    2  502    0  0.34811684508E+01  0.24177473987E+02  0.12397580058E+03  0.12635928107E+03  0.00000000000E+00 0. -1.
         22    1    3    3    0    0 -0.19721493124E+01 -0.31884639746E+02  0.28360212618E+03  0.28539566500E+03  0.00000000000E+00 0. -1.
         22    1    3    3    0    0  0.46469926382E+02 -0.23059544712E+02  0.30997608250E+02  0.60432179983E+02  0.00000000000E+00 0. -1.
</event>
<event>
 7    1  0.6508013E-006  0.5258969E+02  0.7818608E-02  0.1434851E+00
          2   -1    0    0  502    0  0.00000000000E+00  0.00000000000E+00  0.23647306420E+04  0.23647306420E+04  0.00000000000E+00 0. -1.
          1   -1    0    0  501    0 -0.00000000000E+00 -0.00000000000E+00 -0.19956782261E+04  0.19956782261E+04  0.00000000000E+00 0. -1.
         25    2    1    2    0    0 -0.91397227309E+02 -0.11142124434E+02  0.19941560115E+03  0.25272276251E+03  0.12499845045E+03 0.  0.
          2    1    1    2  501    0  0.48119220657E+02 -0.18108329967E+02 -0.19683699634E+04  0.19690413108E+04  0.00000000000E+00 0. -1.
          1    1    1    2  502    0  0.43278006652E+02  0.29250454400E+02  0.21380067781E+04  0.21386447948E+04  0.00000000000E+00 0. -1.
         22    1    3    3    0    0 -0.90345921033E-01 -0.29207261656E+02  0.13835610256E+03  0.14140538678E+03  0.00000000000E+00 0.  1.
         22    1    3    3    0    0 -0.91306881388E+02  0.18065137222E+02  0.61059498589E+02  0.11131737573E+03  0.00000000000E+00 0.  1.
</event>
<event>
 7    1  0.6508013E-006  0.1340780E+03  0.7818608E-02  0.1417211E+00
          2   -1    0    0  502    0  0.00000000000E+00  0.00000000000E+00  0.63794751641E+03  0.63794751641E+03  0.00000000000E+00 0. -1.
          1   -1    0    0  501    0 -0.00000000000E+00 -0.00000000000E+00 -0.19312728946E+03  0.19312728946E+03  0.00000000000E+00 0. -1.
         25    2    1    2    0    0 -0.47281852029E+02 -0.10323320640E+03  0.30259410115E+02  0.17155960941E+03  0.12499759696E+03 0.  0.
          2    1    1    2  501    0 -0.10156259300E+02 -0.20713122646E+02 -0.11260142512E+03  0.11494026271E+03  0.00000000000E+00 0. -1.
          1    1    1    2  502    0  0.57438111329E+02  0.12394632905E+03  0.52716224196E+03  0.54457493374E+03  0.00000000000E+00 0. -1.
         22    1    3    3    0    0  0.19145096194E+02  0.19366153447E+02  0.15519950464E+02  0.31344081897E+02  0.00000000000E+00 0.  1.
         22    1    3    3    0    0 -0.66426948223E+02 -0.12259935985E+03  0.14739459651E+02  0.14021552751E+03  0.00000000000E+00 0.  1.
</event>
<event>
 7    1  0.6508013E-006  0.9650993E+02  0.7818608E-02  0.1372707E+00
          2   -1    0    0  502    0  0.00000000000E+00  0.00000000000E+00  0.24698608135E+04  0.24698608135E+04  0.00000000000E+00 0. -1.
          1   -1    0    0  501    0 -0.00000000000E+00 -0.00000000000E+00 -0.12754767799E+03  0.12754767799E+03  0.00000000000E+00 0. -1.
         25    2    1    2    0    0 -0.41203491571E+02 -0.53712316940E+02  0.39661245644E+02  0.14758226211E+03  0.12499907590E+03 0.  0.
          2    1    1    2  501    0  0.46989518390E+02  0.99056629414E+02 -0.32402247362E+02  0.11432469682E+03  0.00000000000E+00 0. -1.
          1    1    1    2  502    0 -0.57860268197E+01 -0.45344312474E+02  0.23350541372E+04  0.23355015325E+04  0.00000000000E+00 0. -1.
         22    1    3    3    0    0 -0.51513932162E+02 -0.78849818354E+02  0.61701572651E+02  0.11259690550E+03  0.00000000000E+00 0. -1.
         22    1    3    3    0    0  0.10310440592E+02  0.25137501415E+02 -0.22040327006E+02  0.34985356610E+02  0.00000000000E+00 0. -1.
</event>
<event>
 7    1  0.6508013E-006  0.1238430E+03  0.7818608E-02  0.1246368E+00
          2   -1    0    0  502    0  0.00000000000E+00  0.00000000000E+00  0.18488166098E+04  0.18488166098E+04  0.00000000000E+00 0. -1.
          1   -1    0    0  501    0 -0.00000000000E+00 -0.00000000000E+00 -0.66983771374E+03  0.66983771374E+03  0.00000000000E+00 0. -1.
         25    2    1    2    0    0  0.11881503228E+03  0.79230259235E+02  0.17286141405E+03  0.25670867909E+03  0.12499532622E+03 0.  0.
          2    1    1    2  501    0  0.21363066726E+01 -0.11248615422E+03 -0.62044014886E+03  0.63055822650E+03  0.00000000000E+00 0. -1.
          1    1    1    2  502    0 -0.12095133895E+03  0.33255894982E+02  0.16265576309E+04  0.16313874180E+04  0.00000000000E+00 0. -1.
         22    1    3    3    0    0  0.28246235063E+02 -0.32615783162E+02  0.59546666129E+02  0.73535328609E+02  0.00000000000E+00 0.  1.
         22    1    3    3    0    0  0.90568797213E+02  0.11184604240E+03  0.11331474792E+03  0.18317335048E+03  0.00000000000E+00 0.  1.
</event>
<event>
 7    1  0.6508013E-006  0.9352364E+02  0.7818608E-02  0.1316168E+00
          2   -1    0    0  502    0  0.00000000000E+00  0.00000000000E+00  0.22531612521E+04  0.22531612521E+04  0.00000000000E+00 0. -1.
          1   -1    0    0  501    0 -0.00000000000E+00 -0.00000000000E+00 -0.19730267649E+04  0.19730267649E+04  0.00000000000E+00 0. -1.
         25    2    1    2    0    0 -0.97200818901E+02 -0.61940644370E+02  0.68718898022E+03  0.70791119485E+03  0.12499969056E+03 0.  0.
          2    1    1    2  501    0  0.71291477683E+02 -0.28410529177E+02 -0.19604944200E+04  0.19619959235E+04  0.00000000000E+00 0. -1.
          1    1    1    2  502    0  0.25909341218E+02  0.90351173547E+02  0.15534399270E+04  0.15562808986E+04  0.00000000000E+00 0. -1.
         22    1    3    3    0    0 -0.36611131450E+01 -0.21079048059E+02  0.10991833287E+02  0.24053074971E+02  0.00000000000E+00 0. -1.
         22    1    3    3    0    0 -0.93539705756E+02 -0.40861596311E+02  0.67619714693E+03  0.68385811988E+03  0.00000000000E+00 0. -1.
</event>
<event>
 7    1  0.6508013E-006  0.8081857E+02  0.7818608E-02  0.1350876E+00
          2   -1    0    0  502    0  0.00000000000E+00  0.00000000000E+00  0.15655260403E+03  0.15655260403E+03  0.00000000000E+00 0. -1.
          1   -1    0    0  501    0 -0.00000000000E+00 -0.00000000000E+00 -0.35933162743E+03  0.35933162743E+03  0.00000000000E+00 0. -1.
         25    2    1    2    0    0 -0.87549071338E+02 -0.14817849202E+02  0.17817068546E+02  0.15435845638E+03  0.12499870630E+03 0.  0.
          2    1    1    2  501    0  0.66894822996E+02 -0.47390143341E+02 -0.26824307287E+03  0.28049080052E+03  0.00000000000E+00 0. -1.
          1    1    1    2  502    0  0.20654248343E+02  0.62207992542E+02  0.47646980932E+02  0.81034974565E+02  0.00000000000E+00 0. -1.
         22    1    3    3    0    0 -0.11211192995E+03 -0.38920245660E+02  0.17389278386E+02  0.11994272534E+03  0.00000000000E+00 0.  1.
         22    1    3    3    0    0  0.24562858612E+02  0.24102396459E+02  0.42779016022E+00  0.34415731035E+02  0.00000000000E+00 0.  1.
</event>
<event>
 7    1  0.6508013E-006  0.9952490E+02  0.7818608E-02  0.1284816E+00
          2   -1    0    0  502    0  0.00000000000E+00  0.00000000000E+00  0.11921435535E+03  0.11921435535E+03  0.00000000000E+00 0. -1.
          1   -1    0    0  501    0 -0.00000000000E+00 -0.00000000000E+00 -0.73402789749E+03  0.73402789749E+03  0.00000000000E+00 0. -1.
         25    2    1    2    0    0 -0.94258276270E+02  0.59291120984E+02 -0.41217930788E+03  0.44487848798E+03  0.12500011022E+03 0.  0.
          2    1    1    2  501    0  0.97432743122E+02  0.40183136164E+02 -0.26888638715E+03  0.28880393532E+03  0.00000000000E+00 0. -1.
          1    1    1    2  502    0 -0.31744668524E+01 -0.99474257148E+02  0.66252152883E+02  0.11955982953E+03  0.00000000000E+00 0. -1.
         22    1    3    3    0    0 -0.11964039423E+03  0.39577817843E+02 -0.37565210769E+03  0.39622560948E+03  0.00000000000E+00 0.  1.
         22    1    3    3    0    0  0.25382117962E+02  0.19713303141E+02 -0.36527200190E+02  0.48652878504E+02  0.00000000000E+00 0.  1.
</event>
<event>
 7    1  0.6508013E-006  0.2732920E+02  0.7818608E-02  0.1647239E+00
          2   -1    0    0  502    0  0.00000000000E+00  0.00000000000E+00  0.49677561312E+02  0.49677561312E+02  0.00000000000E+00 0. -1.
          1   -1    0    0  501    0 -0.00000000000E+00 -0.00000000000E+00 -0.36976542244E+03  0.36976542244E+03  0.00000000000E+00 0. -1.
         25    2    1    2    0    0  0.46815504125E+02  0.11628765391E+02 -0.10847307249E+03  0.17238742950E+03  0.12499639508E+03 0.  0.
          2    1    1    2  501    0 -0.22329919051E+02 -0.14933970834E+02 -0.21948643937E+03  0.22112427690E+03  0.00000000000E+00 0. -1.
          1    1    1    2  502    0 -0.24485585074E+02  0.33052054431E+01  0.78716507375E+01  0.25931277346E+02  0.00000000000E+00 0. -1.
         22    1    3    3    0    0  0.94221077860E+01  0.10676644268E+02  0.27713250350E+02  0.31157520648E+02  0.00000000000E+00 0.  1.
         22    1    3    3    0    0  0.37393396339E+02  0.95212112252E+00 -0.13618632284E+03  0.14122990885E+03  0.00000000000E+00 0.  1.
</event>
<event>
 7    1  0.6508013E-006  0.7502737E+02  0.7818608E-02  0.1465745E+00
          2   -1    0    0  502    0  0.00000000000E+00  0.00000000000E+00  0.11338548130E+04  0.11338548130E+04  0.00000000000E+00 0. -1.
          1   -1    0    0  501    0 -0.00000000000E+00 -0.00000000000E+00 -0.18946740781E+02  0.18946740781E+02  0.00000000000E+00 0. -1.
         25    2    1    2    0    0 -0.86790281730E+02 -0.24826350025E+02  0.69379507919E+03  0.71072205166E+03  0.12500128858E+03 0.  0.
          2    1    1    2  501    0  0.61579415222E+02  0.38550014885E+02  0.12500471184E+03  0.14458321483E+03  0.00000000000E+00 0. -1.
          1    1    1    2  502    0  0.25210866509E+02 -0.13723664860E+02  0.29610828123E+03  0.29749628734E+03  0.00000000000E+00 0. -1.
         22    1    3    3    0    0 -0.71684777667E+02 -0.64361654357E+02  0.31061987731E+03  0.32521660179E+03  0.00000000000E+00 0.  1.
         22    1    3    3    0    0 -0.15105504063E+02  0.39535304332E+02  0.38317520188E+03  0.38550544987E+03  0.00000000000E+00 0.  1.
</event>
<event>
 7    1  0.6508013E-006  0.1282252E+03  0.7818608E-02  0.1390498E+00
          2   -1    0    0  502    0  0.00000000000E+00  0.00000000000E+00  0.20490421486E+04  0.20490421486E+04  0.00000000000E+00 0. -1.
          1   -1    0    0  501    0 -0.00000000000E+00 -0.00000000000E+00 -0.24522310583E+02  0.24522310583E+02  0.00000000000E+00 0. -1.
         25    2    1    2    0    0  0.27717878167E+02 -0.10039018441E+03  0.13445843513E+04  0.13543935501E+04  0.12501336347E+03 0.  0.
          2    1    1    2  501    0 -0.24791472313E+02  0.13001496077E+03  0.20958800486E+03  0.24788230858E+03  0.00000000000E+00 0. -1.
          1    1    1    2  502    0 -0.29264058542E+01 -0.29624776364E+02  0.47034748185E+03  0.47128860044E+03  0.00000000000E+00 0. -1.
         22    1    3    3    0    0  0.39033639928E+01 -0.69883762261E+02  0.26413521853E+03  0.27325151444E+03  0.00000000000E+00 0.  1.
         22    1    3    3    0    0  0.23814514174E+02 -0.30506422150E+02  0.10804491328E+04  0.10811420357E+04  0.00000000000E+00 0.  1.
</event>
<event>
 7    1  0.6508013E-006  0.1584847E+03  0.7818608E-02  0.1237657E+00
          2   -1    0    0  502    0  0.00000000000E+00  0.00000000000E+00  0.21238141891E+03  0.21238141891E+03  0.00000000000E+00 0. -1.
          1   -1    0    0  501    0 -0.00000000000E+00 -0.00000000000E+00 -0.75649152055E+03  0.75649152055E+03  0.00000000000E+00 0. -1.
         25    2    1    2    0    0 -0.11129424607E+03  0.10021580940E+03 -0.29564021204E+03  0.35419988195E+03  0.12499921494E+03 0.  0.
          2    1    1    2  501    0  0.76251837170E+02  0.58353083889E+02 -0.38853256180E+03  0.40022115968E+03  0.00000000000E+00 0. -1.
          1    1    1    2  502    0  0.35042408897E+02 -0.15856889328E+03  0.14006267220E+03  0.21445189783E+03  0.00000000000E+00 0. -1.
         22    1    3    3    0    0 -0.10248022380E+03  0.19842743366E+02 -0.21987334726E+03  0.24339313788E+03  0.00000000000E+00 0. -1.
         22    1    3    3    0    0 -0.88140222700E+01  0.80373066030E+02 -0.75766864782E+02  0.11080674407E+03  0.00000000000E+00 0. -1.
</event>
<event>
 7    1  0.6508013E-006  0.4493422E+02  0.7818608E-02  0.1498622E+00
          2   -1    0    0  502    0  0.00000000000E+00  0.00000000000E+00  0.23377774858E+04  0.23377774858E+04  0.00000000000E+00 0. -1.
          1   -1    0    0  501    0 -0.00000000000E+00 -0.00000000000E+00 -0.11743868913E+04  0.11743868913E+04  0.00000000000E+00 0. -1.
         25    2    1    2    0    0 -0.22724014525E+02 -0.29731360387E+02  0.37203439087E+02  0.13567830802E+03  0.12499669100E+03 0.  0.
          2    1    1    2  501    0 -0.12836989889E+02  0.43185978558E+02 -0.11245378216E+04  0.11254399714E+04  0.00000000000E+00 0. -1.
          1    1    1    2  502    0  0.35561004415E+02 -0.13454618170E+02  0.22507249770E+04  0.22510460977E+04  0.00000000000E+00 0. -1.
         22    1    3    3    0    0  0.39008377794E+02 -0.10698035420E+02 -0.23712507308E+02  0.46886933177E+02  0.00000000000E+00 0.  1.
         22    1    3    3    0    0 -0.61732392319E+02 -0.19033324968E+02  0.60915946395E+02  0.88791374840E+02  0.00000000000E+00 0.  1.
</event>
<event>
 7    1  0.6508013E-006  0.2006636E+03  0.7818608E-02  0.1273640E+00
          2   -1    0    0  502    0  0.00000000000E+00  0.00000000000E+00  0.10580696207E+04  0.10580696207E+04  0.00000000000E+00 0. -1.
          1   -1    0    0  501    0 -0.00000000000E+00 -0.00000000000E+00 -0.38547416723E+03  0.38547416723E+03  0.00000000000E+00 0. -1.
         25    2    1    2    0    0  0.22463121152E+03  0.21944598902E+02  0.15757459131E+03  0.30231622597E+03  0.12499840820E+03 0.  0.
          2    1    1    2  501    0 -0.28660825384E+02 -0.44712007863E+02 -0.29897956574E+03  0.30365998631E+03  0.00000000000E+00 0. -1.
          1    1    1    2  502    0 -0.19597038613E+03  0.22767408961E+02  0.81400042788E+03  0.83756757563E+03  0.00000000000E+00 0. -1.
         22    1    3    3    0    0  0.16701402378E+03  0.71443371772E+02  0.10343666957E+03  0.20903823603E+03  0.00000000000E+00 0. -1.
         22    1    3    3    0    0  0.57617187737E+02 -0.49498772870E+02  0.54137921736E+02  0.93277989946E+02  0.00000000000E+00 0. -1.
</event>
<event>
 7    1  0.6508013E-006  0.6025760E+02  0.7818608E-02  0.1411715E+00
          2   -1    0    0  502    0  0.00000000000E+00  0.00000000000E+00  0.96781334170E+03  0.96781334170E+03  0.00000000000E+00 0. -1.
          1   -1    0    0  501    0 -0.00000000000E+00 -0.00000000000E+00 -0.33751490330E+03  0.33751490330E+03  0.00000000000E+00 0. -1.
         25    2    1    2    0    0 -0.29239167804E+01  0.10202186098E+02  0.55018426590E+02  0.13697904512E+03  0.12499439047E+03 0.  0.
          2    1    1    2  501    0  0.25180369147E+02  0.47277653419E+02 -0.29301416592E+03  0.29786998662E+03  0.00000000000E+00 0. -1.
          1    1    1    2  502    0 -0.22256452367E+02 -0.57479839516E+02  0.86829417773E+03  0.87047921325E+03  0.00000000000E+00 0. -1.
         22    1    3    3    0    0  0.28522572888E+02 -0.48868573470E+02  0.37238932874E+02  0.67737823694E+02  0.00000000000E+00 0.  1.
         22    1    3    3    0    0 -0.31446489669E+02  0.59070759567E+02  0.17779493715E+02  0.69241221430E+02  0.00000000000E+00 0.  1.
</event>
<event>
 7    1  0.6508013E-006  0.9340981E+02  0.7818608E-02  0.1328025E+00
          2   -1    0    0  502    0  0.00000000000E+00  0.00000000000E+00  0.31773871478E+04  0.31773871478E+04  0.00000000000E+00 0. -1.
          1   -1    0    0  501    0 -0.00000000000E+00 -0.00000000000E+00 -0.49791426979E+03  0.49791426979E+03  0.00000000000E+00 0. -1.
         25    2    1    2    0    0  0.10977705250E+03 -0.36742173507E+02  0.56183622325E+03  0.58709870984E+03  0.12499585901E+03 0.  0.
          2    1    1    2  501    0 -0.56474691641E+02 -0.39883324497E+02 -0.48197864712E+03  0.48691219604E+03  0.00000000000E+00 0. -1.
          1    1    1    2  502    0 -0.53302360855E+02  0.76625498005E+02  0.25996153018E+04  0.26012905117E+04  0.00000000000E+00 0. -1.
         22    1    3    3    0    0  0.40282634548E+02 -0.42991658716E+02  0.75419839061E+02  0.95703320158E+02  0.00000000000E+00 0.  1.
         22    1    3    3    0    0  0.69494417947E+02  0.62494852083E+01  0.48641638419E+03  0.49139538968E+03  0.00000000000E+00 0.  1.
</event>
<event>
 7    1  0.6508013E-006  0.6714445E+02  0.7818608E-02  0.1485848E+00
          2   -1    0    0  502    0  0.00000000000E+00  0.00000000000E+00  0.16979388272E+04  0.16979388272E+04  0.00000000000E+00 0. -1.
          1   -1    0    0  501    0 -0.00000000000E+00 -0.00000000000E+00 -0.12102941420E+03  0.12102941420E+03  0.00000000000E+00 0. -1.
         25    2    1    2    0    0 -0.30143194033E+02  0.30170953563E+02  0.88765626171E+02  0.15913157807E+03  0.12499849665E+03 0.  0.
          2    1    1    2  501    0  0.53841958613E+02 -0.44713280719E+02 -0.71437375238E+02  0.10000766251E+03  0.00000000000E+00 0. -1.
          1    1    1    2  502    0 -0.23698764580E+02  0.14542327156E+02  0.15595811621E+04  0.15598290008E+04  0.00000000000E+00 0. -1.
         22    1    3    3    0    0  0.27408579050E+02 -0.16454361370E+02  0.77984574121E+02  0.84282679208E+02  0.00000000000E+00 0.  1.
         22    1    3    3    0    0 -0.57551773084E+02  0.46625314933E+02  0.10781052050E+02  0.74848898863E+02  0.00000000000E+00 0.  1.
</event>
<event>
 7    1  0.6508013E-006  0.8066999E+02  0.7818608E-02  0.1464528E+00
          2   -1    0    0  502    0  0.00000000000E+00  0.00000000000E+00  0.36748704098E+03  0.36748704098E+03  0.00000000000E+00 0. -1.
          1   -1    0    0  501    0 -0.00000000000E+00 -0.00000000000E+00 -0.94122269124E+03  0.94122269124E+03  0.00000000000E+00 0. -1.
         25    2    1    2    0    0 -0.89997138135E+01 -0.56669303311E+02 -0.90585407656E+01  0.13783907066E+03  0.12500058982E+03 0.  0.
          2    1    1    2  501    0 -0.17361376521E+01  0.81368785974E+02 -0.86526220674E+03  0.86908145758E+03  0.00000000000E+00 0. -1.
          1    1    1    2  502    0  0.10735851466E+02 -0.24699482663E+02  0.30058509725E+03  0.30178920398E+03  0.00000000000E+00 0. -1.
         22    1    3    3    0    0 -0.55426623607E+01 -0.14523700453E+02 -0.65496700932E+02  0.67316244800E+02  0.00000000000E+00 0.  1.
         22    1    3    3    0    0 -0.34570514527E+01 -0.42145602858E+02  0.56438160167E+02  0.70522825865E+02  0.00000000000E+00 0.  1.
</event>
<event>
 7    1  0.6508013E-006  0.2692719E+02  0.7818608E-02  0.1668784E+00
          2   -1    0    0  502    0  0.00000000000E+00  0.00000000000E+00  0.22351447930E+02  0.22351447930E+02  0.00000000000E+00 0. -1.
          1   -1    0    0  501    0 -0.00000000000E+00 -0.00000000000E+00 -0.57606499160E+03  0.57606499160E+03  0.00000000000E+00 0. -1.
         25    2    1    2    0    0 -0.17782355956E+02 -0.44221989641E+02 -0.34662818989E+03  0.37154863954E+03  0.12500197183E+03 0.  0.
          2    1    1    2  501    0  0.11297297041E+02  0.19146218113E+02 -0.19826338316E+03  0.19950582871E+03  0.00000000000E+00 0. -1.
          1    1    1    2  502    0  0.64850589146E+01  0.25075771528E+02 -0.88219706172E+01  0.27361971281E+02  0.00000000000E+00 0. -1.
         22    1    3    3    0    0  0.39173718856E+02 -0.39971078443E+02 -0.72794917956E+02  0.91822477864E+02  0.00000000000E+00 0.  1.
         22    1    3    3    0    0 -0.56956074812E+02 -0.42509111981E+01 -0.27383327194E+03  0.27972616167E+03  0.00000000000E+00 0.  1.
</event>
<event>
 7    1  0.6508013E-006  0.4034093E+03  0.7818608E-02  0.1170728E+00
          2   -1    0    0  502    0  0.00000000000E+00  0.00000000000E+00  0.19681864516E+04  0.19681864516E+04  0.00000000000E+00 0. -1.
          1   -1    0    0  501    0 -0.00000000000E+00 -0.00000000000E+00 -0.22054602261E+04  0.22054602261E+04  0.00000000000E+00 0. -1.
         25    2    1    2    0    0 -0.12241103382E+03 -0.43235517823E+03 -0.17855238645E+03  0.49942040333E+03  0.12499729281E+03 0.  0.
          2    1    1    2  501    0  0.54858837702E+02  0.39402428847E+03 -0.18444217280E+04  0.18868376037E+04  0.00000000000E+00 0. -1.
          1    1    1    2  502    0  0.67552196117E+02  0.38330889762E+02  0.17857003399E+04  0.17873886707E+04  0.00000000000E+00 0. -1.
         22    1    3    3    0    0 -0.14499275282E+02 -0.27618688161E+03 -0.10812327265E+03  0.29695128329E+03  0.00000000000E+00 0. -1.
         22    1    3    3    0    0 -0.10791175854E+03 -0.15616829662E+03 -0.70429113794E+02  0.20246912004E+03  0.00000000000E+00 0. -1.
</event>
<event>
 7    1  0.6508013E-006  0.1685803E+03  0.7818608E-02  0.1357629E+00
          2   -1    0    0  502    0  0.00000000000E+00  0.00000000000E+00  0.35392516149E+03  0.35392516149E+03  0.00000000000E+00 0. -1.
          1   -1    0    0  501    0 -0.00000000000E+00 -0.00000000000E+00 -0.80587227815E+03  0.80587227815E+03  0.00000000000E+00 0. -1.
         25    2    1    2    0    0  0.17831970574E+03  0.42885101540E+02 -0.15772262647E+03  0.27228228113E+03  0.12499665726E+03 0.  0.
          2    1    1    2  501    0 -0.15442798162E+03 -0.60486831973E+02 -0.57844387361E+03  0.60175075676E+03  0.00000000000E+00 0. -1.
          1    1    1    2  502    0 -0.23891724124E+02  0.17601730433E+02  0.28421938342E+03  0.28576440175E+03  0.00000000000E+00 0. -1.
         22    1    3    3    0    0  0.19524386284E+03  0.24200129990E+02 -0.13999506807E+03  0.24146310557E+03  0.00000000000E+00 0.  1.
         22    1    3    3    0    0 -0.16924157098E+02  0.18684971550E+02 -0.17727558399E+02  0.30819175559E+02  0.00000000000E+00 0.  1.
</event>
<event>
 7    1  0.7047124E-006  0.6930071E+02  0.7818608E-02  0.1508590E+00
          2   -1    0    0  502    0  0.00000000000E+00  0.00000000000E+00  0.67130915520E+03  0.67130915520E+03  0.00000000000E+00 0. -1.
          1   -1    0    0  501    0 -0.00000000000E+00 -0.00000000000E+00 -0.13992446996E+04  0.13992446996E+04  0.00000000000E+00 0. -1.
         25    2    1    2    0    0 -0.51462624615E+02  0.20595357541E+02 -0.46658198625E+03  0.48620723302E+03  0.12500461219E+03 0.  0.
          2    1    1    2  501    0 -0.17656387224E+02 -0.14784019337E+02 -0.92088744328E+03  0.92117533534E+03  0.00000000000E+00 0. -1.
          1    1    1    2  502    0  0.69119011839E+02 -0.58113382038E+01  0.65953388516E+03  0.66317128642E+03  0.00000000000E+00 0. -1.
         22    1    3    3    0    0  0.13444057129E+02  0.51112083377E+02 -0.10466242498E+03  0.11724935369E+03  0.00000000000E+00 0. -1.
         22    1    3    3    0    0 -0.64906681744E+02 -0.30516725836E+02 -0.36191956127E+03  0.36895787933E+03  0.00000000000E+00 0. -1.
</event>
<event>
 7    1  0.6508013E-006  0.3526811E+02  0.7818608E-02  0.1565453E+00
          2   -1    0    0  502    0  0.00000000000E+00  0.00000000000E+00  0.10205395163E+04  0.10205395163E+04  0.00000000000E+00 0. -1.
          1   -1    0    0  501    0 -0.00000000000E+00 -0.00000000000E+00 -0.21642648951E+03  0.21642648951E+03  0.00000000000E+00 0. -1.
         25    2    1    2    0    0 -0.26264421059E+02 -0.60260702890E+02  0.68703034749E+02  0.15705388059E+03  0.12499856919E+03 0.  0.
          2    1    1    2  501    0  0.16546214716E+02  0.30610874084E+02 -0.17022232799E+03  0.17374246396E+03  0.00000000000E+00 0. -1.
          1    1    1    2  502    0  0.97182063435E+01  0.29649828805E+02  0.90563232006E+03  0.90616966128E+03  0.00000000000E+00 0. -1.
         22    1    3    3    0    0 -0.25870834065E+02 -0.99079437123E+02  0.49089056193E+02  0.11355954541E+03  0.00000000000E+00 0.  1.
         22    1    3    3    0    0 -0.39358699376E+00  0.38818734233E+02  0.19613978556E+02  0.43494335182E+02  0.00000000000E+00 0.  1.
</event>
<event>
 7    1  0.6508013E-006  0.5803286E+02  0.7818608E-02  0.1499847E+00
          2   -1    0    0  502    0  0.00000000000E+00  0.00000000000E+00  0.11775490167E+04  0.11775490167E+04  0.00000000000E+00 0. -1.
          1   -1    0    0  501    0 -0.00000000000E+00 -0.00000000000E+00 -0.62854184211E+02  0.62854184211E+02  0.00000000000E+00 0. -1.
         25    2    1    2    0    0  0.22118717853E+01 -0.60334696937E+02  0.70488019721E+03  0.71842381175E+03  0.12502604869E+03 0.  0.
          2    1    1    2  501    0 -0.28231332342E+02  0.74289312283E+01 -0.50270563299E+02  0.58131976393E+02  0.00000000000E+00 0. -1.
          1    1    1    2  502    0  0.26019460557E+02  0.52905765709E+02  0.46008519856E+03  0.46384741275E+03  0.00000000000E+00 0. -1.
         22    1    3    3    0    0 -0.23656400532E+02 -0.13206214833E+02  0.26438247903E+02  0.37855123148E+02  0.00000000000E+00 0. -1.
         22    1    3    3    0    0  0.25868272318E+02 -0.47128482104E+02  0.67844194930E+03  0.68056868861E+03  0.00000000000E+00 0. -1.
</event>
<event>
 7    1  0.6508013E-006  0.6517608E+02  0.7818608E-02  0.1457782E+00
          2   -1    0    0  502    0  0.00000000000E+00  0.00000000000E+00  0.90299532000E+03  0.90299532000E+03  0.00000000000E+00 0. -1.
          1   -1    0    0  501    0 -0.00000000000E+00 -0.00000000000E+00 -0.47832381363E+03  0.47832381363E+03  0.00000000000E+00 0. -1.
         25    2    1    2    0    0 -0.69647052510E+02  0.61094765673E+02  0.50717181137E+03  0.53050147899E+03  0.12500116258E+03 0.  0.
          2    1    1    2  501    0  0.31744040885E+02 -0.14754589720E+02 -0.46366279621E+03  0.46498233368E+03  0.00000000000E+00 0. -1.
          1    1    1    2  502    0  0.37903011625E+02 -0.46340175953E+02  0.38116249120E+03  0.38583532096E+03  0.00000000000E+00 0. -1.
         22    1    3    3    0    0 -0.28899049247E+02  0.35996739223E+02  0.46325001516E+03  0.46554430168E+03  0.00000000000E+00 0.  1.
         22    1    3    3    0    0 -0.40748003263E+02  0.25098026449E+02  0.43921796207E+02  0.64957177307E+02  0.00000000000E+00 0.  1.
</event>
<event>
 7    1  0.6508013E-006  0.7202048E+02  0.7818608E-02  0.1366674E+00
          2   -1    0    0  502    0  0.00000000000E+00  0.00000000000E+00  0.12205136393E+03  0.12205136393E+03  0.00000000000E+00 0. -1.
          1   -1    0    0  501    0 -0.00000000000E+00 -0.00000000000E+00 -0.17953830435E+04  0.17953830435E+04  0.00000000000E+00 0. -1.
         25    2    1    2    0    0  0.85237971973E+02  0.91958815124E+02 -0.82865641409E+03  0.84735984465E+03  0.12500127262E+03 0.  0.
          2    1    1    2  501    0 -0.59132735812E+02 -0.25493559632E+02 -0.94485667446E+03  0.94704843451E+03  0.00000000000E+00 0. -1.
          1    1    1    2  502    0 -0.26105236160E+02 -0.66465255492E+02  0.10018140896E+03  0.12302612830E+03  0.00000000000E+00 0. -1.
         22    1    3    3    0    0  0.91626044293E+02  0.11754837195E+03 -0.65728582081E+03  0.67397151422E+03  0.00000000000E+00 0.  1.
         22    1    3    3    0    0 -0.63880723201E+01 -0.25589556823E+02 -0.17137059328E+03  0.17338833042E+03  0.00000000000E+00 0.  1.
</event>
<event>
 7    1  0.6508013E-006  0.9649701E+02  0.7818608E-02  0.1375274E+00
          2   -1    0    0  502    0  0.00000000000E+00  0.00000000000E+00  0.48486040598E+02  0.48486040598E+02  0.00000000000E+00 0. -1.
          1   -1    0    0  501    0 -0.00000000000E+00 -0.00000000000E+00 -0.25960215620E+04  0.25960215620E+04  0.00000000000E+00 0. -1.
         25    2    1    2    0    0  0.72478033262E+02 -0.89689640789E+02 -0.90849819365E+03  0.92427854445E+03  0.12499825152E+03 0.  0.
          2    1    1    2  501    0 -0.44717016377E+02 -0.20190641420E+01 -0.16223512471E+04  0.16229686556E+04  0.00000000000E+00 0. -1.
          1    1    1    2  502    0 -0.27761016885E+02  0.91708704931E+02 -0.16686080690E+02  0.97260402567E+02  0.00000000000E+00 0. -1.
         22    1    3    3    0    0  0.94876156082E+02 -0.67602108845E+02 -0.45452885937E+03  0.46922064544E+03  0.00000000000E+00 0.  1.
         22    1    3    3    0    0 -0.22398122820E+02 -0.22087531944E+02 -0.45396933429E+03  0.45505789900E+03  0.00000000000E+00 0.  1.
</event>
<event>
 7    1  0.6508013E-006  0.9171790E+02  0.7818608E-02  0.1465267E+00
          2   -1    0    0  502    0  0.00000000000E+00  0.00000000000E+00  0.16380401941E+03  0.16380401941E+03  0.00000000000E+00 0. -1.
          1   -1    0    0  501    0 -0.00000000000E+00 -0.00000000000E+00 -0.37446868559E+03  0.37446868559E+03  0.00000000000E+00 0. -1.
         25    2    1    2    0    0  0.10755097371E+03 -0.15488167504E+02 -0.67961110703E+02  0.17900385445E+03  0.12496628369E+03 0.  0.
          2    1    1    2  501    0 -0.89400318841E+02  0.46446283874E+00 -0.24159677310E+03  0.25760751834E+03  0.00000000000E+00 0. -1.
          1    1    1    2  502    0 -0.18150654873E+02  0.15023704665E+02  0.98893217623E+02  0.10166133221E+03  0.00000000000E+00 0. -1.
         22    1    3    3    0    0  0.11895055505E+03  0.12318228552E+02 -0.18330123910E+02  0.12098333251E+03  0.00000000000E+00 0.  1.
         22    1    3    3    0    0 -0.11399581339E+02 -0.27806396056E+02 -0.49630986794E+02  0.58020521942E+02  0.00000000000E+00 0.  1.
</event>
<event>
 7    1  0.6508013E-006  0.9394956E+02  0.7818608E-02  0.1413024E+00
          2   -1    0    0  502    0  0.00000000000E+00  0.00000000000E+00  0.15713324419E+04  0.15713324419E+04  0.00000000000E+00 0. -1.
          1   -1    0    0  501    0 -0.00000000000E+00 -0.00000000000E+00 -0.25367285120E+02  0.25367285120E+02  0.00000000000E+00 0. -1.
         25    2    1    2    0    0 -0.38647038846E+02 -0.11445302011E+03  0.95027915560E+03  0.96604904380E+03  0.12500877582E+03 0.  0.
          2    1    1    2  501    0  0.41617668266E+02  0.80575232182E+02  0.10481165041E+03  0.13859971290E+03  0.00000000000E+00 0. -1.
          1    1    1    2  502    0 -0.29706294203E+01  0.33877787933E+02  0.49087435082E+03  0.49205097037E+03  0.00000000000E+00 0. -1.
         22    1    3    3    0    0 -0.34130074567E+02 -0.14351848110E+02  0.62580376034E+02  0.72712729275E+02  0.00000000000E+00 0. -1.
         22    1    3    3    0    0 -0.45169642794E+01 -0.10010117200E+03  0.88769877957E+03  0.89333631452E+03  0.00000000000E+00 0. -1.
</event>
<event>
 7    1  0.6508013E-006  0.5641020E+02  0.7818608E-02  0.1484681E+00
          2   -1    0    0  502    0  0.00000000000E+00  0.00000000000E+00  0.78307092232E+02  0.78307092232E+02  0.00000000000E+00 0. -1.
          1   -1    0    0  501    0 -0.00000000000E+00 -0.00000000000E+00 -0.78958846135E+03  0.78958846135E+03  0.00000000000E+00 0. -1.
         25    2    1    2    0    0  0.17074934334E+02  0.35037468764E+02 -0.16401556710E+03  0.20987212301E+03  0.12500409660E+03 0.  0.
          2    1    1    2  501    0  0.77450837248E+01 -0.57339578653E+02 -0.59608702033E+03  0.59888859516E+03  0.00000000000E+00 0. -1.
          1    1    1    2  502    0 -0.24820018059E+02  0.22302109888E+02  0.48821218312E+02  0.59134835414E+02  0.00000000000E+00 0. -1.
         22    1    3    3    0    0  0.19958267805E+01  0.52258655457E+02 -0.88658168053E+01  0.53042936403E+02  0.00000000000E+00 0.  1.
         22    1    3    3    0    0  0.15079107554E+02 -0.17221186692E+02 -0.15514975029E+03  0.15682918661E+03  0.00000000000E+00 0.  1.
</event>
<event>
 7    1  0.6508013E-006  0.1283436E+03  0.7818608E-02  0.1323312E+00
          2   -1    0    0  502    0  0.00000000000E+00  0.00000000000E+00  0.22376388476E+03  0.22376388476E+03  0.00000000000E+00 0. -1.
          1   -1    0    0  501    0 -0.00000000000E+00 -0.00000000000E+00 -0.37442048027E+03  0.37442048027E+03  0.00000000000E+00 0. -1.
         25    2    1    2    0    0  0.20772598647E+02 -0.13418610624E+03 -0.12023011051E+03  0.22026806682E+03  0.12500131929E+03 0.  0.
          2    1    1    2  501    0 -0.67024228074E+02  0.10942189469E+03 -0.17906272305E+03  0.22029266210E+03  0.00000000000E+00 0. -1.
          1    1    1    2  502    0  0.46251629426E+02  0.24764211550E+02  0.14863623806E+03  0.15762363612E+03  0.00000000000E+00 0. -1.
         22    1    3    3    0    0 -0.24944099290E+02 -0.16795593133E+02 -0.83944293448E+02  0.89168068503E+02  0.00000000000E+00 0. -1.
         22    1    3    3    0    0  0.45716697938E+02 -0.11739051311E+03 -0.36285817063E+02  0.13109999832E+03  0.00000000000E+00 0. -1.
</event>
<event>
 7    1  0.6508013E-006  0.5717525E+02  0.7818608E-02  0.1454899E+00
          2   -1    0    0  502    0  0.00000000000E+00  0.00000000000E+00  0.22897764547E+03  0.22897764547E+03  0.00000000000E+00 0. -1.
          1   -1    0    0  501    0 -0.00000000000E+00 -0.00000000000E+00 -0.66962715859E+03  0.66962715859E+03  0.00000000000E+00 0. -1.
         25    2    1    2    0    0 -0.58605004208E+02 -0.63551928459E+01 -0.55880015614E+03  0.57563656154E+03  0.12499960596E+03 0.  0.
          2    1    1    2  501    0  0.11607803957E+02  0.39064771098E+02 -0.94410104966E+02  0.10283027460E+03  0.00000000000E+00 0. -1.
          1    1    1    2  502    0  0.46997200251E+02 -0.32709578252E+02  0.21256074798E+03  0.22013796793E+03  0.00000000000E+00 0. -1.
         22    1    3    3    0    0 -0.97293642133E+02  0.62920943113E+01 -0.39559127708E+03  0.40742864621E+03  0.00000000000E+00 0. -1.
         22    1    3    3    0    0  0.38688637925E+02 -0.12647287157E+02 -0.16320887906E+03  0.16820791534E+03  0.00000000000E+00 0. -1.
</event>
<event>
 7    1  0.1349667E-005  0.1057170E+03  0.7818608E-02  0.1294456E+00
          2   -1    0    0  502    0  0.00000000000E+00  0.00000000000E+00  0.19050818844E+04  0.19050818844E+04  0.00000000000E+00 0. -1.
          1   -1    0    0  501    0 -0.00000000000E+00 -0.00000000000E+00 -0.12235380774E+04  0.12235380774E+04  0.00000000000E+00 0. -1.
         25    2    1    2    0    0  0.10503219588E+02  0.21858121776E+02 -0.39274515967E+03  0.41287062986E+03  0.12500120580E+03 0.  0.
          2    1    1    2  501    0  0.58226642347E+02  0.58866577016E+02 -0.81715362217E+03  0.82133772468E+03  0.00000000000E+00 0. -1.
          1    1    1    2  502    0 -0.68729861935E+02 -0.80724698792E+02  0.18914425888E+04  0.18944116073E+04  0.00000000000E+00 0. -1.
         22    1    3    3    0    0  0.67335341134E+02  0.94157114168E+01 -0.23912333349E+03  0.24860143283E+03  0.00000000000E+00 0.  1.
         22    1    3    3    0    0 -0.56832121546E+02  0.12442410359E+02 -0.15362182618E+03  0.16426919703E+03  0.00000000000E+00 0.  1.
</event>
<event>
 7    1  0.6508013E-006  0.7114748E+02  0.7818608E-02  0.1404802E+00
          2   -1    0    0  502    0  0.00000000000E+00  0.00000000000E+00  0.15935635924E+04  0.15935635924E+04  0.00000000000E+00 0. -1.
          1   -1    0    0  501    0 -0.00000000000E+00 -0.00000000000E+00 -0.45021629795E+02  0.45021629795E+02  0.00000000000E+00 0. -1.
         25    2    1    2    0    0 -0.81195638482E+02  0.91965740091E+01  0.76501928338E+03  0.77945958307E+03  0.12500171607E+03 0.  0.
          2    1    1    2  501    0  0.52909260725E+02 -0.47836748006E+02 -0.27641113646E+01  0.71381963001E+02  0.00000000000E+00 0. -1.
          1    1    1    2  502    0  0.28286377758E+02  0.38640173997E+02  0.78628679061E+03  0.78774367614E+03  0.00000000000E+00 0. -1.
         22    1    3    3    0    0 -0.11432124613E+03  0.86307817478E+01  0.63624783812E+03  0.64649450827E+03  0.00000000000E+00 0.  1.
         22    1    3    3    0    0  0.33125607652E+02  0.56579226130E+00  0.12877144525E+03  0.13296507480E+03  0.00000000000E+00 0.  1.
</event>
<event>
 7    1  0.6508013E-006  0.1159126E+03  0.7818608E-02  0.1361946E+00
          2   -1    0    0  502    0  0.00000000000E+00  0.00000000000E+00  0.18546602267E+04  0.18546602267E+04  0.00000000000E+00 0. -1.
          1   -1    0    0  501    0 -0.00000000000E+00 -0.00000000000E+00 -0.11987651987E+04  0.11987651987E+04  0.00000000000E+00 0. -1.
         25    2    1    2    0    0  0.13451694797E+03  0.90696020098E+01  0.39952124166E+02  0.18815132908E+03  0.12501073329E+03 0.  0.
          2    1    1    2  501    0 -0.10799612781E+03 -0.41146868103E+02 -0.11214467723E+04  0.11273859550E+04  0.00000000000E+00 0. -1.
          1    1    1    2  502    0 -0.26520820159E+02  0.32077266094E+02  0.17373896762E+04  0.17378881413E+04  0.00000000000E+00 0. -1.
         22    1    3    3    0    0  0.80918345094E+02  0.24354372356E+02 -0.37728873015E+02  0.92543945694E+02  0.00000000000E+00 0. -1.
         22    1    3    3    0    0  0.53598602875E+02 -0.15284770346E+02  0.77680997181E+02  0.95607383385E+02  0.00000000000E+00 0. -1.
</event>
<event>
 7    1  0.6508013E-006  0.1772112E+03  0.7818608E-02  0.1354037E+00
          2   -1    0    0  502    0  0.00000000000E+00  0.00000000000E+00  0.70036211233E+03  0.70036211233E+03  0.00000000000E+00 0. -1.
          1   -1    0    0  501    0 -0.00000000000E+00 -0.00000000000E+00 -0.14304259610E+04  0.14304259610E+04  0.00000000000E+00 0. -1.
         25    2    1    2    0    0 -0.13046424072E+03 -0.77023500848E+02 -0.76819171387E+01  0.19656389749E+03  0.12499926462E+03 0.  0.
          2    1    1    2  501    0 -0.25363280461E+02 -0.14267480716E+02 -0.13146811535E+04  0.13150031910E+04  0.00000000000E+00 0. -1.
          1    1    1    2  502    0  0.15582752118E+03  0.91290981565E+02  0.59229922199E+03  0.61922098482E+03  0.00000000000E+00 0. -1.
         22    1    3    3    0    0  0.23535948367E+02 -0.63109191307E+00  0.54153082325E+01  0.24159153664E+02  0.00000000000E+00 0. -1.
         22    1    3    3    0    0 -0.15400018908E+03 -0.76392408935E+02 -0.13097225371E+02  0.17240474382E+03  0.00000000000E+00 0. -1.
</event>
<event>
 7    1  0.6508013E-006  0.7019952E+02  0.7818608E-02  0.1467758E+00
          2   -1    0    0  502    0  0.00000000000E+00  0.00000000000E+00  0.14307323412E+04  0.14307323412E+04  0.00000000000E+00 0. -1.
          1   -1    0    0  501    0 -0.00000000000E+00 -0.00000000000E+00 -0.25005567143E+03  0.25005567143E+03  0.00000000000E+00 0. -1.
         25    2    1    2    0    0 -0.64824874081E+02  0.14775463947E+02 -0.59142280227E+02  0.15343817454E+03  0.12499954185E+03 0.  0.
          2    1    1    2  501    0 -0.37908403484E+01 -0.29998628627E+02 -0.14127198690E+03  0.14447166667E+03  0.00000000000E+00 0. -1.
          1    1    1    2  502    0  0.68615714429E+02  0.15223164680E+02  0.13810909369E+04  0.13828781714E+04  0.00000000000E+00 0. -1.
         22    1    3    3    0    0  0.91391167152E+01  0.48035794727E+02 -0.52995338170E+02  0.72107329011E+02  0.00000000000E+00 0.  1.
         22    1    3    3    0    0 -0.73963990796E+02 -0.33260330780E+02 -0.61469420577E+01  0.81330845530E+02  0.00000000000E+00 0.  1.
</event>
<event>
 7    1  0.6508013E-006  0.5109278E+02  0.7818608E-02  0.1441942E+00
          2   -1    0    0  502    0  0.00000000000E+00  0.00000000000E+00  0.27081916184E+03  0.27081916184E+03  0.00000000000E+00 0. -1.
          1   -1    0    0  501    0 -0.00000000000E+00 -0.00000000000E+00 -0.91680691235E+03  0.91680691235E+03  0.00000000000E+00 0. -1.
         25    2    1    2    0    0 -0.30599582388E+02  0.25495151645E+02 -0.38254133526E+03  0.40441500350E+03  0.12500913838E+03 0.  0.
          2    1    1    2  501    0  0.44058966514E+02  0.24023788137E+02 -0.51957484155E+03  0.52199267322E+03  0.00000000000E+00 0. -1.
          1    1    1    2  502    0 -0.13459384126E+02 -0.49518939781E+02  0.25612842630E+03  0.26121839747E+03  0.00000000000E+00 0. -1.
         22    1    3    3    0    0 -0.60822837453E+02  0.59689558559E+02 -0.23484904312E+03  0.24983261199E+03  0.00000000000E+00 0.  1.
         22    1    3    3    0    0  0.30223255065E+02 -0.34194406915E+02 -0.14769229214E+03  0.15458239152E+03  0.00000000000E+00 0.  1.
</event>
<event>
 7    1  0.6508013E-006  0.5310372E+02  0.7818608E-02  0.1513330E+00
          2   -1    0    0  502    0  0.00000000000E+00  0.00000000000E+00  0.27706697401E+03  0.27706697401E+03  0.00000000000E+00 0. -1.
          1   -1    0    0  501    0 -0.00000000000E+00 -0.00000000000E+00 -0.62966930480E+03  0.62966930480E+03  0.00000000000E+00 0. -1.
         25    2    1    2    0    0  0.11513762809E+01 -0.39998348664E+02  0.46106031813E+01  0.13133230648E+03  0.12500289397E+03 0.  0.
          2    1    1    2  501    0  0.27338588350E+02  0.45942741439E+02 -0.56402556909E+03  0.56655359542E+03  0.00000000000E+00 0. -1.
          1    1    1    2  502    0 -0.28489964631E+02 -0.59443927752E+01  0.20681263511E+03  0.20885037690E+03  0.00000000000E+00 0. -1.
         22    1    3    3    0    0  0.39389650351E+02 -0.54851234283E+02  0.38842908538E+02  0.77903619947E+02  0.00000000000E+00 0. -1.
         22    1    3    3    0    0 -0.38238274070E+02  0.14852885620E+02 -0.34232305357E+02  0.53428686537E+02  0.00000000000E+00 0. -1.
</event>
<event>
 7    1  0.6508013E-006  0.1239149E+03  0.7818608E-02  0.1368082E+00
          2   -1    0    0  502    0  0.00000000000E+00  0.00000000000E+00  0.62527268533E+03  0.62527268533E+03  0.00000000000E+00 0. -1.
          1   -1    0    0  501    0 -0.00000000000E+00 -0.00000000000E+00 -0.16575033794E+03  0.16575033794E+03  0.00000000000E+00 0. -1.
         25    2    1    2    0    0  0.15682266985E+03  0.86447953520E+01  0.24257609779E+03  0.31485765118E+03  0.12499638003E+03 0.  0.
          2    1    1    2  501    0 -0.12055866266E+03 -0.13470667010E+01 -0.10026187930E+03  0.15680768531E+03  0.00000000000E+00 0. -1.
          1    1    1    2  502    0 -0.36264007197E+02 -0.72977286510E+01  0.31720812891E+03  0.31935768678E+03  0.00000000000E+00 0. -1.
         22    1    3    3    0    0  0.22693795511E+02 -0.28532972229E+02  0.15019070793E+01  0.36488280088E+02  0.00000000000E+00 0.  1.
         22    1    3    3    0    0  0.13412887434E+03  0.37177767581E+02  0.24107419071E+03  0.27836937109E+03  0.00000000000E+00 0.  1.
</event>
<event>
 7    1  0.6508013E-006  0.1298961E+03  0.7818608E-02  0.1281352E+00
          2   -1    0    0  502    0  0.00000000000E+00  0.00000000000E+00  0.15743263889E+03  0.15743263889E+03  0.00000000000E+00 0. -1.
          1   -1    0    0  501    0 -0.00000000000E+00 -0.00000000000E+00 -0.47950949757E+03  0.47950949757E+03  0.00000000000E+00 0. -1.
         25    2    1    2    0    0  0.73428026453E+02 -0.49175569498E+02 -0.84380125345E+02  0.17479357350E+03  0.12499150403E+03 0.  0.
          2    1    1    2  501    0  0.71364415177E+01 -0.75881251863E+02 -0.29352347764E+03  0.30325719300E+03  0.00000000000E+00 0. -1.
          1    1    1    2  502    0 -0.80564467970E+02  0.12505682136E+03  0.55826744303E+02  0.15889136996E+03  0.00000000000E+00 0. -1.
         22    1    3    3    0    0  0.37406470418E+02 -0.88320600725E+02 -0.72637809626E+02  0.12031634938E+03  0.00000000000E+00 0. -1.
         22    1    3    3    0    0  0.36021556035E+02  0.39145031227E+02 -0.11742315718E+02  0.54477224115E+02  0.00000000000E+00 0. -1.
</event>
<event>
 7    1  0.6508013E-006  0.8606942E+02  0.7818608E-02  0.1384606E+00
          2   -1    0    0  502    0  0.00000000000E+00  0.00000000000E+00  0.39377860951E+04  0.39377860951E+04  0.00000000000E+00 0. -1.
          1   -1    0    0  501    0 -0.00000000000E+00 -0.00000000000E+00 -0.11506810914E+03  0.11506810914E+03  0.00000000000E+00 0. -1.
         25    2    1    2    0    0 -0.12807153995E+03  0.29334987763E+02  0.66008429333E+03  0.68454391363E+03  0.12500493807E+03 0.  0.
          2    1    1    2  501    0  0.82605983224E+02 -0.19545356238E+02 -0.85126174550E+02  0.12021744885E+03  0.00000000000E+00 0. -1.
          1    1    1    2  502    0  0.45465556726E+02 -0.97896315246E+01  0.32477598672E+04  0.32480928417E+04  0.00000000000E+00 0. -1.
         22    1    3    3    0    0 -0.12995824764E+03  0.50337955914E+02  0.64141005793E+03  0.65637635419E+03  0.00000000000E+00 0. -1.
         22    1    3    3    0    0  0.18867076851E+01 -0.21002968151E+02  0.18674235400E+02  0.28167559440E+02  0.00000000000E+00 0. -1.
</event>
<event>
 7    1  0.6508013E-006  0.5364118E+02  0.7818608E-02  0.1509143E+00
          2   -1    0    0  502    0  0.00000000000E+00  0.00000000000E+00  0.60874057801E+03  0.60874057801E+03  0.00000000000E+00 0. -1.
          1   -1    0    0  501    0 -0.00000000000E+00 -0.00000000000E+00 -0.20842725045E+03  0.20842725045E+03  0.00000000000E+00 0. -1.
         25    2    1    2    0    0  0.18164138663E+02 -0.49927987511E+02  0.13259595158E+03  0.18981382775E+03  0.12499945185E+03 0.  0.
          2    1    1    2  501    0  0.24514029122E+02  0.16660600862E+02 -0.17694545633E+03  0.17941072365E+03  0.00000000000E+00 0. -1.
          1    1    1    2  502    0 -0.42678167785E+02  0.33267386649E+02  0.44466283231E+03  0.44794327706E+03  0.00000000000E+00 0. -1.
         22    1    3    3    0    0  0.11791905781E+02 -0.65284213753E+02  0.11193614298E+02  0.67278336843E+02  0.00000000000E+00 0.  1.
         22    1    3    3    0    0  0.63722328821E+01  0.15356226242E+02  0.12140233728E+03  0.12253549091E+03  0.00000000000E+00 0.  1.
</event>
<event>
 7    1  0.6508013E-006  0.9875802E+02  0.7818608E-02  0.1422771E+00
          2   -1    0    0  502    0  0.00000000000E+00  0.00000000000E+00  0.40460970811E+03  0.40460970811E+03  0.00000000000E+00 0. -1.
          1   -1    0    0  501    0 -0.00000000000E+00 -0.00000000000E+00 -0.78237786649E+03  0.78237786649E+03  0.00000000000E+00 0. -1.
         25    2    1    2    0    0 -0.27285610067E+02 -0.77948511184E+02 -0.98240966736E+02  0.17915818545E+03  0.12500357177E+03 0.  0.
          2    1    1    2  501    0 -0.29765436472E+02 -0.38134574105E+01 -0.63649416967E+03  0.63720118620E+03  0.00000000000E+00 0. -1.
          1    1    1    2  502    0  0.57051046539E+02  0.81761968594E+02  0.35696697804E+03  0.37062820296E+03  0.00000000000E+00 0. -1.
         22    1    3    3    0    0 -0.13295433744E+02  0.17793656806E+02 -0.76940319772E+02  0.80082429955E+02  0.00000000000E+00 0.  1.
         22    1    3    3    0    0 -0.13990176323E+02 -0.95742167990E+02 -0.21300646964E+02  0.99075755490E+02  0.00000000000E+00 0.  1.
</event>
<event>
 7    1  0.6508013E-006  0.8858044E+02  0.7818608E-02  0.1375694E+00
          2   -1    0    0  502    0  0.00000000000E+00  0.00000000000E+00  0.10700327032E+03  0.10700327032E+03  0.00000000000E+00 0. -1.
          1   -1    0    0  501    0 -0.00000000000E+00 -0.00000000000E+00 -0.11780910657E+04  0.11780910657E+04  0.00000000000E+00 0. -1.
         25    2    1    2    0    0 -0.53412151838E+02 -0.53483873650E+02 -0.11254467089E+03  0.18440552166E+03  0.12500284305E+03 0.  0.
          2    1    1    2  501    0  0.19085629379E+02  0.87881354374E+02 -0.10190911790E+04  0.10230514282E+04  0.00000000000E+00 0. -1.
          1    1    1    2  502    0  0.34326522459E+02 -0.34397480724E+02  0.60548054491E+02  0.77637386142E+02  0.00000000000E+00 0. -1.
         22    1    3    3    0    0 -0.16663820254E+02 -0.53769148909E+02 -0.13150968244E+03  0.14305104283E+03  0.00000000000E+00 0. -1.
         22    1    3    3    0    0 -0.36748331584E+02  0.28527525949E+00  0.18965011553E+02  0.41354478831E+02  0.00000000000E+00 0. -1.
</event>
<event>
 7    1  0.6508013E-006  0.7237790E+02  0.7818608E-02  0.1497592E+00
          2   -1    0    0  502    0  0.00000000000E+00  0.00000000000E+00  0.17675180230E+04  0.17675180230E+04  0.00000000000E+00 0. -1.
          1   -1    0    0  501    0 -0.00000000000E+00 -0.00000000000E+00 -0.23735023535E+03  0.23735023535E+03  0.00000000000E+00 0. -1.
         25    2    1    2    0    0 -0.16363990520E+02  0.58094358273E+02  0.36509440744E+03  0.39059097761E+03  0.12499860318E+03 0.  0.
          2    1    1    2  501    0  0.18135124478E+02  0.15370768193E+02 -0.22299822760E+03  0.22426179516E+03  0.00000000000E+00 0. -1.
          1    1    1    2  502    0 -0.17711339584E+01 -0.73465126466E+02  0.13880716078E+04  0.13900154856E+04  0.00000000000E+00 0. -1.
         22    1    3    3    0    0 -0.42211965911E+02  0.59972510879E+02  0.35545239283E+03  0.36293932785E+03  0.00000000000E+00 0.  1.
         22    1    3    3    0    0  0.25847975391E+02 -0.18781526060E+01  0.96420146090E+01  0.27651649766E+02  0.00000000000E+00 0.  1.
</event>
<event>
 7    1  0.6508013E-006  0.1407159E+03  0.7818608E-02  0.1249559E+00
          2   -1    0    0  502    0  0.00000000000E+00  0.00000000000E+00  0.25740225601E+04  0.25740225601E+04  0.00000000000E+00 0. -1.
          1   -1    0    0  501    0 -0.00000000000E+00 -0.00000000000E+00 -0.28209496629E+04  0.28209496629E+04  0.00000000000E+00 0. -1.
         25    2    1    2    0    0  0.19338895131E+03 -0.12654873725E+03 -0.12432897447E+03  0.29068258697E+03  0.12499921234E+03 0.  0.
          2    1    1    2  501    0 -0.12584339015E+03  0.58472956366E+02 -0.26106775162E+04  0.26143627787E+04  0.00000000000E+00 0. -1.
          1    1    1    2  502    0 -0.67545561158E+02  0.68075780888E+02  0.24880793878E+04  0.24899268573E+04  0.00000000000E+00 0. -1.
         22    1    3    3    0    0 -0.14998396232E+02 -0.78117328418E+01 -0.26971825607E+02  0.31834799138E+02  0.00000000000E+00 0. -1.
         22    1    3    3    0    0  0.20838734754E+03 -0.11873700441E+03 -0.97357148867E+02  0.25884778783E+03  0.00000000000E+00 0. -1.
</event>
<event>
 7    1  0.6508013E-006  0.1470478E+03  0.7818608E-02  0.1234619E+00
          2   -1    0    0  502    0  0.00000000000E+00  0.00000000000E+00  0.66806687988E+03  0.66806687988E+03  0.00000000000E+00 0. -1.
          1   -1    0    0  501    0 -0.00000000000E+00 -0.00000000000E+00 -0.21222349310E+03  0.21222349310E+03  0.00000000000E+00 0. -1.
         25    2    1    2    0    0 -0.11121145959E+03 -0.30291688399E+02  0.81664170938E-02  0.17002257037E+03  0.12498839642E+03 0.  0.
          2    1    1    2  501    0  0.31099075324E+02 -0.10211813098E+03 -0.92043404927E+02  0.14095124530E+03  0.00000000000E+00 0. -1.
          1    1    1    2  502    0  0.80112384262E+02  0.13240981938E+03  0.54787862529E+03  0.56931655731E+03  0.00000000000E+00 0. -1.
         22    1    3    3    0    0 -0.89446055174E+02  0.36775203158E+02 -0.15179907502E+02  0.97895055776E+02  0.00000000000E+00 0.  1.
         22    1    3    3    0    0 -0.21765404412E+02 -0.67066891557E+02  0.15188073919E+02  0.72127514596E+02  0.00000000000E+00 0.  1.
</event>
<event>
 7    1  0.6508013E-006  0.1557091E+03  0.7818608E-02  0.1236756E+00
          2   -1    0    0  502    0  0.00000000000E+00  0.00000000000E+00  0.81119998656E+03  0.81119998656E+03  0.00000000000E+00 0. -1.
          1   -1    0    0  501    0 -0.00000000000E+00 -0.00000000000E+00 -0.17896124680E+04  0.17896124680E+04  0.00000000000E+00 0. -1.
         25    2    1    2    0    0 -0.60008131144E+02 -0.21092852442E+03 -0.18899051922E+03  0.31533135924E+03  0.12499852620E+03 0.  0.
          2    1    1    2  501    0  0.95862095961E+02  0.11904473337E+03 -0.15303768652E+04  0.15379904224E+04  0.00000000000E+00 0. -1.
          1    1    1    2  502    0 -0.35853964817E+02  0.91883791045E+02  0.74095490295E+03  0.74749067289E+03  0.00000000000E+00 0. -1.
         22    1    3    3    0    0 -0.23139395657E+02 -0.33917700533E+02  0.14103308763E+02  0.43413654060E+02  0.00000000000E+00 0. -1.
         22    1    3    3    0    0 -0.36868735487E+02 -0.17701082389E+03 -0.20309382798E+03  0.27191770518E+03  0.00000000000E+00 0. -1.
</event>
<event>
 7    1  0.6508013E-006  0.1484820E+03  0.7818608E-02  0.1323920E+00
          2   -1    0    0  502    0  0.00000000000E+00  0.00000000000E+00  0.22670846712E+04  0.22670846712E+04  0.00000000000E+00 0. -1.
          1   -1    0    0  501    0 -0.00000000000E+00 -0.00000000000E+00 -0.11367154450E+04  0.11367154450E+04  0.00000000000E+00 0. -1.
         25    2    1    2    0    0  0.97155473351E+02 -0.44128176556E+02  0.53507307481E+03  0.55973763868E+03  0.12496618262E+03 0.  0.
          2    1    1    2  501    0 -0.12662796704E+03  0.78271338136E+02 -0.11191578842E+04  0.11290152409E+04  0.00000000000E+00 0. -1.
          1    1    1    2  502    0  0.29472493687E+02 -0.34143161580E+02  0.17144540356E+04  0.17150472366E+04  0.00000000000E+00 0. -1.
         22    1    3    3    0    0 -0.63532742411E+01 -0.52391324847E+01 -0.42008328441E+01  0.92444361299E+01  0.00000000000E+00 0. -1.
         22    1    3    3    0    0  0.10350874759E+03 -0.38889044072E+02  0.53927390765E+03  0.55049320255E+03  0.00000000000E+00 0. -1.
</event>
<event>
 7    1  0.6508013E-006  0.1602675E+03  0.7818608E-02  0.1353900E+00
          2   -1    0    0  502    0  0.00000000000E+00  0.00000000000E+00  0.37875054827E+03  0.37875054827E+03  0.00000000000E+00 0. -1.
          1   -1    0    0  501    0 -0.00000000000E+00 -0.00000000000E+00 -0.72400807438E+03  0.72400807438E+03  0.00000000000E+00 0. -1.
         25    2    1    2    0    0 -0.56086042092E+02  0.13107531735E+03 -0.32869806727E+03  0.37946578576E+03  0.12500192079E+03 0.  0.
          2    1    1    2  501    0 -0.31956334943E+02  0.40718383505E+01 -0.35074350630E+03  0.35221980980E+03  0.00000000000E+00 0. -1.
          1    1    1    2  502    0  0.88042377035E+02 -0.13514715570E+03  0.33418404746E+03  0.37107302708E+03  0.00000000000E+00 0. -1.
         22    1    3    3    0    0 -0.94369675105E+02  0.11305201243E+03 -0.25236404679E+03  0.29218830436E+03  0.00000000000E+00 0. -1.
         22    1    3    3    0    0  0.38283633013E+02  0.18023304924E+02 -0.76334020484E+02  0.87277481405E+02  0.00000000000E+00 0. -1.
</event>
<event>
 7    1  0.6508013E-006  0.8645703E+02  0.7818608E-02  0.1331762E+00
          2   -1    0    0  502    0  0.00000000000E+00  0.00000000000E+00  0.71655385593E+03  0.71655385593E+03  0.00000000000E+00 0. -1.
          1   -1    0    0  501    0 -0.00000000000E+00 -0.00000000000E+00 -0.56318427702E+03  0.56318427702E+03  0.00000000000E+00 0. -1.
         25    2    1    2    0    0  0.64732156931E+02 -0.94375199087E+02  0.15482643817E+03  0.22954909886E+03  0.12499852994E+03 0.  0.
          2    1    1    2  501    0  0.17750875239E+02  0.70068918665E+02 -0.51977979771E+03  0.52478165464E+03  0.00000000000E+00 0. -1.
          1    1    1    2  502    0 -0.82483032170E+02  0.24306280422E+02  0.51832293845E+03  0.52540737946E+03  0.00000000000E+00 0. -1.
         22    1    3    3    0    0  0.55896607024E+01 -0.10340841153E+03  0.67220451958E+02  0.12346308372E+03  0.00000000000E+00 0.  1.
         22    1    3    3    0    0  0.59142496229E+02  0.90332124389E+01  0.87605986214E+02  0.10608601514E+03  0.00000000000E+00 0.  1.
</event>
<event>
 7    1  0.6508013E-006  0.8080285E+02  0.7818608E-02  0.1331356E+00
          2   -1    0    0  502    0  0.00000000000E+00  0.00000000000E+00  0.29640547054E+03  0.29640547054E+03  0.00000000000E+00 0. -1.
          1   -1    0    0  501    0 -0.00000000000E+00 -0.00000000000E+00 -0.23072308689E+03  0.23072308689E+03  0.00000000000E+00 0. -1.
         25    2    1    2    0    0  0.10998278917E+03 -0.99854660710E+02  0.16065854012E+03  0.25199978392E+03  0.12500222959E+03 0.  0.
          2    1    1    2  501    0 -0.39504230393E+02  0.67342315176E+02 -0.15728498284E+03  0.17559651893E+03  0.00000000000E+00 0. -1.
          1    1    1    2  502    0 -0.70478558778E+02  0.32512345534E+02  0.62308826372E+02  0.99532254588E+02  0.00000000000E+00 0. -1.
         22    1    3    3    0    0 -0.10436365706E+02 -0.52397152884E+02  0.11753781322E+02  0.54704028506E+02  0.00000000000E+00 0. -1.
         22    1    3    3    0    0  0.12041915488E+03 -0.47457507827E+02  0.14890475880E+03  0.19729575541E+03  0.00000000000E+00 0. -1.
</event>
<event>
 7    1  0.6508013E-006  0.6087475E+02  0.7818608E-02  0.1440880E+00
          2   -1    0    0  502    0  0.00000000000E+00  0.00000000000E+00  0.13114810305E+04  0.13114810305E+04  0.00000000000E+00 0. -1.
          1   -1    0    0  501    0 -0.00000000000E+00 -0.00000000000E+00 -0.49701799140E+02  0.49701799140E+02  0.00000000000E+00 0. -1.
         25    2    1    2    0    0 -0.92960931856E+01 -0.97818759528E+02  0.40497138332E+03  0.43506112702E+03  0.12498574268E+03 0.  0.
          2    1    1    2  501    0 -0.76428374601E+01  0.41760314521E+02 -0.20302337143E+02  0.47058705112E+02  0.00000000000E+00 0. -1.
          1    1    1    2  502    0  0.16938930646E+02  0.56058445007E+02  0.87711018518E+03  0.87906299750E+03  0.00000000000E+00 0. -1.
         22    1    3    3    0    0  0.20591600413E+02 -0.19793366150E+02  0.29780696330E+03  0.29917349271E+03  0.00000000000E+00 0.  1.
         22    1    3    3    0    0 -0.29887693598E+02 -0.78025393378E+02  0.10716442001E+03  0.13588763431E+03  0.00000000000E+00 0.  1.
</event>
<event>
 7    1  0.6508013E-006  0.8908571E+02  0.7818608E-02  0.1325041E+00
          2   -1    0    0  502    0  0.00000000000E+00  0.00000000000E+00  0.11659225764E+03  0.11659225764E+03  0.00000000000E+00 0. -1.
          1   -1    0    0  501    0 -0.00000000000E+00 -0.00000000000E+00 -0.31695995799E+03  0.31695995799E+03  0.00000000000E+00 0. -1.
         25    2    1    2    0    0 -0.42905248871E+02  0.24121447518E+02  0.89358908946E+00  0.13434148123E+03  0.12499652182E+03 0.  0.
          2    1    1    2  501    0 -0.85469267110E+02 -0.25125045768E+02 -0.11075089993E+03  0.14213382912E+03  0.00000000000E+00 0. -1.
          1    1    1    2  502    0  0.12837451598E+03  0.10035982499E+01 -0.90510389510E+02  0.15707690528E+03  0.00000000000E+00 0. -1.
         22    1    3    3    0    0  0.11191823049E+02  0.60336399086E+02  0.23083377101E+02  0.65563558904E+02  0.00000000000E+00 0.  1.
         22    1    3    3    0    0 -0.54097071920E+02 -0.36214951568E+02 -0.22189788012E+02  0.68777922325E+02  0.00000000000E+00 0.  1.
</event>
<event>
 7    1  0.6508013E-006  0.9521667E+02  0.7818608E-02  0.1473633E+00
          2   -1    0    0  502    0  0.00000000000E+00  0.00000000000E+00  0.56919440285E+03  0.56919440285E+03  0.00000000000E+00 0. -1.
          1   -1    0    0  501    0 -0.00000000000E+00 -0.00000000000E+00 -0.82232708037E+03  0.82232708037E+03  0.00000000000E+00 0. -1.
         25    2    1    2    0    0  0.37823058866E+02 -0.71233614363E+02  0.93860567608E+02  0.17589671451E+03  0.12500014570E+03 0.  0.
          2    1    1    2  501    0 -0.29459093445E+02  0.90904198440E+02 -0.77812141069E+03  0.78396705368E+03  0.00000000000E+00 0. -1.
          1    1    1    2  502    0 -0.83639654203E+01 -0.19670584078E+02  0.43112816557E+03  0.43165771503E+03  0.00000000000E+00 0. -1.
         22    1    3    3    0    0 -0.15458177604E+02 -0.79431069730E+02  0.18111112754E+02  0.82923232562E+02  0.00000000000E+00 0. -1.
         22    1    3    3    0    0  0.53281236469E+02  0.81974553674E+01  0.75749454854E+02  0.92973481945E+02  0.00000000000E+00 0. -1.
</event>
<event>
 7    1  0.6508013E-006  0.8022906E+02  0.7818608E-02  0.1335555E+00
          2   -1    0    0  502    0  0.00000000000E+00  0.00000000000E+00  0.37278345936E+03  0.37278345936E+03  0.00000000000E+00 0. -1.
          1   -1    0    0  501    0 -0.00000000000E+00 -0.00000000000E+00 -0.16124205309E+03  0.16124205309E+03  0.00000000000E+00 0. -1.
         25    2    1    2    0    0  0.28712111052E+02  0.42848373026E+02  0.12005517894E+03  0.18082998171E+03  0.12500347157E+03 0.  0.
          2    1    1    2  501    0  0.67443800071E+02 -0.33603249043E+02 -0.10792024150E+03  0.13162303385E+03  0.00000000000E+00 0. -1.
          1    1    1    2  502    0 -0.96155911123E+02 -0.92451239830E+01  0.19940646884E+03  0.22157249688E+03  0.00000000000E+00 0. -1.
         22    1    3    3    0    0  0.38845921319E+02 -0.11736453210E+02 -0.79070342093E+01  0.41343332316E+02  0.00000000000E+00 0. -1.
         22    1    3    3    0    0 -0.10133810266E+02  0.54584826235E+02  0.12796221315E+03  0.13948664940E+03  0.00000000000E+00 0. -1.
</event>
<event>
 7    1  0.6508013E-006  0.8818238E+02  0.7818608E-02  0.1329348E+00
          2   -1    0    0  502    0  0.00000000000E+00  0.00000000000E+00  0.42572096311E+02  0.42572096311E+02  0.00000000000E+00 0. -1.
          1   -1    0    0  501    0 -0.00000000000E+00 -0.00000000000E+00 -0.90564862733E+03  0.90564862733E+03  0.00000000000E+00 0. -1.
         25    2    1    2    0    0 -0.92898453197E+02  0.61143821218E+02 -0.46299412919E+03  0.49229788294E+03  0.12499980961E+03 0.  0.
          2    1    1    2  501    0  0.24017731220E+02 -0.83402178994E+02 -0.36556481066E+03  0.37572650381E+03  0.00000000000E+00 0. -1.
          1    1    1    2  502    0  0.68880721977E+02  0.22258357776E+02 -0.34517591175E+02  0.80196336896E+02  0.00000000000E+00 0. -1.
         22    1    3    3    0    0  0.28066277846E+01 -0.27254802003E+02 -0.32432354848E+02  0.42456554650E+02  0.00000000000E+00 0.  1.
         22    1    3    3    0    0 -0.95705080982E+02  0.88398623221E+02 -0.43056177434E+03  0.44984132829E+03  0.00000000000E+00 0.  1.
</event>
<event>
 7    1  0.6508013E-006  0.2739517E+03  0.7818608E-02  0.1232536E+00
          2   -1    0    0  502    0  0.00000000000E+00  0.00000000000E+00  0.40269666035E+03  0.40269666035E+03  0.00000000000E+00 0. -1.
          1   -1    0    0  501    0 -0.00000000000E+00 -0.00000000000E+00 -0.52019269467E+03  0.52019269467E+03  0.00000000000E+00 0. -1.
         25    2    1    2    0    0 -0.28250620356E+03 -0.13143024155E+02  0.39446851087E+02  0.31171068076E+03  0.12500000121E+03 0.  0.
          2    1    1    2  501    0  0.26924848775E+03 -0.43873224363E+02 -0.33019263097E+03  0.42830687774E+03  0.00000000000E+00 0. -1.
          1    1    1    2  502    0  0.13257715817E+02  0.57016248518E+02  0.17324974557E+03  0.18287179652E+03  0.00000000000E+00 0. -1.
         22    1    3    3    0    0 -0.52563665088E+02 -0.39893876607E+02 -0.26339854395E+02  0.71051025382E+02  0.00000000000E+00 0. -1.
         22    1    3    3    0    0 -0.22994253847E+03  0.26750852452E+02  0.65786705482E+02  0.24065965538E+03  0.00000000000E+00 0. -1.
</event>
<event>
 7    1  0.6508013E-006  0.3025560E+03  0.7818608E-02  0.1190193E+00
          2   -1    0    0  502    0  0.00000000000E+00  0.00000000000E+00  0.11793648986E+04  0.11793648986E+04  0.00000000000E+00 0. -1.
          1   -1    0    0  501    0 -0.00000000000E+00 -0.00000000000E+00 -0.79853844821E+03  0.79853844821E+03  0.00000000000E+00 0. -1.
         25    2    1    2    0    0 -0.24761923934E+03 -0.56428969952E+02 -0.18853359944E+03  0.34011276556E+03  0.12502903199E+03 0.  0.
          2    1    1    2  501    0  0.32593225656E+03  0.84596106553E+02 -0.47933939420E+03  0.58579398422E+03  0.00000000000E+00 0. -1.
          1    1    1    2  502    0 -0.78313017226E+02 -0.28167136601E+02  0.10486994440E+04  0.10519965970E+04  0.00000000000E+00 0. -1.
         22    1    3    3    0    0 -0.47761304541E+02 -0.11361104340E+01  0.14473490840E+02  0.49919083480E+02  0.00000000000E+00 0. -1.
         22    1    3    3    0    0 -0.19985793479E+03 -0.55292859518E+02 -0.20300709028E+03  0.29019368208E+03  0.00000000000E+00 0. -1.
</event>
<event>
 7    1  0.6508013E-006  0.1152112E+03  0.7818608E-02  0.1307816E+00
          2   -1    0    0  502    0  0.00000000000E+00  0.00000000000E+00  0.25622000013E+03  0.25622000013E+03  0.00000000000E+00 0. -1.
          1   -1    0    0  501    0 -0.00000000000E+00 -0.00000000000E+00 -0.37388431871E+03  0.37388431871E+03  0.00000000000E+00 0. -1.
         25    2    1    2    0    0 -0.57322219522E+02  0.84067404570E+02  0.69389226081E+02  0.17547932092E+03  0.12499984806E+03 0.  0.
          2    1    1    2  501    0  0.11006827275E+03 -0.42451441669E+02 -0.30047147166E+03  0.32280064257E+03  0.00000000000E+00 0. -1.
          1    1    1    2  502    0 -0.52746053232E+02 -0.41615962901E+02  0.11341792699E+03  0.13182435535E+03  0.00000000000E+00 0. -1.
         22    1    3    3    0    0 -0.84066182675E+02  0.98345518816E+02  0.46460266123E+02  0.13746825259E+03  0.00000000000E+00 0.  1.
         22    1    3    3    0    0  0.26743963153E+02 -0.14278114246E+02  0.22928959957E+02  0.38011068339E+02  0.00000000000E+00 0.  1.
</event>
<event>
 7    1  0.6508013E-006  0.1647028E+03  0.7818608E-02  0.1324075E+00
          2   -1    0    0  502    0  0.00000000000E+00  0.00000000000E+00  0.20229108601E+03  0.20229108601E+03  0.00000000000E+00 0. -1.
          1   -1    0    0  501    0 -0.00000000000E+00 -0.00000000000E+00 -0.17087307761E+04  0.17087307761E+04  0.00000000000E+00 0. -1.
         25    2    1    2    0    0  0.10548110882E+03 -0.14190977466E+03 -0.33302447953E+03  0.39724583027E+03  0.12503718342E+03 0.  0.
          2    1    1    2  501    0 -0.12439908377E+03  0.10597967127E+03 -0.13361218704E+04  0.13460789261E+04  0.00000000000E+00 0. -1.
          1    1    1    2  502    0  0.18917974949E+02  0.35930103391E+02  0.16270665985E+03  0.16769710572E+03  0.00000000000E+00 0. -1.
         22    1    3    3    0    0  0.38352665206E+02 -0.13169972246E+02 -0.80914584046E+01  0.41350293789E+02  0.00000000000E+00 0.  1.
         22    1    3    3    0    0  0.67128443611E+02 -0.12873980242E+03 -0.32493302113E+03  0.35589553648E+03  0.00000000000E+00 0.  1.
</event>
<event>
 7    1  0.6508013E-006  0.6411678E+02  0.7818608E-02  0.1423563E+00
          2   -1    0    0  502    0  0.00000000000E+00  0.00000000000E+00  0.13089679571E+04  0.13089679571E+04  0.00000000000E+00 0. -1.
          1   -1    0    0  501    0 -0.00000000000E+00 -0.00000000000E+00 -0.21575840387E+02  0.21575840387E+02  0.00000000000E+00 0. -1.
         25    2    1    2    0    0  0.13151803639E+02  0.29370022966E+02  0.38735799576E+03  0.40830507889E+03  0.12502500702E+03 0.  0.
          2    1    1    2  501    0 -0.50309474875E+02 -0.56388934052E+02  0.12658495773E+03  0.14742627537E+03  0.00000000000E+00 0. -1.
          1    1    1    2  502    0  0.37157671236E+02  0.27018911087E+02  0.77344916320E+03  0.77481244320E+03  0.00000000000E+00 0. -1.
         22    1    3    3    0    0 -0.12394499553E+02  0.65717322633E+02  0.12085385543E+03  0.13812329451E+03  0.00000000000E+00 0.  1.
         22    1    3    3    0    0  0.25546303191E+02 -0.36347299667E+02  0.26650414032E+03  0.27018178437E+03  0.00000000000E+00 0.  1.
</event>
<event>
 7    1  0.6508013E-006  0.6618251E+02  0.7818608E-02  0.1496295E+00
          2   -1    0    0  502    0  0.00000000000E+00  0.00000000000E+00  0.20985059502E+04  0.20985059502E+04  0.00000000000E+00 0. -1.
          1   -1    0    0  501    0 -0.00000000000E+00 -0.00000000000E+00 -0.53794394906E+02  0.53794394906E+02  0.00000000000E+00 0. -1.
         25    2    1    2    0    0  0.22587426789E+02 -0.82354386851E+02  0.21495622151E+03  0.26291528739E+03  0.12500333713E+03 0.  0.
          2    1    1    2  501    0 -0.28648851359E+02  0.56832574956E+02  0.43524958474E+01  0.63793749540E+02  0.00000000000E+00 0. -1.
          1    1    1    2  502    0  0.60614245698E+01  0.25521811896E+02  0.18254028379E+04  0.18255913082E+04  0.00000000000E+00 0. -1.
         22    1    3    3    0    0  0.55000755550E+02 -0.94208745041E+02  0.19391608740E+03  0.22249453860E+03  0.00000000000E+00 0.  1.
         22    1    3    3    0    0 -0.32413328761E+02  0.11854358189E+02  0.21040134111E+02  0.40420748791E+02  0.00000000000E+00 0.  1.
</event>
<event>
 7    1  0.6508013E-006  0.5813898E+02  0.7818608E-02  0.1520555E+00
          2   -1    0    0  502    0  0.00000000000E+00  0.00000000000E+00  0.12081040756E+03  0.12081040756E+03  0.00000000000E+00 0. -1.
          1   -1    0    0  501    0 -0.00000000000E+00 -0.00000000000E+00 -0.44383027748E+03  0.44383027748E+03  0.00000000000E+00 0. -1.
         25    2    1    2    0    0 -0.41902074532E+01  0.45930798774E+02 -0.17617619870E+03  0.22088171888E+03  0.12499393837E+03 0.  0.
          2    1    1    2  501    0  0.28290421457E+02 -0.53708103554E+02 -0.23982629685E+03  0.24738949249E+03  0.00000000000E+00 0. -1.
          1    1    1    2  502    0 -0.24100214004E+02  0.77773047796E+01  0.92982625636E+02  0.96369473667E+02  0.00000000000E+00 0. -1.
         22    1    3    3    0    0 -0.53142234897E+01  0.76010455877E+02 -0.17487378339E+03  0.19075290428E+03  0.00000000000E+00 0.  1.
         22    1    3    3    0    0  0.11240160366E+01 -0.30079657103E+02 -0.13024153164E+01  0.30128814599E+02  0.00000000000E+00 0.  1.
</event>
<event>
 7    1  0.6508013E-006  0.1423504E+03  0.7818608E-02  0.1318228E+00
          2   -1    0    0  502    0  0.00000000000E+00  0.00000000000E+00  0.14164519575E+04  0.14164519575E+04  0.00000000000E+00 0. -1.
          1   -1    0    0  501    0 -0.00000000000E+00 -0.00000000000E+00 -0.11751820045E+04  0.11751820045E+04  0.00000000000E+00 0. -1.
         25    2    1    2    0    0  0.16581139763E+02  0.17832783391E+03 -0.54675880610E+03  0.58876010304E+03  0.12497006178E+03 0.  0.
          2    1    1    2  501    0 -0.18483355256E+02 -0.12886756797E+03 -0.60000078476E+03  0.61396207229E+03  0.00000000000E+00 0. -1.
          1    1    1    2  502    0  0.19022154933E+01 -0.49460265946E+02  0.13880295439E+04  0.13889117867E+04  0.00000000000E+00 0. -1.
         22    1    3    3    0    0  0.47209807158E+02  0.12551758983E+02 -0.10114146583E+03  0.11232056203E+03  0.00000000000E+00 0.  1.
         22    1    3    3    0    0 -0.30628667395E+02  0.16577607493E+03 -0.44561734027E+03  0.47643954101E+03  0.00000000000E+00 0.  1.
</event>
<event>
 7    1  0.6508013E-006  0.1351390E+03  0.7818608E-02  0.1300637E+00
          2   -1    0    0  502    0  0.00000000000E+00  0.00000000000E+00  0.12018964204E+03  0.12018964204E+03  0.00000000000E+00 0. -1.
          1   -1    0    0  501    0 -0.00000000000E+00 -0.00000000000E+00 -0.95297771645E+03  0.95297771645E+03  0.00000000000E+00 0. -1.
         25    2    1    2    0    0  0.32535807146E+02 -0.17248637223E+03 -0.16139370139E+03  0.26922734841E+03  0.12500124374E+03 0.  0.
          2    1    1    2  501    0 -0.38180704633E+02  0.47792967319E+02 -0.67626299393E+03  0.67902398403E+03  0.00000000000E+00 0. -1.
          1    1    1    2  502    0  0.56448974871E+01  0.12469340491E+03  0.48686209122E+01  0.12491602605E+03  0.00000000000E+00 0. -1.
         22    1    3    3    0    0  0.75355179682E+02 -0.71817984488E+02 -0.60461230756E+02  0.12038183594E+03  0.00000000000E+00 0. -1.
         22    1    3    3    0    0 -0.42819372536E+02 -0.10066838774E+03 -0.10093247063E+03  0.14884551247E+03  0.00000000000E+00 0. -1.
</event>
<event>
 7    1  0.6508013E-006  0.2054167E+03  0.7818608E-02  0.1189830E+00
          2   -1    0    0  502    0  0.00000000000E+00  0.00000000000E+00  0.20878829350E+04  0.20878829350E+04  0.00000000000E+00 0. -1.
          1   -1    0    0  501    0 -0.00000000000E+00 -0.00000000000E+00 -0.11153983241E+04  0.11153983241E+04  0.00000000000E+00 0. -1.
         25    2    1    2    0    0  0.79217664638E+02  0.31350580258E+03  0.45350339096E+03  0.57083363891E+03  0.12499756424E+03 0.  0.
          2    1    1    2  501    0 -0.29100098476E+02 -0.20109997412E+03 -0.10445247584E+04  0.10641052515E+04  0.00000000000E+00 0. -1.
          1    1    1    2  502    0 -0.50117566163E+02 -0.11240582846E+03  0.15635059784E+04  0.15683423686E+04  0.00000000000E+00 0. -1.
         22    1    3    3    0    0  0.10976256033E+03  0.21241413854E+03  0.28548911620E+03  0.37238638720E+03  0.00000000000E+00 0.  1.
         22    1    3    3    0    0 -0.30544895696E+02  0.10109166403E+03  0.16801427476E+03  0.19844725171E+03  0.00000000000E+00 0.  1.
</event>
<event>
 7    1  0.6508013E-006  0.9362273E+02  0.7818608E-02  0.1349352E+00
          2   -1    0    0  502    0  0.00000000000E+00  0.00000000000E+00  0.17881321775E+04  0.17881321775E+04  0.00000000000E+00 0. -1.
          1   -1    0    0  501    0 -0.00000000000E+00 -0.00000000000E+00 -0.15984526809E+03  0.15984526809E+03  0.00000000000E+00 0. -1.
         25    2    1    2    0    0 -0.42164888384E+02  0.14041650560E+03  0.46695799523E+03  0.50514620082E+03  0.12501296748E+03 0.  0.
          2    1    1    2  501    0  0.14438096113E+02 -0.55474923134E+02 -0.13331031539E+03  0.14511225277E+03  0.00000000000E+00 0. -1.
          1    1    1    2  502    0  0.27726792271E+02 -0.84941582464E+02  0.12946392295E+04  0.12977189920E+04  0.00000000000E+00 0. -1.
         22    1    3    3    0    0 -0.33369828688E+02  0.16407371877E+03  0.40520506578E+03  0.43843457435E+03  0.00000000000E+00 0.  1.
         22    1    3    3    0    0 -0.87950596964E+01 -0.23657213169E+02  0.61752929454E+02  0.66711626469E+02  0.00000000000E+00 0.  1.
</event>
<event>
 7    1  0.9675821E-006  0.1140616E+03  0.7818608E-02  0.1327093E+00
          2   -1    0    0  502    0  0.00000000000E+00  0.00000000000E+00  0.16773191055E+04  0.16773191055E+04  0.00000000000E+00 0. -1.
          1   -1    0    0  501    0 -0.00000000000E+00 -0.00000000000E+00 -0.11115825369E+04  0.11115825369E+04  0.00000000000E+00 0. -1.
         25    2    1    2    0    0  0.26331155945E+02  0.63540727099E+02 -0.18834271808E+03  0.23628423798E+03  0.12500603142E+03 0.  0.
          2    1    1    2  501    0 -0.25672620413E+02  0.50989574938E+02 -0.89637645214E+03  0.89819249838E+03  0.00000000000E+00 0. -1.
          1    1    1    2  502    0 -0.65853553245E+00 -0.11453030204E+03  0.16504557389E+04  0.16544249061E+04  0.00000000000E+00 0. -1.
         22    1    3    3    0    0  0.67313430200E+02  0.48398403354E+02 -0.64746566756E+02  0.10519325662E+03  0.00000000000E+00 0. -1.
         22    1    3    3    0    0 -0.40982274255E+02  0.15142323745E+02 -0.12359615132E+03  0.13109098136E+03  0.00000000000E+00 0. -1.
</event>
<event>
 7    1  0.6508013E-006  0.3479099E+02  0.7818608E-02  0.1573221E+00
          2   -1    0    0  502    0  0.00000000000E+00  0.00000000000E+00  0.21746459303E+04  0.21746459303E+04  0.00000000000E+00 0. -1.
          1   -1    0    0  501    0 -0.00000000000E+00 -0.00000000000E+00 -0.19867160881E+02  0.19867160881E+02  0.00000000000E+00 0. -1.
         25    2    1    2    0    0 -0.69942462115E+01  0.48766083743E+01  0.56218876823E+03  0.57597717419E+03  0.12498317196E+03 0.  0.
          2    1    1    2  501    0  0.88549382420E+01 -0.34947293591E+02  0.12497781878E+02  0.38156491092E+02  0.00000000000E+00 0. -1.
          1    1    1    2  502    0 -0.18606920305E+01  0.30070685216E+02  0.15800922193E+04  0.15803794259E+04  0.00000000000E+00 0. -1.
         22    1    3    3    0    0 -0.28218588277E+02 -0.19513064596E+02  0.39622791743E+02  0.52411964662E+02  0.00000000000E+00 0.  1.
         22    1    3    3    0    0  0.21224342066E+02  0.24389672970E+02  0.52256597649E+03  0.52356520953E+03  0.00000000000E+00 0.  1.
</event>
<event>
 7    1  0.6508013E-006  0.1541963E+03  0.7818608E-02  0.1240717E+00
          2   -1    0    0  502    0  0.00000000000E+00  0.00000000000E+00  0.18960380018E+04  0.18960380018E+04  0.00000000000E+00 0. -1.
          1   -1    0    0  501    0 -0.00000000000E+00 -0.00000000000E+00 -0.37300105245E+03  0.37300105245E+03  0.00000000000E+00 0. -1.
         25    2    1    2    0    0 -0.76950520458E+02 -0.16194224650E+03  0.19640657178E+03  0.29384959534E+03  0.12500147776E+03 0.  0.
          2    1    1    2  501    0 -0.18308304100E+02  0.15314036178E+03 -0.30445997362E+03  0.34129611768E+03  0.00000000000E+00 0. -1.
          1    1    1    2  502    0  0.95258824557E+02  0.88018847126E+01  0.16310903512E+04  0.16338933412E+04  0.00000000000E+00 0. -1.
         22    1    3    3    0    0  0.28334819882E+02 -0.58932533037E+01  0.38373108205E+02  0.48063373639E+02  0.00000000000E+00 0.  1.
         22    1    3    3    0    0 -0.10528534034E+03 -0.15604899319E+03  0.15803346357E+03  0.24578622170E+03  0.00000000000E+00 0.  1.
</event>
<event>
 7    1  0.6508013E-006  0.8497047E+02  0.7818608E-02  0.1409539E+00
          2   -1    0    0  502    0  0.00000000000E+00  0.00000000000E+00  0.79816080381E+03  0.79816080381E+03  0.00000000000E+00 0. -1.
          1   -1    0    0  501    0 -0.00000000000E+00 -0.00000000000E+00 -0.28001832868E+03  0.28001832868E+03  0.00000000000E+00 0. -1.
         25    2    1    2    0    0 -0.35351488312E+02  0.34827764987E+02  0.69989744209E+02  0.15161633551E+03  0.12500499174E+03 0.  0.
          2    1    1    2  501    0  0.55126589707E+02 -0.68019669640E+02 -0.23062568653E+03  0.24668567781E+03  0.00000000000E+00 0. -1.
          1    1    1    2  502    0 -0.19775101395E+02  0.33191904652E+02  0.67877841745E+03  0.67987711916E+03  0.00000000000E+00 0. -1.
         22    1    3    3    0    0  0.25031776316E+02  0.37448491732E+02  0.78574059713E+02  0.90569653960E+02  0.00000000000E+00 0.  1.
         22    1    3    3    0    0 -0.60383264628E+02 -0.26207267450E+01 -0.85843155040E+01  0.61046681552E+02  0.00000000000E+00 0.  1.
</event>
<event>
 7    1  0.6508013E-006  0.3456230E+02  0.7818608E-02  0.1558105E+00
          2   -1    0    0  502    0  0.00000000000E+00  0.00000000000E+00  0.19437619547E+04  0.19437619547E+04  0.00000000000E+00 0. -1.
          1   -1    0    0  501    0 -0.00000000000E+00 -0.00000000000E+00 -0.13200770667E+03  0.13200770667E+03  0.00000000000E+00 0. -1.
         25    2    1    2    0    0  0.21382269047E+02 -0.21246061360E+02 -0.43044985060E+02  0.13559483040E+03  0.12499796294E+03 0.  0.
          2    1    1    2  501    0 -0.36673912932E+02 -0.83953214462E+01 -0.34222309295E+02  0.50858861229E+02  0.00000000000E+00 0. -1.
          1    1    1    2  502    0  0.15291643885E+02  0.29641382807E+02  0.18890215424E+04  0.18893159697E+04  0.00000000000E+00 0. -1.
         22    1    3    3    0    0 -0.26567643648E+02  0.41006576494E+02 -0.78217312572E+01  0.49482911036E+02  0.00000000000E+00 0.  1.
         22    1    3    3    0    0  0.47949912695E+02 -0.62252637855E+02 -0.35223253803E+02  0.86111919359E+02  0.00000000000E+00 0.  1.
</event>
<event>
 7    1  0.6508013E-006  0.1203843E+03  0.7818608E-02  0.1283861E+00
          2   -1    0    0  502    0  0.00000000000E+00  0.00000000000E+00  0.41253731707E+03  0.41253731707E+03  0.00000000000E+00 0. -1.
          1   -1    0    0  501    0 -0.00000000000E+00 -0.00000000000E+00 -0.89252341274E+03  0.89252341274E+03  0.00000000000E+00 0. -1.
         25    2    1    2    0    0 -0.11735792352E+03 -0.14006280427E+03  0.18264338628E+03  0.28700917516E+03  0.12500075487E+03 0.  0.
          2    1    1    2  501    0  0.53937685424E+02  0.59495721455E+02 -0.82343310302E+03  0.82733976692E+03  0.00000000000E+00 0. -1.
          1    1    1    2  502    0  0.63420238092E+02  0.80567082818E+02  0.16080362107E+03  0.19071178774E+03  0.00000000000E+00 0. -1.
         22    1    3    3    0    0  0.15777453018E+02 -0.50715651170E+02  0.82012720281E+02  0.97709219551E+02  0.00000000000E+00 0.  1.
         22    1    3    3    0    0 -0.13313537653E+03 -0.89347153104E+02  0.10063066600E+03  0.18929995561E+03  0.00000000000E+00 0.  1.
</event>
<event>
 7    1  0.6508013E-006  0.7993009E+02  0.7818608E-02  0.1387790E+00
          2   -1    0    0  502    0  0.00000000000E+00  0.00000000000E+00  0.74922023721E+02  0.74922023721E+02  0.00000000000E+00 0. -1.
          1   -1    0    0  501    0 -0.00000000000E+00 -0.00000000000E+00 -0.62251907192E+03  0.62251907192E+03  0.00000000000E+00 0. -1.
         25    2    1    2    0    0 -0.41646292818E+02  0.68119954920E+02 -0.20587960946E+03  0.25374328439E+03  0.12499799527E+03 0.  0.
          2    1    1    2  501    0 -0.51194167197E+01 -0.82090564452E+02 -0.37545887416E+03  0.38436237509E+03  0.00000000000E+00 0. -1.
          1    1    1    2  502    0  0.46765709538E+02  0.13970609532E+02  0.33741435419E+02  0.59335436152E+02  0.00000000000E+00 0. -1.
         22    1    3    3    0    0  0.35696543999E+02  0.42557122756E+02 -0.13418904098E+03  0.14523102516E+03  0.00000000000E+00 0.  1.
         22    1    3    3    0    0 -0.77342836817E+02  0.25562832163E+02 -0.71690568474E+02  0.10851225923E+03  0.00000000000E+00 0.  1.
</event>
<event>
 7    1  0.6508013E-006  0.5253880E+02  0.7818608E-02  0.1512570E+00
          2   -1    0    0  502    0  0.00000000000E+00  0.00000000000E+00  0.11255351725E+04  0.11255351725E+04  0.00000000000E+00 0. -1.
          1   -1    0    0  501    0 -0.00000000000E+00 -0.00000000000E+00 -0.10693181820E+03  0.10693181820E+03  0.00000000000E+00 0. -1.
         25    2    1    2    0    0  0.75946945975E+01 -0.33704007547E+02 -0.20674275321E+02  0.13132423218E+03  0.12499995515E+03 0.  0.
          2    1    1    2  501    0 -0.22799546501E+02  0.59062683909E+02  0.18950173963E+01  0.63338858864E+02  0.00000000000E+00 0. -1.
          1    1    1    2  502    0  0.15204851904E+02 -0.25358676362E+02  0.10373826122E+04  0.10378038996E+04  0.00000000000E+00 0. -1.
         22    1    3    3    0    0  0.13831986901E+02  0.14067584356E+02  0.45428875701E+02  0.49527805713E+02  0.00000000000E+00 0.  1.
         22    1    3    3    0    0 -0.62372923037E+01 -0.47771591903E+02 -0.66103151022E+02  0.81796426470E+02  0.00000000000E+00 0.  1.
</event>
<event>
 7    1  0.6508013E-006  0.1025846E+03  0.7818608E-02  0.1304549E+00
          2   -1    0    0  502    0  0.00000000000E+00  0.00000000000E+00  0.86963939058E+02  0.86963939058E+02  0.00000000000E+00 0. -1.
          1   -1    0    0  501    0 -0.00000000000E+00 -0.00000000000E+00 -0.19204514002E+04  0.19204514002E+04  0.00000000000E+00 0. -1.
         25    2    1    2    0    0 -0.53775932345E+02 -0.10618334010E+02 -0.10914665916E+03  0.17477558315E+03  0.12501564439E+03 0.  0.
          2    1    1    2  501    0  0.87345253008E+02 -0.59501086206E+02 -0.17481445325E+04  0.17513363123E+04  0.00000000000E+00 0. -1.
          1    1    1    2  502    0 -0.33569320663E+02  0.70119420216E+02  0.23803730506E+02  0.81303443760E+02  0.00000000000E+00 0. -1.
         22    1    3    3    0    0 -0.87265647622E+02  0.16420163999E+02 -0.50899841073E+02  0.10235091041E+03  0.00000000000E+00 0. -1.
         22    1    3    3    0    0  0.33489715277E+02 -0.27038498009E+02 -0.58246818090E+02  0.72424672740E+02  0.00000000000E+00 0. -1.
</event>
<event>
 7    1  0.6508013E-006  0.9956837E+02  0.7818608E-02  0.1410310E+00
          2   -1    0    0  502    0  0.00000000000E+00  0.00000000000E+00  0.14127733452E+04  0.14127733452E+04  0.00000000000E+00 0. -1.
          1   -1    0    0  501    0 -0.00000000000E+00 -0.00000000000E+00 -0.72180926414E+02  0.72180926414E+02  0.00000000000E+00 0. -1.
         25    2    1    2    0    0 -0.68841558210E+02 -0.10994419693E+03  0.29439793224E+03  0.34514045906E+03  0.12499962960E+03 0.  0.
          2    1    1    2  501    0  0.18743905763E+02  0.26884682223E+02 -0.38631052547E+02  0.50660422050E+02  0.00000000000E+00 0. -1.
          1    1    1    2  502    0  0.50097652447E+02  0.83059514710E+02  0.10848255391E+04  0.10891533905E+04  0.00000000000E+00 0. -1.
         22    1    3    3    0    0 -0.40798365839E+02  0.19168346754E+02  0.10443716440E+03  0.11374996035E+03  0.00000000000E+00 0.  1.
         22    1    3    3    0    0 -0.28043192371E+02 -0.12911254369E+03  0.18996076784E+03  0.23139049871E+03  0.00000000000E+00 0.  1.
</event>
<event>
 7    1  0.6508013E-006  0.7200540E+02  0.7818608E-02  0.1473395E+00
          2   -1    0    0  502    0  0.00000000000E+00  0.00000000000E+00  0.78529321300E+02  0.78529321300E+02  0.00000000000E+00 0. -1.
          1   -1    0    0  501    0 -0.00000000000E+00 -0.00000000000E+00 -0.61949293714E+03  0.61949293714E+03  0.00000000000E+00 0. -1.
         25    2    1    2    0    0 -0.45085060215E+02  0.32211378859E+02 -0.44483266221E+03  0.46537354944E+03  0.12500483015E+03 0.  0.
          2    1    1    2  501    0 -0.25190222423E+02 -0.12926282538E+02 -0.14315002196E+03  0.14592314715E+03  0.00000000000E+00 0. -1.
          1    1    1    2  502    0  0.70275282639E+02 -0.19285096321E+02  0.47019068343E+02  0.86725561848E+02  0.00000000000E+00 0. -1.
         22    1    3    3    0    0  0.30719710233E+02  0.96160179966E+01 -0.28729249548E+03  0.28909020453E+03  0.00000000000E+00 0.  1.
         22    1    3    3    0    0 -0.75804770448E+02  0.22595360862E+02 -0.15754016674E+03  0.17628334490E+03  0.00000000000E+00 0.  1.
</event>
<event>
 7    1  0.6508013E-006  0.3621990E+03  0.7818608E-02  0.1113952E+00
          2   -1    0    0  502    0  0.00000000000E+00  0.00000000000E+00  0.10626152683E+04  0.10626152683E+04  0.00000000000E+00 0. -1.
          1   -1    0    0  501    0 -0.00000000000E+00 -0.00000000000E+00 -0.20292991504E+04  0.20292991504E+04  0.00000000000E+00 0. -1.
         25    2    1    2    0    0 -0.10005022122E+03 -0.40342887426E+03 -0.19438095170E+03  0.47558153798E+03  0.12501576513E+03 0.  0.
          2    1    1    2  501    0 -0.63664531347E+02  0.35353349370E+03 -0.16670756438E+04  0.17053387657E+04  0.00000000000E+00 0. -1.
          1    1    1    2  502    0  0.16371475256E+03  0.49895380563E+02  0.89477271331E+03  0.91099411507E+03  0.00000000000E+00 0. -1.
         22    1    3    3    0    0 -0.59026657040E+02 -0.37239710028E+03 -0.19425127804E+03  0.42414302489E+03  0.00000000000E+00 0. -1.
         22    1    3    3    0    0 -0.41023564178E+02 -0.31031773980E+02 -0.12967366220E+00  0.51438513095E+02  0.00000000000E+00 0. -1.
</event>
<event>
 7    1  0.6508013E-006  0.1157855E+03  0.7818608E-02  0.1318007E+00
          2   -1    0    0  502    0  0.00000000000E+00  0.00000000000E+00  0.76410467965E+03  0.76410467965E+03  0.00000000000E+00 0. -1.
          1   -1    0    0  501    0 -0.00000000000E+00 -0.00000000000E+00 -0.14982551816E+04  0.14982551816E+04  0.00000000000E+00 0. -1.
         25    2    1    2    0    0  0.45256505985E+02  0.77823878673E+02 -0.22085224043E+02  0.15561900566E+03  0.12499924151E+03 0.  0.
          2    1    1    2  501    0 -0.45950746296E+02  0.40078998688E+02 -0.14037527261E+04  0.14050763371E+04  0.00000000000E+00 0. -1.
          1    1    1    2  502    0  0.69424031107E+00 -0.11790287736E+03  0.69168744819E+03  0.70166451844E+03  0.00000000000E+00 0. -1.
         22    1    3    3    0    0  0.87147247311E+02  0.68313257968E+02 -0.20638359286E+02  0.11263785244E+03  0.00000000000E+00 0. -1.
         22    1    3    3    0    0 -0.41890741325E+02  0.95106207056E+01 -0.14468647577E+01  0.42981153226E+02  0.00000000000E+00 0. -1.
</event>
<event>
 7    1  0.6508013E-006  0.8362383E+02  0.7818608E-02  0.1357155E+00
          2   -1    0    0  502    0  0.00000000000E+00  0.00000000000E+00  0.87153042587E+02  0.87153042587E+02  0.00000000000E+00 0. -1.
          1   -1    0    0  501    0 -0.00000000000E+00 -0.00000000000E+00 -0.12115159011E+04  0.12115159011E+04  0.00000000000E+00 0. -1.
         25    2    1    2    0    0  0.27806730067E+02  0.88621100807E+01 -0.25776076263E+03  0.28795358695E+03  0.12499962501E+03 0.  0.
          2    1    1    2  501    0  0.56015213800E+02  0.21678146147E+02 -0.90967042047E+03  0.91165120527E+03  0.00000000000E+00 0. -1.
          1    1    1    2  502    0 -0.83821943867E+02 -0.30540256227E+02  0.43068324583E+02  0.99064151470E+02  0.00000000000E+00 0. -1.
         22    1    3    3    0    0 -0.82402193920E+01 -0.43618397625E+02 -0.18941663740E+03  0.19454852441E+03  0.00000000000E+00 0.  1.
         22    1    3    3    0    0  0.36046949459E+02  0.52480507705E+02 -0.68344125232E+02  0.93405062539E+02  0.00000000000E+00 0.  1.
</event>
<event>
 7    1  0.6508013E-006  0.1751220E+03  0.7818608E-02  0.1337211E+00
          2   -1    0    0  502    0  0.00000000000E+00  0.00000000000E+00  0.27947568763E+03  0.27947568763E+03  0.00000000000E+00 0. -1.
          1   -1    0    0  501    0 -0.00000000000E+00 -0.00000000000E+00 -0.13890277438E+04  0.13890277438E+04  0.00000000000E+00 0. -1.
         25    2    1    2    0    0 -0.18846725702E+03  0.74386026427E+02  0.62823950211E+02  0.24622134506E+03  0.12499965659E+03 0.  0.
          2    1    1    2  501    0  0.15484579967E+03 -0.79620157117E+02 -0.12890456565E+04  0.13007518194E+04  0.00000000000E+00 0. -1.
          1    1    1    2  502    0  0.33621457345E+02  0.52341306901E+01  0.11666965016E+03  0.12153026695E+03  0.00000000000E+00 0. -1.
         22    1    3    3    0    0 -0.39621845679E+02 -0.50665411285E+01  0.66366934523E+02  0.77460509242E+02  0.00000000000E+00 0.  1.
         22    1    3    3    0    0 -0.14884541134E+03  0.79452567555E+02 -0.35429843116E+01  0.16876083582E+03  0.00000000000E+00 0.  1.
</event>
<event>
 7    1  0.6508013E-006  0.6411812E+02  0.7818608E-02  0.1493383E+00
          2   -1    0    0  502    0  0.00000000000E+00  0.00000000000E+00  0.91229128014E+02  0.91229128014E+02  0.00000000000E+00 0. -1.
          1   -1    0    0  501    0 -0.00000000000E+00 -0.00000000000E+00 -0.80152568057E+03  0.80152568057E+03  0.00000000000E+00 0. -1.
         25    2    1    2    0    0  0.80364500689E+02  0.26229302767E+02 -0.71915428017E+03  0.73481254790E+03  0.12498068877E+03 0.  0.
          2    1    1    2  501    0 -0.16697368323E+02 -0.22010843073E+02 -0.58785244333E+02  0.64953708693E+02  0.00000000000E+00 0. -1.
          1    1    1    2  502    0 -0.63667132367E+02 -0.42184596938E+01  0.67642971954E+02  0.92988551988E+02  0.00000000000E+00 0. -1.
         22    1    3    3    0    0  0.79929372752E+02  0.64703337888E+01 -0.20278176850E+03  0.21806195331E+03  0.00000000000E+00 0. -1.
         22    1    3    3    0    0  0.43512793723E+00  0.19758968978E+02 -0.51637251168E+03  0.51675059459E+03  0.00000000000E+00 0. -1.
</event>
<event>
 7    1  0.6508013E-006  0.7128840E+02  0.7818608E-02  0.1383016E+00
          2   -1    0    0  502    0  0.00000000000E+00  0.00000000000E+00  0.86946063573E+03  0.86946063573E+03  0.00000000000E+00 0. -1.
          1   -1    0    0  501    0 -0.00000000000E+00 -0.00000000000E+00 -0.59590173383E+03  0.59590173383E+03  0.00000000000E+00 0. -1.
         25    2    1    2    0    0  0.11052222142E+03 -0.60008924943E+02 -0.88478571970E+02  0.19816631702E+03  0.12500079600E+03 0.  0.
          2    1    1    2  501    0 -0.43977007252E+02  0.36073185608E+02 -0.44924786212E+03  0.45283428923E+03  0.00000000000E+00 0. -1.
          1    1    1    2  502    0 -0.66545214170E+02  0.23935739335E+02  0.81128533600E+03  0.81436176331E+03  0.00000000000E+00 0. -1.
         22    1    3    3    0    0  0.25286436648E+02  0.29644266286E+02 -0.59483783068E+02  0.71109119317E+02  0.00000000000E+00 0. -1.
         22    1    3    3    0    0  0.85235784774E+02 -0.89653191228E+02 -0.28994788902E+02  0.12705719770E+03  0.00000000000E+00 0. -1.
</event>
<event>
 7    1  0.6508013E-006  0.1473526E+03  0.7818608E-02  0.1248723E+00
          2   -1    0    0  502    0  0.00000000000E+00  0.00000000000E+00  0.29230456448E+03  0.29230456448E+03  0.00000000000E+00 0. -1.
          1   -1    0    0  501    0 -0.00000000000E+00 -0.00000000000E+00 -0.11105744093E+04  0.11105744093E+04  0.00000000000E+00 0. -1.
         25    2    1    2    0    0  0.17157619912E+03 -0.16425608067E+03  0.13854432253E+03  0.30205599700E+03  0.12499937550E+03 0.  0.
          2    1    1    2  501    0 -0.10570264400E+03  0.99532724842E+02 -0.99157492400E+03  0.10021480141E+04  0.00000000000E+00 0. -1.
          1    1    1    2  502    0 -0.65873555128E+02  0.64723355827E+02  0.34760756669E+02  0.98674962675E+02  0.00000000000E+00 0. -1.
         22    1    3    3    0    0  0.14822594825E+03 -0.15713681084E+03  0.16058533699E+03  0.26916641602E+03  0.00000000000E+00 0.  1.
         22    1    3    3    0    0  0.23350250869E+02 -0.71192698246E+01 -0.22041014458E+02  0.32889580977E+02  0.00000000000E+00 0.  1.
</event>
<event>
 7    1  0.6508013E-006  0.1471326E+03  0.7818608E-02  0.1260818E+00
          2   -1    0    0  502    0  0.00000000000E+00  0.00000000000E+00  0.71035183905E+03  0.71035183905E+03  0.00000000000E+00 0. -1.
          1   -1    0    0  501    0 -0.00000000000E+00 -0.00000000000E+00 -0.48321286030E+03  0.48321286030E+03  0.00000000000E+00 0. -1.
         25    2    1    2    0    0  0.82013740148E+02  0.10131263417E+03  0.39296193345E+03  0.43247491895E+03  0.12499988383E+03 0.  0.
          2    1    1    2  501    0  0.78725294870E+02 -0.23079271801E+02 -0.43240413723E+03  0.44011778280E+03  0.00000000000E+00 0. -1.
          1    1    1    2  502    0 -0.16073903502E+03 -0.78233362373E+02  0.26658118253E+03  0.32097199760E+03  0.00000000000E+00 0. -1.
         22    1    3    3    0    0  0.90914968687E+02  0.23264910031E+02  0.27654613949E+03  0.29203519452E+03  0.00000000000E+00 0. -1.
         22    1    3    3    0    0 -0.89012285382E+01  0.78047724144E+02  0.11641579396E+03  0.14043972442E+03  0.00000000000E+00 0. -1.
</event>
<event>
 7    1  0.6508013E-006  0.4037928E+02  0.7818608E-02  0.1505752E+00
          2   -1    0    0  502    0  0.00000000000E+00  0.00000000000E+00  0.17347689089E+04  0.17347689089E+04  0.00000000000E+00 0. -1.
          1   -1    0    0  501    0 -0.00000000000E+00 -0.00000000000E+00 -0.13224336220E+04  0.13224336220E+04  0.00000000000E+00 0. -1.
         25    2    1    2    0    0 -0.10804836430E+01  0.58995933912E+02  0.26069462720E+01  0.13825243692E+03  0.12500100993E+03 0.  0.
          2    1    1    2  501    0  0.28033220108E+02 -0.28942763883E+02 -0.12540424620E+04  0.12546896196E+04  0.00000000000E+00 0. -1.
          1    1    1    2  502    0 -0.26952736465E+02 -0.30053170029E+02  0.16637708026E+04  0.16642604744E+04  0.00000000000E+00 0. -1.
         22    1    3    3    0    0 -0.32661758804E+02 -0.22890699609E+02  0.25765318889E+02  0.47482905073E+02  0.00000000000E+00 0. -1.
         22    1    3    3    0    0  0.31581275161E+02  0.81886633521E+02 -0.23158372617E+02  0.90769531851E+02  0.00000000000E+00 0. -1.
</event>
<event>
 7    1  0.6508013E-006  0.7566753E+02  0.7818608E-02  0.1378116E+00
          2   -1    0    0  502    0  0.00000000000E+00  0.00000000000E+00  0.12410902308E+04  0.12410902308E+04  0.00000000000E+00 0. -1.
          1   -1    0    0  501    0 -0.00000000000E+00 -0.00000000000E+00 -0.55328153993E+03  0.55328153993E+03  0.00000000000E+00 0. -1.
         25    2    1    2    0    0  0.44076926565E+02  0.87117267910E+02  0.29285554287E+03  0.33304820591E+03  0.12499817858E+03 0.  0.
          2    1    1    2  501    0 -0.54325710301E+02 -0.12612202840E+02 -0.53019674527E+03  0.53312188021E+03  0.00000000000E+00 0. -1.
          1    1    1    2  502    0  0.10248783736E+02 -0.74505065070E+02  0.92514989325E+03  0.92820168459E+03  0.00000000000E+00 0. -1.
         22    1    3    3    0    0  0.94140016300E+01  0.90165290785E+02  0.91852044303E+02  0.12905503141E+03  0.00000000000E+00 0.  1.
         22    1    3    3    0    0  0.34662924935E+02 -0.30480228751E+01  0.20100349857E+03  0.20399317450E+03  0.00000000000E+00 0.  1.
</event>
<event>
 7    1  0.6508013E-006  0.6332618E+02  0.7818608E-02  0.1457395E+00
          2   -1    0    0  502    0  0.00000000000E+00  0.00000000000E+00  0.95991787715E+03  0.95991787715E+03  0.00000000000E+00 0. -1.
          1   -1    0    0  501    0 -0.00000000000E+00 -0.00000000000E+00 -0.18997420114E+04  0.18997420114E+04  0.00000000000E+00 0. -1.
         25    2    1    2    0    0  0.10373524212E+02 -0.44259868599E+02  0.19753222547E+02  0.13447199121E+03  0.12500392253E+03 0.  0.
          2    1    1    2  501    0 -0.32596274579E+02 -0.15583396599E+02 -0.18410511443E+04  0.18414056249E+04  0.00000000000E+00 0. -1.
          1    1    1    2  502    0  0.22222750366E+02  0.59843265198E+02  0.88147378752E+03  0.88378227246E+03  0.00000000000E+00 0. -1.
         22    1    3    3    0    0 -0.54423058098E+02 -0.11802949256E+01  0.15249231800E+02  0.56531419754E+02  0.00000000000E+00 0.  1.
         22    1    3    3    0    0  0.64796582310E+02 -0.43079573673E+02  0.45039907469E+01  0.77940571461E+02  0.00000000000E+00 0.  1.
</event>
<event>
 7    1  0.6508013E-006  0.5247402E+02  0.7818608E-02  0.1524643E+00
          2   -1    0    0  502    0  0.00000000000E+00  0.00000000000E+00  0.48629065451E+03  0.48629065451E+03  0.00000000000E+00 0. -1.
          1   -1    0    0  501    0 -0.00000000000E+00 -0.00000000000E+00 -0.14456845899E+03  0.14456845899E+03  0.00000000000E+00 0. -1.
         25    2    1    2    0    0 -0.16837433146E+02  0.51907375363E+02  0.11412762929E+03  0.17784442933E+03  0.12500260199E+03 0.  0.
          2    1    1    2  501    0  0.38773817589E+02 -0.35649788419E+02 -0.10596797625E+03  0.11833650466E+03  0.00000000000E+00 0. -1.
          1    1    1    2  502    0 -0.21936384443E+02 -0.16257586943E+02  0.33356254248E+03  0.33467817951E+03  0.00000000000E+00 0. -1.
         22    1    3    3    0    0 -0.31112246506E+02 -0.31542773672E+02  0.13450943510E+02  0.46301688251E+02  0.00000000000E+00 0. -1.
         22    1    3    3    0    0  0.14274813359E+02  0.83450149035E+02  0.10067668578E+03  0.13154274108E+03  0.00000000000E+00 0. -1.
</event>
<event>
 7    1  0.6508013E-006  0.1163547E+03  0.7818608E-02  0.1321220E+00
          2   -1    0    0  502    0  0.00000000000E+00  0.00000000000E+00  0.29645863046E+03  0.29645863046E+03  0.00000000000E+00 0. -1.
          1   -1    0    0  501    0 -0.00000000000E+00 -0.00000000000E+00 -0.42771678692E+03  0.42771678692E+03  0.00000000000E+00 0. -1.
         25    2    1    2    0    0  0.64593475126E+02 -0.63046750103E+01  0.65648182916E+02  0.15540418389E+03  0.12501484110E+03 0.  0.
          2    1    1    2  501    0 -0.12026463961E+03 -0.13105387361E+02 -0.36822646297E+03  0.38759007050E+03  0.00000000000E+00 0. -1.
          1    1    1    2  502    0  0.55671164486E+02  0.19410062371E+02  0.17132012359E+03  0.18118116300E+03  0.00000000000E+00 0. -1.
         22    1    3    3    0    0 -0.21350736120E+02 -0.27002086574E+02  0.56990550600E+02  0.66579947957E+02  0.00000000000E+00 0. -1.
         22    1    3    3    0    0  0.85944211246E+02  0.20697411564E+02  0.86576323152E+01  0.88824235935E+02  0.00000000000E+00 0. -1.
</event>
<event>
 7    1  0.7979758E-006  0.7148590E+02  0.7818608E-02  0.1404231E+00
          2   -1    0    0  502    0  0.00000000000E+00  0.00000000000E+00  0.17639459537E+04  0.17639459537E+04  0.00000000000E+00 0. -1.
          1   -1    0    0  501    0 -0.00000000000E+00 -0.00000000000E+00 -0.19968692353E+04  0.19968692353E+04  0.00000000000E+00 0. -1.
         25    2    1    2    0    0 -0.83168257882E+02 -0.62761070061E+02 -0.22474307899E+03  0.27747534710E+03  0.12500882234E+03 0.  0.
          2    1    1    2  501    0  0.13784828347E+02  0.45847785373E+02 -0.17446977194E+04  0.17453544548E+04  0.00000000000E+00 0. -1.
          1    1    1    2  502    0  0.69383429535E+02  0.16913284687E+02  0.17365175168E+04  0.17379853870E+04  0.00000000000E+00 0. -1.
         22    1    3    3    0    0 -0.10724185754E+03 -0.74267547319E+02 -0.20936662917E+03  0.24667969111E+03  0.00000000000E+00 0.  1.
         22    1    3    3    0    0  0.24073599658E+02  0.11506477259E+02 -0.15376449814E+02  0.30795655996E+02  0.00000000000E+00 0.  1.
</event>
<event>
 7    1  0.6508013E-006  0.9759554E+02  0.7818608E-02  0.1314151E+00
          2   -1    0    0  502    0  0.00000000000E+00  0.00000000000E+00  0.47107294663E+03  0.47107294663E+03  0.00000000000E+00 0. -1.
          1   -1    0    0  501    0 -0.00000000000E+00 -0.00000000000E+00 -0.20204157583E+03  0.20204157583E+03  0.00000000000E+00 0. -1.
         25    2    1    2    0    0 -0.10056011237E+03  0.21852972053E+02  0.16749269006E+03  0.23295052077E+03  0.12498902079E+03 0.  0.
          2    1    1    2  501    0  0.41770518449E+02  0.62158487948E+02 -0.15047922977E+03  0.16808465851E+03  0.00000000000E+00 0. -1.
          1    1    1    2  502    0  0.58789593918E+02 -0.84011460001E+02  0.25201791052E+03  0.27207934318E+03  0.00000000000E+00 0. -1.
         22    1    3    3    0    0 -0.10245513766E+03 -0.22526112839E+02  0.15435695554E+03  0.18662944762E+03  0.00000000000E+00 0. -1.
         22    1    3    3    0    0  0.18950252956E+01  0.44379084892E+02  0.13135734511E+02  0.46321073152E+02  0.00000000000E+00 0. -1.
</event>
<event>
 7    1  0.6508013E-006  0.4143473E+02  0.7818608E-02  0.1543605E+00
          2   -1    0    0  502    0  0.00000000000E+00  0.00000000000E+00  0.17370019545E+02  0.17370019545E+02  0.00000000000E+00 0. -1.
          1   -1    0    0  501    0 -0.00000000000E+00 -0.00000000000E+00 -0.10036066878E+04  0.10036066878E+04  0.00000000000E+00 0. -1.
         25    2    1    2    0    0  0.62047429944E+01  0.16309734576E+02 -0.46416042455E+03  0.48101637037E+03  0.12500936991E+03 0.  0.
          2    1    1    2  501    0  0.27743058502E+02  0.12752717511E+02 -0.47142630999E+03  0.47241409256E+03  0.00000000000E+00 0. -1.
          1    1    1    2  502    0 -0.33947801496E+02 -0.29062452088E+02 -0.50649933665E+02  0.67546244366E+02  0.00000000000E+00 0. -1.
         22    1    3    3    0    0  0.44633877684E+02  0.53245226245E+02 -0.20569193460E+03  0.21710921011E+03  0.00000000000E+00 0. -1.
         22    1    3    3    0    0 -0.38429134689E+02 -0.36935491669E+02 -0.25846848996E+03  0.26390716026E+03  0.00000000000E+00 0. -1.
</event>
<event>
 7    1  0.6508013E-006  0.1204009E+03  0.7818608E-02  0.1352551E+00
          2   -1    0    0  502    0  0.00000000000E+00  0.00000000000E+00  0.13978498006E+04  0.13978498006E+04  0.00000000000E+00 0. -1.
          1   -1    0    0  501    0 -0.00000000000E+00 -0.00000000000E+00 -0.51920057435E+03  0.51920057435E+03  0.00000000000E+00 0. -1.
         25    2    1    2    0    0  0.14452033877E+03  0.30025558473E+02 -0.60368123408E+02  0.20262403886E+03  0.12499811327E+03 0.  0.
          2    1    1    2  501    0 -0.36870679347E+02  0.22847257686E+02 -0.38376981417E+03  0.38621330174E+03  0.00000000000E+00 0. -1.
          1    1    1    2  502    0 -0.10764965942E+03 -0.52872816159E+02  0.13227871638E+04  0.13282130344E+04  0.00000000000E+00 0. -1.
         22    1    3    3    0    0  0.13163034614E+02  0.33430170998E+02  0.26900795510E+02  0.44883121686E+02  0.00000000000E+00 0.  1.
         22    1    3    3    0    0  0.13135730415E+03 -0.34046125252E+01 -0.87268918918E+02  0.15774091717E+03  0.00000000000E+00 0.  1.
</event>
<event>
 7    1  0.6508013E-006  0.1017927E+03  0.7818608E-02  0.1463162E+00
          2   -1    0    0  502    0  0.00000000000E+00  0.00000000000E+00  0.28281818389E+02  0.28281818389E+02  0.00000000000E+00 0. -1.
          1   -1    0    0  501    0 -0.00000000000E+00 -0.00000000000E+00 -0.83752977368E+03  0.83752977368E+03  0.00000000000E+00 0. -1.
         25    2    1    2    0    0  0.95088103994E+02  0.17942541142E+02 -0.56155497374E+03  0.58337951632E+03  0.12499595685E+03 0.  0.
          2    1    1    2  501    0  0.81190136270E+00  0.21539614313E+02 -0.97875237157E+02  0.10022063768E+03  0.00000000000E+00 0. -1.
          1    1    1    2  502    0 -0.95900005357E+02 -0.39482155455E+02 -0.14981774439E+03  0.18221143807E+03  0.00000000000E+00 0. -1.
         22    1    3    3    0    0 -0.18388329034E+02  0.21092245465E+02 -0.35433013707E+02  0.45149882876E+02  0.00000000000E+00 0.  1.
         22    1    3    3    0    0  0.11347643303E+03 -0.31497043235E+01 -0.52612196004E+03  0.53822963345E+03  0.00000000000E+00 0.  1.
</event>
<event>
 7    1  0.6508013E-006  0.1443255E+03  0.7818608E-02  0.1275333E+00
          2   -1    0    0  502    0  0.00000000000E+00  0.00000000000E+00  0.23624685132E+04  0.23624685132E+04  0.00000000000E+00 0. -1.
          1   -1    0    0  501    0 -0.00000000000E+00 -0.00000000000E+00 -0.19822813448E+02  0.19822813448E+02  0.00000000000E+00 0. -1.
         25    2    1    2    0    0  0.55672569483E+02 -0.17153640670E+03  0.15490019383E+04  0.15644670629E+04  0.12500404953E+03 0.  0.
          2    1    1    2  501    0 -0.49738407047E+02  0.52954414408E+02  0.20958559706E+03  0.22182020114E+03  0.00000000000E+00 0. -1.
          1    1    1    2  502    0 -0.59341624363E+01  0.11858199230E+03  0.58405816440E+03  0.59600406255E+03  0.00000000000E+00 0. -1.
         22    1    3    3    0    0 -0.17537820958E+02 -0.10270869233E+03  0.50478706250E+03  0.51542858779E+03  0.00000000000E+00 0. -1.
         22    1    3    3    0    0  0.73210390441E+02 -0.68827714371E+02  0.10442148758E+04  0.10490384751E+04  0.00000000000E+00 0. -1.
</event>
<event>
 7    1  0.6508013E-006  0.9676848E+02  0.7818608E-02  0.1461529E+00
          2   -1    0    0  502    0  0.00000000000E+00  0.00000000000E+00  0.11263108811E+04  0.11263108811E+04  0.00000000000E+00 0. -1.
          1   -1    0    0  501    0 -0.00000000000E+00 -0.00000000000E+00 -0.12911603240E+04  0.12911603240E+04  0.00000000000E+00 0. -1.
         25    2    1    2    0    0  0.53742819030E+02  0.80113944744E+02  0.85775624192E+02  0.17969220556E+03  0.12500118516E+03 0.  0.
          2    1    1    2  501    0  0.17686547361E+02 -0.14615017804E+02 -0.12417325616E+04  0.12419445105E+04  0.00000000000E+00 0. -1.
          1    1    1    2  502    0 -0.71429366391E+02 -0.65498926939E+02  0.99110749448E+03  0.99583448898E+03  0.00000000000E+00 0. -1.
         22    1    3    3    0    0  0.16586813728E+02  0.10876022372E+03  0.69007961252E+02  0.12986919331E+03  0.00000000000E+00 0.  1.
         22    1    3    3    0    0  0.37156005301E+02 -0.28646278978E+02  0.16767662939E+02  0.49823012250E+02  0.00000000000E+00 0.  1.
</event>
<event>
 7    1  0.6508013E-006  0.1421577E+03  0.7818608E-02  0.1305609E+00
          2   -1    0    0  502    0  0.00000000000E+00  0.00000000000E+00  0.18585526002E+04  0.18585526002E+04  0.00000000000E+00 0. -1.
          1   -1    0    0  501    0 -0.00000000000E+00 -0.00000000000E+00 -0.21619948518E+04  0.21619948518E+04  0.00000000000E+00 0. -1.
         25    2    1    2    0    0 -0.17253151243E+03  0.62254883230E+02 -0.38306292022E+03  0.44272523480E+03  0.12500255764E+03 0.  0.
          2    1    1    2  501    0  0.11799463388E+03 -0.72858939729E+02 -0.17459287763E+04  0.17514275465E+04  0.00000000000E+00 0. -1.
          1    1    1    2  502    0  0.54536878555E+02  0.10604056499E+02  0.18255494449E+04  0.18263946707E+04  0.00000000000E+00 0. -1.
         22    1    3    3    0    0 -0.60831601663E+02  0.66270122761E+02 -0.26632056854E+03  0.28110293161E+03  0.00000000000E+00 0.  1.
         22    1    3    3    0    0 -0.11169991077E+03 -0.40152395308E+01 -0.11674235168E+03  0.16162230320E+03  0.00000000000E+00 0.  1.
</event>
<event>
 7    1  0.6508013E-006  0.7407253E+02  0.7818608E-02  0.1427811E+00
          2   -1    0    0  502    0  0.00000000000E+00  0.00000000000E+00  0.26997922472E+04  0.26997922472E+04  0.00000000000E+00 0. -1.
          1   -1    0    0  501    0 -0.00000000000E+00 -0.00000000000E+00 -0.16138608838E+02  0.16138608838E+02  0.00000000000E+00 0. -1.
         25    2    1    2    0    0  0.10069049038E+03 -0.65197692317E+01  0.19158767744E+04  0.19225995576E+04  0.12499664851E+03 0.  0.
          2    1    1    2  501    0 -0.38210054398E+02 -0.47142090959E+01  0.20987723650E+02  0.43848792098E+02  0.00000000000E+00 0. -1.
          1    1    1    2  502    0 -0.62480435985E+02  0.11233978328E+02  0.74678914039E+03  0.74948250637E+03  0.00000000000E+00 0. -1.
         22    1    3    3    0    0  0.17435119962E+02  0.20529605213E+02  0.75824706396E+02  0.80466354449E+02  0.00000000000E+00 0. -1.
         22    1    3    3    0    0  0.83255370420E+02 -0.27049374444E+02  0.18400520680E+04  0.18421332032E+04  0.00000000000E+00 0. -1.
</event>
<event>
 7    1  0.6508013E-006  0.7770332E+02  0.7818608E-02  0.1484431E+00
          2   -1    0    0  502    0  0.00000000000E+00  0.00000000000E+00  0.21153592625E+04  0.21153592625E+04  0.00000000000E+00 0. -1.
          1   -1    0    0  501    0 -0.00000000000E+00 -0.00000000000E+00 -0.24679121624E+02  0.24679121624E+02  0.00000000000E+00 0. -1.
         25    2    1    2    0    0  0.58040814750E+02  0.18710289556E+01  0.68851052439E+03  0.70217103353E+03  0.12500072485E+03 0.  0.
          2    1    1    2  501    0 -0.79864065515E+02  0.87409375851E+01  0.73233787539E+02  0.10870998385E+03  0.00000000000E+00 0. -1.
          1    1    1    2  502    0  0.21823250765E+02 -0.10611966541E+02  0.13289358290E+04  0.13291573667E+04  0.00000000000E+00 0. -1.
         22    1    3    3    0    0  0.42212378830E+02 -0.58226464178E+02  0.44929837374E+03  0.45501783999E+03  0.00000000000E+00 0.  1.
         22    1    3    3    0    0  0.15828435920E+02  0.60097493133E+02  0.23921215064E+03  0.24715319355E+03  0.00000000000E+00 0.  1.
</event>
<event>
 7    1  0.6508013E-006  0.1376107E+03  0.7818608E-02  0.1303401E+00
          2   -1    0    0  502    0  0.00000000000E+00  0.00000000000E+00  0.15567125149E+04  0.15567125149E+04  0.00000000000E+00 0. -1.
          1   -1    0    0  501    0 -0.00000000000E+00 -0.00000000000E+00 -0.14287671311E+03  0.14287671311E+03  0.00000000000E+00 0. -1.
         25    2    1    2    0    0 -0.11658981366E+03 -0.70873642504E+02  0.34031792236E+03  0.38737134410E+03  0.12499604835E+03 0.  0.
          2    1    1    2  501    0  0.37997522427E+02 -0.44566305889E+02 -0.10779577707E+03  0.12267802120E+03  0.00000000000E+00 0. -1.
          1    1    1    2  502    0  0.78592291238E+02  0.11543994839E+03  0.11813136565E+04  0.11895398627E+04  0.00000000000E+00 0. -1.
         22    1    3    3    0    0 -0.72984226293E+02 -0.76160532325E+02  0.10811200173E+03  0.15104743921E+03  0.00000000000E+00 0. -1.
         22    1    3    3    0    0 -0.43605587372E+02  0.52868898205E+01  0.23220592062E+03  0.23632390490E+03  0.00000000000E+00 0. -1.
</event>
<event>
 7    1  0.6508013E-006  0.8176182E+02  0.7818608E-02  0.1410684E+00
          2   -1    0    0  502    0  0.00000000000E+00  0.00000000000E+00  0.25055134562E+04  0.25055134562E+04  0.00000000000E+00 0. -1.
          1   -1    0    0  501    0 -0.00000000000E+00 -0.00000000000E+00 -0.10337727862E+03  0.10337727862E+03  0.00000000000E+00 0. -1.
         25    2    1    2    0    0 -0.89044083816E+02 -0.47909484567E+02  0.51105808188E+03  0.53574937936E+03  0.12499146713E+03 0.  0.
          2    1    1    2  501    0  0.80837269182E+02  0.89695672275E+01 -0.72622626389E+02  0.10903743893E+03  0.00000000000E+00 0. -1.
          1    1    1    2  502    0  0.82068146339E+01  0.38939917339E+02  0.19637007221E+04  0.19641039165E+04  0.00000000000E+00 0. -1.
         22    1    3    3    0    0 -0.73048809267E+02  0.30155970030E+02  0.29718086344E+03  0.30750931150E+03  0.00000000000E+00 0.  1.
         22    1    3    3    0    0 -0.15995274549E+02 -0.78065454596E+02  0.21387721844E+03  0.22824006786E+03  0.00000000000E+00 0.  1.
</event>
<event>
 7    1  0.6508013E-006  0.8651642E+02  0.7818608E-02  0.1456107E+00
          2   -1    0    0  502    0  0.00000000000E+00  0.00000000000E+00  0.10247540889E+03  0.10247540889E+03  0.00000000000E+00 0. -1.
          1   -1    0    0  501    0 -0.00000000000E+00 -0.00000000000E+00 -0.88251018337E+03  0.88251018337E+03  0.00000000000E+00 0. -1.
         25    2    1    2    0    0  0.79145228525E+02  0.58732580194E+02 -0.55382138576E+02  0.16853225885E+03  0.12498983089E+03 0.  0.
          2    1    1    2  501    0 -0.53839724082E+02 -0.67233107981E+02 -0.76403567425E+03  0.76887548942E+03  0.00000000000E+00 0. -1.
          1    1    1    2  502    0 -0.25305504443E+02  0.85005277870E+01  0.39383038351E+02  0.47577843977E+02  0.00000000000E+00 0. -1.
         22    1    3    3    0    0  0.61763952193E+02  0.58168603837E+02 -0.93729289888E+02  0.12642607344E+03  0.00000000000E+00 0. -1.
         22    1    3    3    0    0  0.17381276333E+02  0.56397635733E+00  0.38347151313E+02  0.42106185414E+02  0.00000000000E+00 0. -1.
</event>
<event>
 7    1  0.6508013E-006  0.7598591E+02  0.7818608E-02  0.1371185E+00
          2   -1    0    0  502    0  0.00000000000E+00  0.00000000000E+00  0.52822753781E+03  0.52822753781E+03  0.00000000000E+00 0. -1.
          1   -1    0    0  501    0 -0.00000000000E+00 -0.00000000000E+00 -0.74908070925E+02  0.74908070925E+02  0.00000000000E+00 0. -1.
         25    2    1    2    0    0 -0.11048092433E+03  0.61253361542E+02  0.21527653952E+03  0.27915542532E+03  0.12500301625E+03 0.  0.
          2    1    1    2  501    0  0.54260828722E+02 -0.44051710677E+02 -0.86076533821E+01  0.70419332885E+02  0.00000000000E+00 0. -1.
          1    1    1    2  502    0  0.56220095610E+02 -0.17201650866E+02  0.24665058075E+03  0.25356085054E+03  0.00000000000E+00 0. -1.
         22    1    3    3    0    0 -0.13498245259E+02  0.24502267686E+02  0.15843903391E+03  0.16088968647E+03  0.00000000000E+00 0. -1.
         22    1    3    3    0    0 -0.96982679073E+02  0.36751093856E+02  0.56837505613E+02  0.11826573884E+03  0.00000000000E+00 0. -1.
</event>
<event>
 7    1  0.6508013E-006  0.6703745E+02  0.7818608E-02  0.1469056E+00
          2   -1    0    0  502    0  0.00000000000E+00  0.00000000000E+00  0.16217317215E+04  0.16217317215E+04  0.00000000000E+00 0. -1.
          1   -1    0    0  501    0 -0.00000000000E+00 -0.00000000000E+00 -0.10969176367E+03  0.10969176367E+03  0.00000000000E+00 0. -1.
         25    2    1    2    0    0  0.50854296918E+02 -0.50389074866E+01  0.20573750613E+03  0.24609916267E+03  0.12500130534E+03 0.  0.
          2    1    1    2  501    0 -0.58262348716E+02  0.35521257387E+02 -0.76302397373E+02  0.10236365004E+03  0.00000000000E+00 0. -1.
          1    1    1    2  502    0  0.74080517977E+01 -0.30482349901E+02  0.13826048490E+04  0.13829606724E+04  0.00000000000E+00 0. -1.
         22    1    3    3    0    0 -0.20680798884E+02 -0.47247889027E+02  0.69655346747E+02  0.86671366612E+02  0.00000000000E+00 0. -1.
         22    1    3    3    0    0  0.71535095802E+02  0.42208981540E+02  0.13608215938E+03  0.15942779606E+03  0.00000000000E+00 0. -1.
</event>
<event>
 7    1  0.6508013E-006  0.7646035E+02  0.7818608E-02  0.1431974E+00
          2   -1    0    0  502    0  0.00000000000E+00  0.00000000000E+00  0.71101833859E+02  0.71101833859E+02  0.00000000000E+00 0. -1.
          1   -1    0    0  501    0 -0.00000000000E+00 -0.00000000000E+00 -0.58753725344E+03  0.58753725344E+03  0.00000000000E+00 0. -1.
         25    2    1    2    0    0 -0.34228050343E+02 -0.27885081025E+02 -0.79207541552E+02  0.15443174343E+03  0.12500476617E+03 0.  0.
          2    1    1    2  501    0  0.67633473678E+02  0.41671926669E+02 -0.45642471203E+03  0.46328647075E+03  0.00000000000E+00 0. -1.
          1    1    1    2  502    0 -0.33405423335E+02 -0.13786845644E+02  0.19196834000E+02  0.40920873117E+02  0.00000000000E+00 0. -1.
         22    1    3    3    0    0 -0.67928351160E+02 -0.44854359235E+02 -0.19342031663E+02  0.83667727485E+02  0.00000000000E+00 0.  1.
         22    1    3    3    0    0  0.33700300817E+02  0.16969278210E+02 -0.59865509889E+02  0.70764015943E+02  0.00000000000E+00 0.  1.
</event>
<event>
 7    1  0.6508013E-006  0.1330016E+03  0.7818608E-02  0.1349672E+00
          2   -1    0    0  502    0  0.00000000000E+00  0.00000000000E+00  0.24911361219E+03  0.24911361219E+03  0.00000000000E+00 0. -1.
          1   -1    0    0  501    0 -0.00000000000E+00 -0.00000000000E+00 -0.13969445340E+04  0.13969445340E+04  0.00000000000E+00 0. -1.
         25    2    1    2    0    0 -0.12346486782E+03 -0.11285089414E+03 -0.23320133603E+03  0.31302934467E+03  0.12500243838E+03 0.  0.
          2    1    1    2  501    0  0.86576386318E+02  0.96771439602E+02 -0.11181014809E+04  0.11256158775E+04  0.00000000000E+00 0. -1.
          1    1    1    2  502    0  0.36888481499E+02  0.16079454542E+02  0.20347189513E+03  0.20741292398E+03  0.00000000000E+00 0. -1.
         22    1    3    3    0    0 -0.16185627305E+02  0.27144970204E+02 -0.46189427962E+02  0.55966840130E+02  0.00000000000E+00 0.  1.
         22    1    3    3    0    0 -0.10727924051E+03 -0.13999586435E+03 -0.18701190807E+03  0.25706250454E+03  0.00000000000E+00 0.  1.
</event>
<event>
 7    1  0.6508013E-006  0.3447196E+03  0.7818608E-02  0.1222993E+00
          2   -1    0    0  502    0  0.00000000000E+00  0.00000000000E+00  0.12526913425E+04  0.12526913425E+04  0.00000000000E+00 0. -1.
          1   -1    0    0  501    0 -0.00000000000E+00 -0.00000000000E+00 -0.24028791034E+04  0.24028791034E+04  0.00000000000E+00 0. -1.
         25    2    1    2    0    0 -0.30773133879E+03 -0.24035292184E+03  0.10451257635E+03  0.42310300553E+03  0.12500068306E+03 0.  0.
          2    1    1    2  501    0  0.25904000948E+03  0.22402572160E+03 -0.22298348430E+04  0.22559815330E+04  0.00000000000E+00 0. -1.
          1    1    1    2  502    0  0.48691329303E+02  0.16327200239E+02  0.97513450576E+03  0.97648590739E+03  0.00000000000E+00 0. -1.
         22    1    3    3    0    0 -0.59565572584E+02 -0.92646783498E+02 -0.13814228577E+02  0.11100593156E+03  0.00000000000E+00 0. -1.
         22    1    3    3    0    0 -0.24816576620E+03 -0.14770613834E+03  0.11832680492E+03  0.31209707397E+03  0.00000000000E+00 0. -1.
</event>
<event>
 7    1  0.6508013E-006  0.1342839E+03  0.7818608E-02  0.1373367E+00
          2   -1    0    0  502    0  0.00000000000E+00  0.00000000000E+00  0.15423337387E+03  0.15423337387E+03  0.00000000000E+00 0. -1.
          1   -1    0    0  501    0 -0.00000000000E+00 -0.00000000000E+00 -0.87010472376E+03  0.87010472376E+03  0.00000000000E+00 0. -1.
         25    2    1    2    0    0  0.12473067056E+03  0.40631566967E+02  0.68749173387E+02  0.19380350414E+03  0.12499873985E+03 0.  0.
          2    1    1    2  501    0  0.48985551856E+01  0.32305900003E+02 -0.56108449933E+03  0.56203512560E+03  0.00000000000E+00 0. -1.
          1    1    1    2  502    0 -0.12962922575E+03 -0.72937466970E+02 -0.22353602395E+03  0.26849946789E+03  0.00000000000E+00 0. -1.
         22    1    3    3    0    0  0.14606214670E+03  0.50123771926E+02  0.71723234762E+02  0.17026674841E+03  0.00000000000E+00 0. -1.
         22    1    3    3    0    0 -0.21331476137E+02 -0.94922049588E+01 -0.29740613750E+01  0.23536755729E+02  0.00000000000E+00 0. -1.
</event>
<event>
 7    1  0.6508013E-006  0.8444594E+02  0.7818608E-02  0.1468224E+00
          2   -1    0    0  502    0  0.00000000000E+00  0.00000000000E+00  0.91585771217E+03  0.91585771217E+03  0.00000000000E+00 0. -1.
          1   -1    0    0  501    0 -0.00000000000E+00 -0.00000000000E+00 -0.45324235050E+03  0.45324235050E+03  0.00000000000E+00 0. -1.
         25    2    1    2    0    0  0.61063740785E+02 -0.99993905062E+01  0.42800837725E+03  0.45016069613E+03  0.12499885235E+03 0.  0.
          2    1    1    2  501    0 -0.80718001935E+02  0.25533625291E+02 -0.43777882099E+03  0.44588973745E+03  0.00000000000E+00 0. -1.
          1    1    1    2  502    0  0.19654261149E+02 -0.15534234785E+02  0.47238580541E+03  0.47304962909E+03  0.00000000000E+00 0. -1.
         22    1    3    3    0    0  0.24825770547E+02  0.57591893447E+02  0.19957187000E+03  0.20919387269E+03  0.00000000000E+00 0. -1.
         22    1    3    3    0    0  0.36237970238E+02 -0.67591283953E+02  0.22843650725E+03  0.24096682344E+03  0.00000000000E+00 0. -1.
</event>
<event>
 7    1  0.6508013E-006  0.1080042E+03  0.7818608E-02  0.1343674E+00
          2   -1    0    0  502    0  0.00000000000E+00  0.00000000000E+00  0.87609795294E+03  0.87609795294E+03  0.00000000000E+00 0. -1.
          1   -1    0    0  501    0 -0.00000000000E+00 -0.00000000000E+00 -0.16967823175E+04  0.16967823175E+04  0.00000000000E+00 0. -1.
         25    2    1    2    0    0  0.82004728409E+02 -0.82378367679E+02 -0.93164294253E+03  0.94715049636E+03  0.12499807777E+03 0.  0.
          2    1    1    2  501    0 -0.48107346022E+02 -0.20183731516E+02 -0.75312043856E+03  0.75492522460E+03  0.00000000000E+00 0. -1.
          1    1    1    2  502    0 -0.33897382386E+02  0.10256209920E+03  0.86407901649E+03  0.87080454951E+03  0.00000000000E+00 0. -1.
         22    1    3    3    0    0 -0.33170785131E+02 -0.22387994833E+02 -0.26097541276E+03  0.26402592556E+03  0.00000000000E+00 0. -1.
         22    1    3    3    0    0  0.11517551354E+03 -0.59990372846E+02 -0.67066752977E+03  0.68312457081E+03  0.00000000000E+00 0. -1.
</event>
<event>
 7    1  0.6508013E-006  0.2109183E+03  0.7818608E-02  0.1217848E+00
          2   -1    0    0  502    0  0.00000000000E+00  0.00000000000E+00  0.27391688078E+03  0.27391688078E+03  0.00000000000E+00 0. -1.
          1   -1    0    0  501    0 -0.00000000000E+00 -0.00000000000E+00 -0.68640807150E+03  0.68640807150E+03  0.00000000000E+00 0. -1.
         25    2    1    2    0    0 -0.14388117419E+03 -0.61314706877E+02  0.14989912642E+03  0.25012118030E+03  0.12501828333E+03 0.  0.
          2    1    1    2  501    0  0.15821584436E+03  0.14873748150E+03 -0.58049558774E+03  0.61978239665E+03  0.00000000000E+00 0. -1.
          1    1    1    2  502    0 -0.14334670167E+02 -0.87422774627E+02  0.18105270596E+02  0.90421375324E+02  0.00000000000E+00 0. -1.
         22    1    3    3    0    0 -0.13702897495E+03 -0.34147381937E+02  0.16589165379E+03  0.21786010297E+03  0.00000000000E+00 0. -1.
         22    1    3    3    0    0 -0.68521992447E+01 -0.27167324940E+02 -0.15992527369E+02  0.32261077331E+02  0.00000000000E+00 0. -1.
</event>
<event>
 7    1  0.6508013E-006  0.6831635E+02  0.7818608E-02  0.1453099E+00
          2   -1    0    0  502    0  0.00000000000E+00  0.00000000000E+00  0.71461659136E+03  0.71461659136E+03  0.00000000000E+00 0. -1.
          1   -1    0    0  501    0 -0.00000000000E+00 -0.00000000000E+00 -0.64339445170E+02  0.64339445170E+02  0.00000000000E+00 0. -1.
         25    2    1    2    0    0  0.21575804619E+02 -0.31202639853E+02  0.78554767211E+02  0.15242967182E+03  0.12499933328E+03 0.  0.
          2    1    1    2  501    0  0.30649918587E+01 -0.34423226978E+02 -0.13513266950E+02  0.37107426673E+02  0.00000000000E+00 0. -1.
          1    1    1    2  502    0 -0.24640796478E+02  0.65625866831E+02  0.58523564593E+03  0.58941893804E+03  0.00000000000E+00 0. -1.
         22    1    3    3    0    0  0.36241365150E+02 -0.75776394533E+01 -0.25347792134E+02  0.44870566451E+02  0.00000000000E+00 0. -1.
         22    1    3    3    0    0 -0.14665560531E+02 -0.23625000400E+02  0.10390255935E+03  0.10755910537E+03  0.00000000000E+00 0. -1.
</event>
<event>
 7    1  0.6508013E-006  0.8044437E+02  0.7818608E-02  0.1469426E+00
          2   -1    0    0  502    0  0.00000000000E+00  0.00000000000E+00  0.17434406964E+04  0.17434406964E+04  0.00000000000E+00 0. -1.
          1   -1    0    0  501    0 -0.00000000000E+00 -0.00000000000E+00 -0.14125350694E+03  0.14125350694E+03  0.00000000000E+00 0. -1.
         25    2    1    2    0    0  0.72175454032E+02  0.47719187169E+02  0.26003432784E+03  0.30121308031E+03  0.12500020443E+03 0.  0.
          2    1    1    2  501    0 -0.77224534078E+02 -0.22140409283E+02 -0.10716240987E+03  0.13393135733E+03  0.00000000000E+00 0. -1.
          1    1    1    2  502    0  0.50490800461E+01 -0.25578777886E+02  0.14493152715E+04  0.14495497657E+04  0.00000000000E+00 0. -1.
         22    1    3    3    0    0  0.73299985279E+02 -0.23424592930E+02  0.16880445255E+03  0.18551696040E+03  0.00000000000E+00 0.  1.
         22    1    3    3    0    0 -0.11245312468E+01  0.71143780099E+02  0.91229875289E+02  0.11569611991E+03  0.00000000000E+00 0.  1.
</event>
<event>
 7    1  0.6508013E-006  0.3321930E+02  0.7818608E-02  0.1566824E+00
          2   -1    0    0  502    0  0.00000000000E+00  0.00000000000E+00  0.90168124885E+03  0.90168124885E+03  0.00000000000E+00 0. -1.
          1   -1    0    0  501    0 -0.00000000000E+00 -0.00000000000E+00 -0.30572047246E+02  0.30572047246E+02  0.00000000000E+00 0. -1.
         25    2    1    2    0    0 -0.67490561703E+00 -0.40132343769E+02  0.18486863044E+03  0.22674471164E+03  0.12500277287E+03 0.  0.
          2    1    1    2  501    0  0.27183342049E+02  0.20744570549E+02  0.22449114982E+02  0.40905183726E+02  0.00000000000E+00 0. -1.
          1    1    1    2  502    0 -0.26508436432E+02  0.19387773220E+02  0.66379145619E+03  0.66460340073E+03  0.00000000000E+00 0. -1.
         22    1    3    3    0    0 -0.43597670215E+02 -0.52393288503E+02  0.16373442945E+03  0.17735494613E+03  0.00000000000E+00 0.  1.
         22    1    3    3    0    0  0.42922764598E+02  0.12260944733E+02  0.21134200986E+02  0.49389765517E+02  0.00000000000E+00 0.  1.
</event>
<event>
 7    1  0.6508013E-006  0.3527073E+02  0.7818608E-02  0.1626464E+00
          2   -1    0    0  502    0  0.00000000000E+00  0.00000000000E+00  0.21248977285E+03  0.21248977285E+03  0.00000000000E+00 0. -1.
          1   -1    0    0  501    0 -0.00000000000E+00 -0.00000000000E+00 -0.98155923503E+03  0.98155923503E+03  0.00000000000E+00 0. -1.
         25    2    1    2    0    0 -0.19249804300E+02 -0.99072183900E+01  0.88794235636E+02  0.15484160855E+03  0.12499119775E+03 0.  0.
          2    1    1    2  501    0 -0.17857814421E+02  0.12097211112E+02 -0.94459743792E+03  0.94484367161E+03  0.00000000000E+00 0. -1.
          1    1    1    2  502    0  0.37107618720E+02 -0.21899927224E+01  0.86733740110E+02  0.94363727717E+02  0.00000000000E+00 0. -1.
         22    1    3    3    0    0  0.17582141762E+02  0.24675346015E+02  0.98796711989E+02  0.10333825386E+03  0.00000000000E+00 0. -1.
         22    1    3    3    0    0 -0.36831946062E+02 -0.34582564405E+02 -0.10002476353E+02  0.51503354694E+02  0.00000000000E+00 0. -1.
</event>
<event>
 7    1  0.6508013E-006  0.8108449E+02  0.7818608E-02  0.1421903E+00
          2   -1    0    0  502    0  0.00000000000E+00  0.00000000000E+00  0.67831109777E+03  0.67831109777E+03  0.00000000000E+00 0. -1.
          1   -1    0    0  501    0 -0.00000000000E+00 -0.00000000000E+00 -0.62173889911E+03  0.62173889911E+03  0.00000000000E+00 0. -1.
         25    2    1    2    0    0  0.10345232186E+01  0.11081510473E+03 -0.28494259509E+03  0.33029936914E+03  0.12499733231E+03 0.  0.
          2    1    1    2  501    0 -0.18433050315E+02 -0.31843225406E+02 -0.31053421295E+03  0.31270635708E+03  0.00000000000E+00 0. -1.
          1    1    1    2  502    0  0.17398527096E+02 -0.78971879326E+02  0.65204900669E+03  0.65704427065E+03  0.00000000000E+00 0. -1.
         22    1    3    3    0    0  0.25986599303E+02  0.84630725641E+02 -0.28016006482E+03  0.29381512042E+03  0.00000000000E+00 0.  1.
         22    1    3    3    0    0 -0.24952076084E+02  0.26184379091E+02 -0.47825302680E+01  0.36484248726E+02  0.00000000000E+00 0.  1.
</event>
<event>
 7    1  0.6508013E-006  0.2270811E+03  0.7818608E-02  0.1324381E+00
          2   -1    0    0  502    0  0.00000000000E+00  0.00000000000E+00  0.37141020226E+03  0.37141020226E+03  0.00000000000E+00 0. -1.
          1   -1    0    0  501    0 -0.00000000000E+00 -0.00000000000E+00 -0.86437506386E+03  0.86437506386E+03  0.00000000000E+00 0. -1.
         25    2    1    2    0    0  0.34535002453E+02 -0.22749191553E+03 -0.36163387695E+03  0.44648511880E+03  0.12499864930E+03 0.  0.
          2    1    1    2  501    0 -0.52129910054E+01  0.22578236914E+03 -0.43185542902E+03  0.48734378529E+03  0.00000000000E+00 0. -1.
          1    1    1    2  502    0 -0.29322011448E+02  0.17095463923E+01  0.30052444437E+03  0.30195636203E+03  0.00000000000E+00 0. -1.
         22    1    3    3    0    0  0.81466895661E+02 -0.15655367779E+03 -0.23355232178E+03  0.29273297752E+03  0.00000000000E+00 0. -1.
         22    1    3    3    0    0 -0.46931893207E+02 -0.70938237745E+02 -0.12808155517E+03  0.15375214129E+03  0.00000000000E+00 0. -1.
</event>
<event>
 7    1  0.6508013E-006  0.4590738E+02  0.7818608E-02  0.1515297E+00
          2   -1    0    0  502    0  0.00000000000E+00  0.00000000000E+00  0.47747943376E+02  0.47747943376E+02  0.00000000000E+00 0. -1.
          1   -1    0    0  501    0 -0.00000000000E+00 -0.00000000000E+00 -0.86284053232E+03  0.86284053232E+03  0.00000000000E+00 0. -1.
         25    2    1    2    0    0 -0.82878757563E+01 -0.44856885459E+02 -0.65076005968E+03  0.66422684420E+03  0.12501126437E+03 0.  0.
          2    1    1    2  501    0  0.32728689569E+02  0.57057001786E+01 -0.19045313971E+03  0.19332904738E+03  0.00000000000E+00 0. -1.
          1    1    1    2  502    0 -0.24440813813E+02  0.39151185280E+02  0.26120610442E+02  0.53032584121E+02  0.00000000000E+00 0. -1.
         22    1    3    3    0    0  0.47331354795E+02 -0.15885219499E+02 -0.47494586328E+03  0.47756273975E+03  0.00000000000E+00 0.  1.
         22    1    3    3    0    0 -0.55619230551E+02 -0.28971665960E+02 -0.17581419639E+03  0.18666410445E+03  0.00000000000E+00 0.  1.
</event>
<event>
 7    1  0.6508013E-006  0.3018815E+03  0.7818608E-02  0.1113761E+00
          2   -1    0    0  502    0  0.00000000000E+00  0.00000000000E+00  0.16499827019E+04  0.16499827019E+04  0.00000000000E+00 0. -1.
          1   -1    0    0  501    0 -0.00000000000E+00 -0.00000000000E+00 -0.15428814995E+04  0.15428814995E+04  0.00000000000E+00 0. -1.
         25    2    1    2    0    0 -0.14607950056E+03  0.11386692254E+03 -0.13471386084E+02  0.22385668296E+03  0.12500175891E+03 0.  0.
          2    1    1    2  501    0  0.32802134971E+03 -0.17593030563E+02 -0.13982404248E+04  0.14363090915E+04  0.00000000000E+00 0. -1.
          1    1    1    2  502    0 -0.18194184915E+03 -0.96273891977E+02  0.15188130133E+04  0.15326984270E+04  0.00000000000E+00 0. -1.
         22    1    3    3    0    0  0.18132957850E+02  0.89583590857E+01  0.17255792219E+02  0.26586062570E+02  0.00000000000E+00 0.  1.
         22    1    3    3    0    0 -0.16421245841E+03  0.10490856345E+03 -0.30727178303E+02  0.19727062039E+03  0.00000000000E+00 0.  1.
</event>
<event>
 7    1  0.6508013E-006  0.1215297E+03  0.7818608E-02  0.1294992E+00
          2   -1    0    0  502    0  0.00000000000E+00  0.00000000000E+00  0.57533002901E+03  0.57533002901E+03  0.00000000000E+00 0. -1.
          1   -1    0    0  501    0 -0.00000000000E+00 -0.00000000000E+00 -0.30723325290E+04  0.30723325290E+04  0.00000000000E+00 0. -1.
         25    2    1    2    0    0  0.67621449233E+02  0.63014621915E+01 -0.33257074070E+03  0.36172194858E+03  0.12500840650E+03 0.  0.
          2    1    1    2  501    0 -0.11064589581E+03 -0.63617317443E+02 -0.27213945707E+04  0.27243858183E+04  0.00000000000E+00 0. -1.
          1    1    1    2  502    0  0.43024446579E+02  0.57315855252E+02  0.55696281137E+03  0.56155479120E+03  0.00000000000E+00 0. -1.
         22    1    3    3    0    0  0.38170726041E+02 -0.12346399455E+02 -0.32312611669E+03  0.32560701035E+03  0.00000000000E+00 0.  1.
         22    1    3    3    0    0  0.29450723192E+02  0.18647861646E+02 -0.94446240114E+01  0.36114938228E+02  0.00000000000E+00 0.  1.
</event>
<event>
 7    1  0.6508013E-006  0.1205063E+03  0.7818608E-02  0.1245309E+00
          2   -1    0    0  502    0  0.00000000000E+00  0.00000000000E+00  0.11524108810E+03  0.11524108810E+03  0.00000000000E+00 0. -1.
          1   -1    0    0  501    0 -0.00000000000E+00 -0.00000000000E+00 -0.14649374826E+04  0.14649374826E+04  0.00000000000E+00 0. -1.
         25    2    1    2    0    0  0.39045311765E+02  0.27127937607E+02 -0.68947716725E+03  0.70233291047E+03  0.12502916299E+03 0.  0.
          2    1    1    2  501    0 -0.66781085945E+02  0.95898425470E+02 -0.72618060004E+03  0.73552327313E+03  0.00000000000E+00 0. -1.
          1    1    1    2  502    0  0.27735774180E+02 -0.12302636308E+03  0.65961372754E+02  0.14232238713E+03  0.00000000000E+00 0. -1.
         22    1    3    3    0    0 -0.20974494319E+02  0.15421949687E+02 -0.28764396806E+02  0.38796346061E+02  0.00000000000E+00 0. -1.
         22    1    3    3    0    0  0.60019806084E+02  0.11705987920E+02 -0.66071277044E+03  0.66353656440E+03  0.00000000000E+00 0. -1.
</event>
<event>
 7    1  0.6508013E-006  0.6426715E+02  0.7818608E-02  0.1447497E+00
          2   -1    0    0  502    0  0.00000000000E+00  0.00000000000E+00  0.10898386251E+03  0.10898386251E+03  0.00000000000E+00 0. -1.
          1   -1    0    0  501    0 -0.00000000000E+00 -0.00000000000E+00 -0.40553987429E+03  0.40553987429E+03  0.00000000000E+00 0. -1.
         25    2    1    2    0    0 -0.29787974439E+02  0.23799221350E+02 -0.21220963494E+02  0.13239489011E+03  0.12499740508E+03 0.  0.
          2    1    1    2  501    0 -0.38010952623E+02  0.45654560151E+01 -0.30164759126E+03  0.30406733665E+03  0.00000000000E+00 0. -1.
          1    1    1    2  502    0  0.67798927062E+02 -0.28364677365E+02  0.26312542968E+02  0.78061510043E+02  0.00000000000E+00 0. -1.
         22    1    3    3    0    0 -0.75953183424E+02  0.80882861977E+01  0.58733959731E+01  0.76608114623E+02  0.00000000000E+00 0. -1.
         22    1    3    3    0    0  0.46165208984E+02  0.15710935153E+02 -0.27094359467E+02  0.55786775484E+02  0.00000000000E+00 0. -1.
</event>
<event>
 7    1  0.6508013E-006  0.1865037E+03  0.7818608E-02  0.1360250E+00
          2   -1    0    0  502    0  0.00000000000E+00  0.00000000000E+00  0.10559748365E+04  0.10559748365E+04  0.00000000000E+00 0. -1.
          1   -1    0    0  501    0 -0.00000000000E+00 -0.00000000000E+00 -0.25993468478E+03  0.25993468478E+03  0.00000000000E+00 0. -1.
         25    2    1    2    0    0 -0.11659393753E+03  0.15149096439E+03  0.15562993267E+03  0.27639020934E+03  0.12500885294E+03 0.  0.
          2    1    1    2  501    0 -0.15830143567E+02 -0.20924888886E+02 -0.18834077209E+03  0.19015964569E+03  0.00000000000E+00 0. -1.
          1    1    1    2  502    0  0.13242408110E+03 -0.13056607551E+03  0.82875099115E+03  0.84935966626E+03  0.00000000000E+00 0. -1.
         22    1    3    3    0    0 -0.10160627274E+03  0.12992030801E+03  0.57285998668E+02  0.17459898837E+03  0.00000000000E+00 0.  1.
         22    1    3    3    0    0 -0.14987664789E+02  0.21570656377E+02  0.98343933999E+02  0.10179122097E+03  0.00000000000E+00 0.  1.
</event>
<event>
 7    1  0.6508013E-006  0.9357595E+02  0.7818608E-02  0.1375350E+00
          2   -1    0    0  502    0  0.00000000000E+00  0.00000000000E+00  0.80642283461E+03  0.80642283461E+03  0.00000000000E+00 0. -1.
          1   -1    0    0  501    0 -0.00000000000E+00 -0.00000000000E+00 -0.91010740060E+03  0.91010740060E+03  0.00000000000E+00 0. -1.
         25    2    1    2    0    0 -0.63494565333E+02 -0.24284342169E+02  0.21306353956E+03  0.25620743243E+03  0.12499954976E+03 0.  0.
          2    1    1    2  501    0  0.93289908507E+02 -0.10933760994E+02 -0.88511599935E+03  0.89008588713E+03  0.00000000000E+00 0. -1.
          1    1    1    2  502    0 -0.29795343174E+02  0.35218103163E+02  0.56836789380E+03  0.57023691565E+03  0.00000000000E+00 0. -1.
         22    1    3    3    0    0 -0.58162072980E+02  0.11320333101E+02  0.21206958756E+03  0.22019193137E+03  0.00000000000E+00 0. -1.
         22    1    3    3    0    0 -0.53324923533E+01 -0.35604675270E+02  0.99395200458E+00  0.36015501057E+02  0.00000000000E+00 0. -1.
</event>
<event>
 7    1  0.6508013E-006  0.1156808E+03  0.7818608E-02  0.1272092E+00
          2   -1    0    0  502    0  0.00000000000E+00  0.00000000000E+00  0.12550923651E+03  0.12550923651E+03  0.00000000000E+00 0. -1.
          1   -1    0    0  501    0 -0.00000000000E+00 -0.00000000000E+00 -0.73016569833E+03  0.73016569833E+03  0.00000000000E+00 0. -1.
         25    2    1    2    0    0 -0.16889361652E+03 -0.59193768707E+01 -0.42142899407E+03  0.47094259083E+03  0.12499773635E+03 0.  0.
          2    1    1    2  501    0  0.70293204586E+02  0.61665291802E+02 -0.24033311523E+03  0.25788320826E+03  0.00000000000E+00 0. -1.
          1    1    1    2  502    0  0.98600411931E+02 -0.55745914932E+02  0.57105647482E+02  0.12684913574E+03  0.00000000000E+00 0. -1.
         22    1    3    3    0    0 -0.84029260267E+02  0.39942590724E+02 -0.10574227257E+03  0.14084656667E+03  0.00000000000E+00 0.  1.
         22    1    3    3    0    0 -0.84864356250E+02 -0.45861967595E+02 -0.31568672151E+03  0.33009602416E+03  0.00000000000E+00 0.  1.
</event>
<event>
 7    1  0.6508013E-006  0.6512825E+02  0.7818608E-02  0.1434883E+00
          2   -1    0    0  502    0  0.00000000000E+00  0.00000000000E+00  0.12352921647E+04  0.12352921647E+04  0.00000000000E+00 0. -1.
          1   -1    0    0  501    0 -0.00000000000E+00 -0.00000000000E+00 -0.77393333976E+02  0.77393333976E+02  0.00000000000E+00 0. -1.
         25    2    1    2    0    0 -0.44838123008E+02 -0.81494846394E+02  0.30002665894E+03  0.33807179578E+03  0.12499870305E+03 0.  0.
          2    1    1    2  501    0  0.37361695154E+02  0.18078346186E+02 -0.49726040682E+02  0.64771922833E+02  0.00000000000E+00 0. -1.
          1    1    1    2  502    0  0.74764278535E+01  0.63416500208E+02  0.90759821247E+03  0.90984178007E+03  0.00000000000E+00 0. -1.
         22    1    3    3    0    0  0.88006756567E+00 -0.58633067547E+02  0.27495494762E+03  0.28113846117E+03  0.00000000000E+00 0. -1.
         22    1    3    3    0    0 -0.45718190573E+02 -0.22861778847E+02  0.25071711320E+02  0.56933334610E+02  0.00000000000E+00 0. -1.
</event>
<event>
 7    1  0.6508013E-006  0.3772189E+02  0.7818608E-02  0.1616577E+00
          2   -1    0    0  502    0  0.00000000000E+00  0.00000000000E+00  0.48130740547E+03  0.48130740547E+03  0.00000000000E+00 0. -1.
          1   -1    0    0  501    0 -0.00000000000E+00 -0.00000000000E+00 -0.21295625206E+03  0.21295625206E+03  0.00000000000E+00 0. -1.
         25    2    1    2    0    0 -0.47044416085E+02  0.31152854895E+02 -0.11273899636E+03  0.17753573725E+03  0.12500071699E+03 0.  0.
          2    1    1    2  501    0  0.29811528191E+02 -0.18516401725E+02 -0.63004724770E+02  0.72119204718E+02  0.00000000000E+00 0. -1.
          1    1    1    2  502    0  0.17232887894E+02 -0.12636453170E+02  0.44409487453E+03  0.44460871557E+03  0.00000000000E+00 0. -1.
         22    1    3    3    0    0 -0.55456848917E+02  0.40787827479E+02 -0.13518341220E+03  0.15170255073E+03  0.00000000000E+00 0. -1.
         22    1    3    3    0    0  0.84124328315E+01 -0.96349725840E+01  0.22444415849E+02  0.25833186517E+02  0.00000000000E+00 0. -1.
</event>
<event>
 7    1  0.6508013E-006  0.6739426E+02  0.7818608E-02  0.1433548E+00
          2   -1    0    0  502    0  0.00000000000E+00  0.00000000000E+00  0.27560123780E+04  0.27560123780E+04  0.00000000000E+00 0. -1.
          1   -1    0    0  501    0 -0.00000000000E+00 -0.00000000000E+00 -0.82108657262E+01  0.82108657262E+01  0.00000000000E+00 0. -1.
         25    2    1    2    0    0  0.30771020182E+02 -0.84571948810E+02  0.13090245308E+04  0.13180552158E+04  0.12500023816E+03 0.  0.
          2    1    1    2  501    0  0.13899576031E+02  0.38056730249E+02  0.13880081205E+03  0.14459314768E+03  0.00000000000E+00 0. -1.
          1    1    1    2  502    0 -0.44670596213E+02  0.46515218562E+02  0.12999761695E+04  0.13015748803E+04  0.00000000000E+00 0. -1.
         22    1    3    3    0    0 -0.23066631024E+02 -0.90127471545E+02  0.10008020990E+04  0.10051168449E+04  0.00000000000E+00 0.  1.
         22    1    3    3    0    0  0.53837651206E+02  0.55555227343E+01  0.30822243174E+03  0.31293837085E+03  0.00000000000E+00 0.  1.
</event>
<event>
 7    1  0.6508013E-006  0.1525060E+03  0.7818608E-02  0.1354769E+00
          2   -1    0    0  502    0  0.00000000000E+00  0.00000000000E+00  0.17132398835E+04  0.17132398835E+04  0.00000000000E+00 0. -1.
          1   -1    0    0  501    0 -0.00000000000E+00 -0.00000000000E+00 -0.62025228546E+02  0.62025228546E+02  0.00000000000E+00 0. -1.
         25    2    1    2    0    0 -0.15696260839E+03  0.77405043964E+01  0.92998795167E+03  0.95142028565E+03  0.12500317539E+03 0.  0.
          2    1    1    2  501    0  0.15023782273E+03  0.25185751525E+02  0.63140843586E+02  0.16490146023E+03  0.00000000000E+00 0. -1.
          1    1    1    2  502    0  0.67247856598E+01 -0.32926255921E+02  0.65808585972E+03  0.65894336618E+03  0.00000000000E+00 0. -1.
         22    1    3    3    0    0 -0.15841612862E+03  0.43512877232E+02  0.73050145488E+03  0.74874656318E+03  0.00000000000E+00 0.  1.
         22    1    3    3    0    0  0.14535202298E+01 -0.35772372836E+02  0.19948649679E+03  0.20267372247E+03  0.00000000000E+00 0.  1.
</event>
<event>
 7    1  0.6508013E-006  0.3422015E+02  0.7818608E-02  0.1590880E+00
          2   -1    0    0  502    0  0.00000000000E+00  0.00000000000E+00  0.20615902041E+03  0.20615902041E+03  0.00000000000E+00 0. -1.
          1   -1    0    0  501    0 -0.00000000000E+00 -0.00000000000E+00 -0.72019486023E+03  0.72019486023E+03  0.00000000000E+00 0. -1.
         25    2    1    2    0    0  0.30324291141E+02 -0.49307928322E+02 -0.25069706332E+03  0.28605007819E+03  0.12499918098E+03 0.  0.
          2    1    1    2  501    0 -0.22196924609E+02  0.16190981186E+02 -0.44985644725E+03  0.45069465768E+03  0.00000000000E+00 0. -1.
          1    1    1    2  502    0 -0.81273665318E+01  0.33116947136E+02  0.18651767075E+03  0.18960914476E+03  0.00000000000E+00 0. -1.
         22    1    3    3    0    0  0.78537007389E+02 -0.39221734717E+02 -0.17414700577E+03  0.19502201317E+03  0.00000000000E+00 0. -1.
         22    1    3    3    0    0 -0.48212716248E+02 -0.10086193605E+02 -0.76550057556E+02  0.91028065020E+02  0.00000000000E+00 0. -1.
</event>
<event>
 7    1  0.6508013E-006  0.1249973E+03  0.7818608E-02  0.1317113E+00
          2   -1    0    0  502    0  0.00000000000E+00  0.00000000000E+00  0.16006749948E+04  0.16006749948E+04  0.00000000000E+00 0. -1.
          1   -1    0    0  501    0 -0.00000000000E+00 -0.00000000000E+00 -0.91100791608E+03  0.91100791608E+03  0.00000000000E+00 0. -1.
         25    2    1    2    0    0  0.15630082308E+03  0.49817677631E+02 -0.72817651649E+03  0.75682093837E+03  0.12500058116E+03 0.  0.
          2    1    1    2  501    0 -0.31432632652E+02 -0.47471774637E+02 -0.16116289856E+03  0.17092413421E+03  0.00000000000E+00 0. -1.
          1    1    1    2  502    0 -0.12486819043E+03 -0.23459029933E+01  0.15790064937E+04  0.15839378383E+04  0.00000000000E+00 0. -1.
         22    1    3    3    0    0 -0.11346957275E+02  0.25982524191E+02 -0.46797779864E+02  0.54716333968E+02  0.00000000000E+00 0.  1.
         22    1    3    3    0    0  0.16764778036E+03  0.23835153439E+02 -0.68137873662E+03  0.70210460440E+03  0.00000000000E+00 0.  1.
</event>
<event>
 7    1  0.6508013E-006  0.3829166E+03  0.7818608E-02  0.1134439E+00
          2   -1    0    0  502    0  0.00000000000E+00  0.00000000000E+00  0.12032451749E+04  0.12032451749E+04  0.00000000000E+00 0. -1.
          1   -1    0    0  501    0 -0.00000000000E+00 -0.00000000000E+00 -0.88977275002E+03  0.88977275002E+03  0.00000000000E+00 0. -1.
         25    2    1    2    0    0 -0.20764872660E+03 -0.23641473966E+03 -0.24978503429E+03  0.42074597568E+03  0.12499875965E+03 0.  0.
          2    1    1    2  501    0 -0.12263195212E+03  0.26888519407E+02 -0.51247978048E+03  0.52763350306E+03  0.00000000000E+00 0. -1.
          1    1    1    2  502    0  0.33028067872E+03  0.20952622025E+03  0.10757372397E+04  0.11446384462E+04  0.00000000000E+00 0. -1.
         22    1    3    3    0    0 -0.14222974602E+03 -0.23153839039E+03 -0.18636367316E+03  0.32950075197E+03  0.00000000000E+00 0.  1.
         22    1    3    3    0    0 -0.65418980580E+02 -0.48763492668E+01 -0.63421361130E+02  0.91245223710E+02  0.00000000000E+00 0.  1.
</event>
<event>
 7    1  0.6508013E-006  0.1233807E+03  0.7818608E-02  0.1337793E+00
          2   -1    0    0  502    0  0.00000000000E+00  0.00000000000E+00  0.80087667694E+03  0.80087667694E+03  0.00000000000E+00 0. -1.
          1   -1    0    0  501    0 -0.00000000000E+00 -0.00000000000E+00 -0.84208392545E+03  0.84208392545E+03  0.00000000000E+00 0. -1.
         25    2    1    2    0    0  0.13814246207E+03 -0.97171724109E+02 -0.64742974191E+02  0.21986762258E+03  0.12499773982E+03 0.  0.
          2    1    1    2  501    0 -0.34227212742E+02  0.33726866858E+02 -0.69381822926E+03  0.69548022179E+03  0.00000000000E+00 0. -1.
          1    1    1    2  502    0 -0.10391524932E+03  0.63444857251E+02  0.71735395495E+03  0.72761275802E+03  0.00000000000E+00 0. -1.
         22    1    3    3    0    0  0.21090717941E+02 -0.32830163390E+01  0.34067637589E+02  0.40201996349E+02  0.00000000000E+00 0. -1.
         22    1    3    3    0    0  0.11705174413E+03 -0.93888707770E+02 -0.98810611780E+02  0.17966562623E+03  0.00000000000E+00 0. -1.
</event>
<event>
 7    1  0.6508013E-006  0.6351314E+02  0.7818608E-02  0.1442699E+00
          2   -1    0    0  502    0  0.00000000000E+00  0.00000000000E+00  0.16387305079E+04  0.16387305079E+04  0.00000000000E+00 0. -1.
          1   -1    0    0  501    0 -0.00000000000E+00 -0.00000000000E+00 -0.13363626494E+04  0.13363626494E+04  0.00000000000E+00 0. -1.
         25    2    1    2    0    0 -0.34278954307E+02 -0.83916548665E+02  0.39435125707E+03  0.42350328435E+03  0.12500033624E+03 0.  0.
          2    1    1    2  501    0  0.44633610226E+02  0.45132704532E+02 -0.13206966103E+04  0.13222211073E+04  0.00000000000E+00 0. -1.
          1    1    1    2  502    0 -0.10354655919E+02  0.38783844132E+02  0.12287132117E+04  0.12293687657E+04  0.00000000000E+00 0. -1.
         22    1    3    3    0    0 -0.50391523743E+02 -0.10815154748E+03  0.35531225015E+03  0.37481042941E+03  0.00000000000E+00 0.  1.
         22    1    3    3    0    0  0.16112569436E+02  0.24234998819E+02  0.39039006914E+02  0.48692854942E+02  0.00000000000E+00 0.  1.
</event>
<event>
 7    1  0.6508013E-006  0.6603712E+02  0.7818608E-02  0.1391294E+00
          2   -1    0    0  502    0  0.00000000000E+00  0.00000000000E+00  0.24145948953E+03  0.24145948953E+03  0.00000000000E+00 0. -1.
          1   -1    0    0  501    0 -0.00000000000E+00 -0.00000000000E+00 -0.16822438235E+03  0.16822438235E+03  0.00000000000E+00 0. -1.
         25    2    1    2    0    0 -0.54609799998E+02  0.39584475218E+02  0.14110863134E+02  0.14273261471E+03  0.12499728761E+03 0.  0.
          2    1    1    2  501    0 -0.11800408099E+02 -0.56209618626E+02 -0.87767440842E+02  0.10488991624E+03  0.00000000000E+00 0. -1.
          1    1    1    2  502    0  0.66410208097E+02  0.16625143408E+02  0.14689168489E+03  0.16206134093E+03  0.00000000000E+00 0. -1.
         22    1    3    3    0    0 -0.79434641317E+02  0.24617204749E+02 -0.31301148854E+02  0.88857362838E+02  0.00000000000E+00 0.  1.
         22    1    3    3    0    0  0.24824841320E+02  0.14967270469E+02  0.45412011988E+02  0.53875251875E+02  0.00000000000E+00 0.  1.
</event>
<event>
 7    1  0.6508013E-006  0.2569402E+03  0.7818608E-02  0.1309904E+00
          2   -1    0    0  502    0  0.00000000000E+00  0.00000000000E+00  0.67415061122E+03  0.67415061122E+03  0.00000000000E+00 0. -1.
          1   -1    0    0  501    0 -0.00000000000E+00 -0.00000000000E+00 -0.91404496081E+03  0.91404496081E+03  0.00000000000E+00 0. -1.
         25    2    1    2    0    0 -0.80680229286E+01  0.28411974354E+03 -0.30855751951E+03  0.43774699584E+03  0.12500227140E+03 0.  0.
          2    1    1    2  501    0 -0.32517433133E+01 -0.29380445649E+02 -0.51378222577E+03  0.51463186837E+03  0.00000000000E+00 0. -1.
          1    1    1    2  502    0  0.11319766242E+02 -0.25473929789E+03  0.58244539569E+03  0.63581670783E+03  0.00000000000E+00 0. -1.
         22    1    3    3    0    0 -0.11361016726E+02  0.11007223551E+02 -0.80153915882E+02  0.81699950444E+02  0.00000000000E+00 0.  1.
         22    1    3    3    0    0  0.32929937971E+01  0.27311251999E+03 -0.22840360363E+03  0.35604704539E+03  0.00000000000E+00 0.  1.
</event>
<event>
 7    1  0.6508013E-006  0.9376224E+02  0.7818608E-02  0.1328232E+00
          2   -1    0    0  502    0  0.00000000000E+00  0.00000000000E+00  0.13829376261E+04  0.13829376261E+04  0.00000000000E+00 0. -1.
          1   -1    0    0  501    0 -0.00000000000E+00 -0.00000000000E+00 -0.38577301270E+03  0.38577301270E+03  0.00000000000E+00 0. -1.
         25    2    1    2    0    0 -0.25270775064E+02 -0.12566244054E+03 -0.31079914309E+03  0.35867920798E+03  0.12500002343E+03 0.  0.
          2    1    1    2  501    0 -0.38456917121E+02  0.56991255435E+02 -0.25463854154E+02  0.73316748011E+02  0.00000000000E+00 0. -1.
          1    1    1    2  502    0  0.63727692185E+02  0.68671185104E+02  0.13334276106E+04  0.13367146828E+04  0.00000000000E+00 0. -1.
         22    1    3    3    0    0 -0.11961848889E+02 -0.12718621834E+02  0.87258732136E+01  0.19518965996E+02  0.00000000000E+00 0. -1.
         22    1    3    3    0    0 -0.13308926174E+02 -0.11294381870E+03 -0.31952501630E+03  0.33916024199E+03  0.00000000000E+00 0. -1.
</event>
<event>
 7    1  0.6508013E-006  0.1075364E+03  0.7818608E-02  0.1373343E+00
          2   -1    0    0  502    0  0.00000000000E+00  0.00000000000E+00  0.22159277765E+04  0.22159277765E+04  0.00000000000E+00 0. -1.
          1   -1    0    0  501    0 -0.00000000000E+00 -0.00000000000E+00 -0.13690071368E+04  0.13690071368E+04  0.00000000000E+00 0. -1.
         25    2    1    2    0    0 -0.26596442923E+02  0.14104588267E+03 -0.19279207257E+03  0.27091380510E+03  0.12499677897E+03 0.  0.
          2    1    1    2  501    0  0.72884844952E+01 -0.10509198171E+03 -0.11345225611E+04  0.11394028648E+04  0.00000000000E+00 0. -1.
          1    1    1    2  502    0  0.19307958428E+02 -0.35953900961E+02  0.21742352734E+04  0.21746182434E+04  0.00000000000E+00 0. -1.
         22    1    3    3    0    0 -0.61000928958E+02  0.14160389971E+03 -0.17069370098E+03  0.23001981937E+03  0.00000000000E+00 0. -1.
         22    1    3    3    0    0  0.34404486035E+02 -0.55801703424E+00 -0.22098371582E+02  0.40893985730E+02  0.00000000000E+00 0. -1.
</event>
<event>
 7    1  0.6508013E-006  0.8018313E+02  0.7818608E-02  0.1350661E+00
          2   -1    0    0  502    0  0.00000000000E+00  0.00000000000E+00  0.74561639194E+03  0.74561639194E+03  0.00000000000E+00 0. -1.
          1   -1    0    0  501    0 -0.00000000000E+00 -0.00000000000E+00 -0.13581784139E+03  0.13581784139E+03  0.00000000000E+00 0. -1.
         25    2    1    2    0    0  0.50154593565E+02 -0.34916946714E+02  0.15629297531E+03  0.20925454228E+03  0.12500117164E+03 0.  0.
          2    1    1    2  501    0  0.31756379973E+02  0.58071889460E+02 -0.95732227758E+02  0.11638501384E+03  0.00000000000E+00 0. -1.
          1    1    1    2  502    0 -0.81910973538E+02 -0.23154942747E+02  0.54923780300E+03  0.55579467720E+03  0.00000000000E+00 0. -1.
         22    1    3    3    0    0  0.19603989963E+02  0.32376902949E+02  0.12208495020E+03  0.12781750793E+03  0.00000000000E+00 0.  1.
         22    1    3    3    0    0  0.30550603602E+02 -0.67293849663E+02  0.34208025104E+02  0.81437034354E+02  0.00000000000E+00 0.  1.
</event>
<event>
 7    1  0.6508013E-006  0.1176145E+03  0.7818608E-02  0.1267734E+00
          2   -1    0    0  502    0  0.00000000000E+00  0.00000000000E+00  0.36548513641E+02  0.36548513641E+02  0.00000000000E+00 0. -1.
          1   -1    0    0  501    0 -0.00000000000E+00 -0.00000000000E+00 -0.23964922988E+04  0.23964922988E+04  0.00000000000E+00 0. -1.
         25    2    1    2    0    0 -0.11116505830E+03  0.14361811878E+03 -0.12671260784E+04  0.12861639384E+04  0.12500137399E+03 0.  0.
          2    1    1    2  501    0  0.25908247605E+02 -0.99643210082E+02 -0.10231534079E+04  0.10283204280E+04  0.00000000000E+00 0. -1.
          1    1    1    2  502    0  0.85256810692E+02 -0.43974908694E+02 -0.69664298808E+02  0.11855644602E+03  0.00000000000E+00 0. -1.
         22    1    3    3    0    0 -0.13140775392E+03  0.80319644201E+02 -0.89014288296E+03  0.90336791792E+03  0.00000000000E+00 0.  1.
         22    1    3    3    0    0  0.20242695619E+02  0.63298474575E+02 -0.37698319547E+03  0.38279602046E+03  0.00000000000E+00 0.  1.
</event>
<event>
 7    1  0.6508013E-006  0.4888295E+02  0.7818608E-02  0.1510655E+00
          2   -1    0    0  502    0  0.00000000000E+00  0.00000000000E+00  0.67919177081E+02  0.67919177081E+02  0.00000000000E+00 0. -1.
          1   -1    0    0  501    0 -0.00000000000E+00 -0.00000000000E+00 -0.26105966672E+03  0.26105966672E+03  0.00000000000E+00 0. -1.
         25    2    1    2    0    0  0.67804156963E+02  0.30867869941E+02 -0.63108490069E+02  0.15861184131E+03  0.12499922235E+03 0.  0.
          2    1    1    2  501    0 -0.31078261024E+02 -0.83988563520E+01 -0.12249942137E+03  0.12665901994E+03  0.00000000000E+00 0. -1.
          1    1    1    2  502    0 -0.36725895939E+02 -0.22469013589E+02 -0.75325781975E+01  0.43707982549E+02  0.00000000000E+00 0. -1.
         22    1    3    3    0    0  0.21703448754E+02 -0.39499300753E+02 -0.59191770809E+02  0.74396909743E+02  0.00000000000E+00 0. -1.
         22    1    3    3    0    0  0.46100708209E+02  0.70367170694E+02 -0.39167192597E+01  0.84214931566E+02  0.00000000000E+00 0. -1.
</event>
<event>
 7    1  0.6508013E-006  0.1060418E+03  0.7818608E-02  0.1431179E+00
          2   -1    0    0  502    0  0.00000000000E+00  0.00000000000E+00  0.15640180138E+04  0.15640180138E+04  0.00000000000E+00 0. -1.
          1   -1    0    0  501    0 -0.00000000000E+00 -0.00000000000E+00 -0.37792344513E+03  0.37792344513E+03  0.00000000000E+00 0. -1.
         25    2    1    2    0    0  0.11678520518E+03  0.50192051142E+02  0.29395250520E+03  0.34378911523E+03  0.12499941715E+03 0.  0.
          2    1    1    2  501    0 -0.17011012521E+02 -0.19945621844E+02 -0.35033215266E+03  0.35131157049E+03  0.00000000000E+00 0. -1.
          1    1    1    2  502    0 -0.99774192662E+02 -0.30246429297E+02  0.12424742161E+04  0.12468407732E+04  0.00000000000E+00 0. -1.
         22    1    3    3    0    0  0.45726767948E+02  0.26007248021E+02  0.14694310008E+02  0.54619016864E+02  0.00000000000E+00 0.  1.
         22    1    3    3    0    0  0.71058437236E+02  0.24184803121E+02  0.27925819520E+03  0.28917009837E+03  0.00000000000E+00 0.  1.
</event>
<event>
 7    1  0.6508013E-006  0.5169160E+02  0.7818608E-02  0.1550645E+00
          2   -1    0    0  502    0  0.00000000000E+00  0.00000000000E+00  0.11986067225E+04  0.11986067225E+04  0.00000000000E+00 0. -1.
          1   -1    0    0  501    0 -0.00000000000E+00 -0.00000000000E+00 -0.39429753108E+03  0.39429753108E+03  0.00000000000E+00 0. -1.
         25    2    1    2    0    0  0.49856927138E+02  0.10479708204E+02 -0.45876045006E+01  0.13506562356E+03  0.12500455626E+03 0.  0.
          2    1    1    2  501    0 -0.91876432899E+01  0.21508849274E+02 -0.32345788556E+03  0.32430240072E+03  0.00000000000E+00 0. -1.
          1    1    1    2  502    0 -0.40669283848E+02 -0.31988557478E+02  0.11323546815E+04  0.11335362293E+04  0.00000000000E+00 0. -1.
         22    1    3    3    0    0  0.83345176619E+02 -0.41207950807E+01  0.26015899634E+02  0.87408388908E+02  0.00000000000E+00 0. -1.
         22    1    3    3    0    0 -0.33488249481E+02  0.14600503285E+02 -0.30603504135E+02  0.47657234653E+02  0.00000000000E+00 0. -1.
</event>
<event>
 7    1  0.6508013E-006  0.1733940E+03  0.7818608E-02  0.1324523E+00
          2   -1    0    0  502    0  0.00000000000E+00  0.00000000000E+00  0.61621101930E+03  0.61621101930E+03  0.00000000000E+00 0. -1.
          1   -1    0    0  501    0 -0.00000000000E+00 -0.00000000000E+00 -0.95207308462E+03  0.95207308462E+03  0.00000000000E+00 0. -1.
         25    2    1    2    0    0  0.15056259872E+03  0.69020446718E+02  0.43870541233E+03  0.48530398400E+03  0.12499839948E+03 0.  0.
          2    1    1    2  501    0 -0.13799920505E+03 -0.10532603685E+03 -0.91811350164E+03  0.93438201852E+03  0.00000000000E+00 0. -1.
          1    1    1    2  502    0 -0.12563393675E+02  0.36305590135E+02  0.14354602400E+03  0.14859810141E+03  0.00000000000E+00 0. -1.
         22    1    3    3    0    0  0.15952944667E+03  0.38516392337E+02  0.28980346472E+03  0.33304534976E+03  0.00000000000E+00 0.  1.
         22    1    3    3    0    0 -0.89668479502E+01  0.30504054382E+02  0.14890194762E+03  0.15225863424E+03  0.00000000000E+00 0.  1.
</event>
<event>
 7    1  0.6508013E-006  0.7969093E+02  0.7818608E-02  0.1364640E+00
          2   -1    0    0  502    0  0.00000000000E+00  0.00000000000E+00  0.21544385092E+04  0.21544385092E+04  0.00000000000E+00 0. -1.
          1   -1    0    0  501    0 -0.00000000000E+00 -0.00000000000E+00 -0.20290906618E+03  0.20290906618E+03  0.00000000000E+00 0. -1.
         25    2    1    2    0    0  0.23869716985E+02 -0.15452107162E+02  0.11122316843E+03  0.16971526111E+03  0.12499658256E+03 0.  0.
          2    1    1    2  501    0  0.57378243939E+02  0.14535108734E+02 -0.16777386456E+03  0.17790897080E+03  0.00000000000E+00 0. -1.
          1    1    1    2  502    0 -0.81247960924E+02  0.91699842879E+00  0.20080801391E+04  0.20097233434E+04  0.00000000000E+00 0. -1.
         22    1    3    3    0    0 -0.28943972999E+02 -0.39837296121E+02  0.98567362422E+02  0.11018297813E+03  0.00000000000E+00 0. -1.
         22    1    3    3    0    0  0.52813689984E+02  0.24385188959E+02  0.12655806008E+02  0.59532282973E+02  0.00000000000E+00 0. -1.
</event>
<event>
 7    1  0.6508013E-006  0.5183310E+02  0.7818608E-02  0.1468911E+00
          2   -1    0    0  502    0  0.00000000000E+00  0.00000000000E+00  0.80338007407E+03  0.80338007407E+03  0.00000000000E+00 0. -1.
          1   -1    0    0  501    0 -0.00000000000E+00 -0.00000000000E+00 -0.12518212848E+03  0.12518212848E+03  0.00000000000E+00 0. -1.
         25    2    1    2    0    0  0.18844043483E+02 -0.74999962087E+01  0.19322398173E+03  0.23102348583E+03  0.12499998389E+03 0.  0.
          2    1    1    2  501    0 -0.49345869342E+02 -0.19316199201E+02 -0.98927516654E+02  0.11222648495E+03  0.00000000000E+00 0. -1.
          1    1    1    2  502    0  0.30501825859E+02  0.26816195410E+02  0.58390148051E+03  0.58531223177E+03  0.00000000000E+00 0. -1.
         22    1    3    3    0    0 -0.35088527487E+02 -0.16168823641E+02  0.16514589718E+03  0.16960484361E+03  0.00000000000E+00 0. -1.
         22    1    3    3    0    0  0.53932570971E+02  0.86688274328E+01  0.28078084549E+02  0.61418642223E+02  0.00000000000E+00 0. -1.
</event>
<event>
 7    1  0.6508013E-006  0.1532728E+03  0.7818608E-02  0.1211087E+00
          2   -1    0    0  502    0  0.00000000000E+00  0.00000000000E+00  0.12493909188E+04  0.12493909188E+04  0.00000000000E+00 0. -1.
          1   -1    0    0  501    0 -0.00000000000E+00 -0.00000000000E+00 -0.48503561672E+03  0.48503561672E+03  0.00000000000E+00 0. -1.
         25    2    1    2    0    0 -0.14894605288E+03  0.28824025551E+02  0.36394815563E+03  0.41364082602E+03  0.12499888736E+03 0.  0.
          2    1    1    2  501    0  0.74119586620E+02 -0.13630555564E+03 -0.44190602616E+03  0.46835227508E+03  0.00000000000E+00 0. -1.
          1    1    1    2  502    0  0.74826466263E+02  0.10748153009E+03  0.84231317263E+03  0.85243343444E+03  0.00000000000E+00 0. -1.
         22    1    3    3    0    0 -0.32029646081E+01 -0.19887188273E+02  0.14357338583E+03  0.14497957221E+03  0.00000000000E+00 0.  1.
         22    1    3    3    0    0 -0.14574308827E+03  0.48711213824E+02  0.22037476981E+03  0.26866125381E+03  0.00000000000E+00 0.  1.
</event>
<event>
 7    1  0.6508013E-006  0.6376609E+02  0.7818608E-02  0.1468484E+00
          2   -1    0    0  502    0  0.00000000000E+00  0.00000000000E+00  0.53372558178E+03  0.53372558178E+03  0.00000000000E+00 0. -1.
          1   -1    0    0  501    0 -0.00000000000E+00 -0.00000000000E+00 -0.60424856346E+03  0.60424856346E+03  0.00000000000E+00 0. -1.
         25    2    1    2    0    0 -0.49257103499E+02  0.14845761219E+02  0.11029648491E+03  0.17446023338E+03  0.12499759828E+03 0.  0.
          2    1    1    2  501    0 -0.14370566800E+02 -0.29833941110E+02 -0.56895214001E+03  0.56991500670E+03  0.00000000000E+00 0. -1.
          1    1    1    2  502    0  0.63627670299E+02  0.14988179891E+02  0.38813267342E+03  0.39359890516E+03  0.00000000000E+00 0. -1.
         22    1    3    3    0    0 -0.63599679916E+02  0.60218142140E+02  0.71369046885E+02  0.11298090450E+03  0.00000000000E+00 0.  1.
         22    1    3    3    0    0  0.14342576417E+02 -0.45372380921E+02  0.38927438029E+02  0.61479328886E+02  0.00000000000E+00 0.  1.
</event>
<event>
 7    1  0.6508013E-006  0.9040397E+02  0.7818608E-02  0.1384114E+00
          2   -1    0    0  502    0  0.00000000000E+00  0.00000000000E+00  0.51370224663E+03  0.51370224663E+03  0.00000000000E+00 0. -1.
          1   -1    0    0  501    0 -0.00000000000E+00 -0.00000000000E+00 -0.51336533141E+03  0.51336533141E+03  0.00000000000E+00 0. -1.
         25    2    1    2    0    0 -0.10521020077E+03 -0.49276423799E+02  0.84795618475E+02  0.19055583400E+03  0.12499550660E+03 0.  0.
          2    1    1    2  501    0  0.42482236112E+02 -0.13095120871E+02 -0.45418253781E+03  0.45635293384E+03  0.00000000000E+00 0. -1.
          1    1    1    2  502    0  0.62727964656E+02  0.62371544670E+02  0.36972383455E+03  0.38015881020E+03  0.00000000000E+00 0. -1.
         22    1    3    3    0    0 -0.63891713328E+02  0.96949205555E+01  0.97961056158E+02  0.11735634214E+03  0.00000000000E+00 0. -1.
         22    1    3    3    0    0 -0.41318487441E+02 -0.58971344354E+02 -0.13165437683E+02  0.73199491861E+02  0.00000000000E+00 0. -1.
</event>
<event>
 7    1  0.6508013E-006  0.2014733E+03  0.7818608E-02  0.1221568E+00
          2   -1    0    0  502    0  0.00000000000E+00  0.00000000000E+00  0.29476149391E+03  0.29476149391E+03  0.00000000000E+00 0. -1.
          1   -1    0    0  501    0 -0.00000000000E+00 -0.00000000000E+00 -0.18884325145E+04  0.18884325145E+04  0.00000000000E+00 0. -1.
         25    2    1    2    0    0  0.25505307297E+02 -0.14349904374E+03 -0.29401255488E+03  0.35115489925E+03  0.12499553828E+03 0.  0.
          2    1    1    2  501    0  0.81094561845E+02 -0.37125486122E+02 -0.15230274499E+04  0.15256366680E+04  0.00000000000E+00 0. -1.
          1    1    1    2  502    0 -0.10659986914E+03  0.18062452986E+03  0.22336898414E+03  0.30640244118E+03  0.00000000000E+00 0. -1.
         22    1    3    3    0    0  0.73489704363E+02 -0.69210082132E+02 -0.18529060858E+03  0.21100564387E+03  0.00000000000E+00 0. -1.
         22    1    3    3    0    0 -0.47984397066E+02 -0.74288961606E+02 -0.10872194630E+03  0.14014925538E+03  0.00000000000E+00 0. -1.
</event>
<event>
 7    1  0.6508013E-006  0.9102907E+02  0.7818608E-02  0.1458803E+00
          2   -1    0    0  502    0  0.00000000000E+00  0.00000000000E+00  0.39932714680E+02  0.39932714680E+02  0.00000000000E+00 0. -1.
          1   -1    0    0  501    0 -0.00000000000E+00 -0.00000000000E+00 -0.13411973789E+04  0.13411973789E+04  0.00000000000E+00 0. -1.
         25    2    1    2    0    0 -0.30788906056E+01 -0.95386998096E+02 -0.27966207681E+03  0.32084976718E+03  0.12500214765E+03 0.  0.
          2    1    1    2  501    0  0.23731938323E+02  0.74637070697E+01 -0.93441641954E+03  0.93474753646E+03  0.00000000000E+00 0. -1.
          1    1    1    2  502    0 -0.20653047717E+02  0.87923291026E+02 -0.87186167906E+02  0.12553278998E+03  0.00000000000E+00 0. -1.
         22    1    3    3    0    0 -0.50829872052E+02 -0.34737145160E+02 -0.52434127538E+02  0.80868305766E+02  0.00000000000E+00 0. -1.
         22    1    3    3    0    0  0.47750981447E+02 -0.60649852936E+02 -0.22722794927E+03  0.23998146141E+03  0.00000000000E+00 0. -1.
</event>
<event>
 7    1  0.6508013E-006  0.6959810E+02  0.7818608E-02  0.1392156E+00
          2   -1    0    0  502    0  0.00000000000E+00  0.00000000000E+00  0.74214526817E+02  0.74214526817E+02  0.00000000000E+00 0. -1.
          1   -1    0    0  501    0 -0.00000000000E+00 -0.00000000000E+00 -0.94570780396E+03  0.94570780396E+03  0.00000000000E+00 0. -1.
         25    2    1    2    0    0  0.90868553663E+02 -0.63377179712E+02 -0.19138328043E+03  0.25402022690E+03  0.12499981877E+03 0.  0.
          2    1    1    2  501    0 -0.37153557519E+02  0.56758483223E+02 -0.70362895417E+03  0.70689151742E+03  0.00000000000E+00 0. -1.
          1    1    1    2  502    0 -0.53714996144E+02  0.66186964883E+01  0.23518957460E+02  0.59010586456E+02  0.00000000000E+00 0. -1.
         22    1    3    3    0    0 -0.16971385023E+02  0.20312555824E+02 -0.55111136388E+02  0.61138082957E+02  0.00000000000E+00 0.  1.
         22    1    3    3    0    0  0.10783993869E+03 -0.83689735535E+02 -0.13627214404E+03  0.19288214394E+03  0.00000000000E+00 0.  1.
</event>
<event>
 7    1  0.6508013E-006  0.1037074E+03  0.7818608E-02  0.1332463E+00
          2   -1    0    0  502    0  0.00000000000E+00  0.00000000000E+00  0.26590037077E+03  0.26590037077E+03  0.00000000000E+00 0. -1.
          1   -1    0    0  501    0 -0.00000000000E+00 -0.00000000000E+00 -0.17071120630E+03  0.17071120630E+03  0.00000000000E+00 0. -1.
         25    2    1    2    0    0  0.58819667277E+02  0.39084594536E+02  0.39357628917E+02  0.14886530109E+03  0.12499798449E+03 0.  0.
          2    1    1    2  501    0 -0.61210625232E+02 -0.98926545192E+02 -0.78722940825E+02  0.14046531030E+03  0.00000000000E+00 0. -1.
          1    1    1    2  502    0  0.23909579552E+01  0.59841950655E+02  0.13455447638E+03  0.14728096568E+03  0.00000000000E+00 0. -1.
         22    1    3    3    0    0  0.24553420268E+02  0.34924863903E+02 -0.42369303467E+02  0.60147937968E+02  0.00000000000E+00 0.  1.
         22    1    3    3    0    0  0.34266247009E+02  0.41597306332E+01  0.81726932384E+02  0.88717363126E+02  0.00000000000E+00 0.  1.
</event>
<event>
 7    1  0.6508013E-006  0.8813114E+02  0.7818608E-02  0.1331657E+00
          2   -1    0    0  502    0  0.00000000000E+00  0.00000000000E+00  0.10095507951E+04  0.10095507951E+04  0.00000000000E+00 0. -1.
          1   -1    0    0  501    0 -0.00000000000E+00 -0.00000000000E+00 -0.55373948098E+03  0.55373948098E+03  0.00000000000E+00 0. -1.
         25    2    1    2    0    0  0.11362158936E+03 -0.10660813666E+03  0.85663106586E+02  0.21734424938E+03  0.12500077815E+03 0.  0.
          2    1    1    2  501    0 -0.44969112395E+02  0.54910453547E+02 -0.48314783362E+03  0.48833309135E+03  0.00000000000E+00 0. -1.
          1    1    1    2  502    0 -0.68652476965E+02  0.51697683115E+02  0.85329604119E+03  0.85761293539E+03  0.00000000000E+00 0. -1.
         22    1    3    3    0    0  0.11210593110E+03 -0.21693708072E+02  0.40505753788E+02  0.12115722367E+03  0.00000000000E+00 0.  1.
         22    1    3    3    0    0  0.15156582566E+01 -0.84914428590E+02  0.45157352798E+02  0.96187025708E+02  0.00000000000E+00 0.  1.
</event>
<event>
 7    1  0.6508013E-006  0.9739918E+02  0.7818608E-02  0.1467524E+00
          2   -1    0    0  502    0  0.00000000000E+00  0.00000000000E+00  0.75035483293E+03  0.75035483293E+03  0.00000000000E+00 0. -1.
          1   -1    0    0  501    0 -0.00000000000E+00 -0.00000000000E+00 -0.26385296769E+03  0.26385296769E+03  0.00000000000E+00 0. -1.
         25    2    1    2    0    0  0.32130579735E+02  0.74743801740E+02  0.13994460533E+03  0.20452043325E+03  0.12500042000E+03 0.  0.
          2    1    1    2  501    0  0.18996450709E+02  0.10755119538E+02 -0.22674546424E+03  0.22779386139E+03  0.00000000000E+00 0. -1.
          1    1    1    2  502    0 -0.51127030444E+02 -0.85498921278E+02  0.57330272415E+03  0.58189350598E+03  0.00000000000E+00 0. -1.
         22    1    3    3    0    0  0.25125022008E+02 -0.91454347368E+01  0.11301780559E+03  0.11613754814E+03  0.00000000000E+00 0.  1.
         22    1    3    3    0    0  0.70055577275E+01  0.83889236477E+02  0.26926799743E+02  0.88382885109E+02  0.00000000000E+00 0.  1.
</event>
<event>
 7    1  0.6508013E-006  0.7263679E+02  0.7818608E-02  0.1449366E+00
          2   -1    0    0  502    0  0.00000000000E+00  0.00000000000E+00  0.27772635230E+03  0.27772635230E+03  0.00000000000E+00 0. -1.
          1   -1    0    0  501    0 -0.00000000000E+00 -0.00000000000E+00 -0.88013187383E+03  0.88013187383E+03  0.00000000000E+00 0. -1.
         25    2    1    2    0    0  0.85672233284E+02  0.66974845131E+01 -0.41530600377E+03  0.44214060622E+03  0.12499860417E+03 0.  0.
          2    1    1    2  501    0 -0.16622320433E+02 -0.28980010406E+02 -0.44579231030E+03  0.44704242132E+03  0.00000000000E+00 0. -1.
          1    1    1    2  502    0 -0.69049912851E+02  0.22282525893E+02  0.25869279254E+03  0.26867519859E+03  0.00000000000E+00 0. -1.
         22    1    3    3    0    0  0.72147698453E+02  0.19587414197E+02 -0.41674937480E+03  0.42340169885E+03  0.00000000000E+00 0. -1.
         22    1    3    3    0    0  0.13524534831E+02 -0.12889929684E+02  0.14433710297E+01  0.18738907375E+02  0.00000000000E+00 0. -1.
</event>
<event>
 7    1  0.6508013E-006  0.3224001E+03  0.7818608E-02  0.1263665E+00
          2   -1    0    0  502    0  0.00000000000E+00  0.00000000000E+00  0.61027297952E+03  0.61027297952E+03  0.00000000000E+00 0. -1.
          1   -1    0    0  501    0 -0.00000000000E+00 -0.00000000000E+00 -0.23718331162E+04  0.23718331162E+04  0.00000000000E+00 0. -1.
         25    2    1    2    0    0 -0.25586553067E+03  0.13412132880E+03 -0.36816219072E+02  0.31691664951E+03  0.12500011251E+03 0.  0.
          2    1    1    2  501    0  0.28763529007E+03 -0.15190885294E+03 -0.21821878536E+04  0.22062987532E+04  0.00000000000E+00 0. -1.
          1    1    1    2  502    0 -0.31769759405E+02  0.17787524138E+02  0.45744393598E+03  0.45889069308E+03  0.00000000000E+00 0. -1.
         22    1    3    3    0    0 -0.15320379845E+02 -0.21441722596E+02  0.66364828800E+01  0.27175437651E+02  0.00000000000E+00 0.  1.
         22    1    3    3    0    0 -0.24054515082E+03  0.15556305139E+03 -0.43452701952E+02  0.28974121186E+03  0.00000000000E+00 0.  1.
</event>
<event>
 7    1  0.6508013E-006  0.1090225E+03  0.7818608E-02  0.1399971E+00
          2   -1    0    0  502    0  0.00000000000E+00  0.00000000000E+00  0.18580647344E+04  0.18580647344E+04  0.00000000000E+00 0. -1.
          1   -1    0    0  501    0 -0.00000000000E+00 -0.00000000000E+00 -0.78138936697E+03  0.78138936697E+03  0.00000000000E+00 0. -1.
         25    2    1    2    0    0 -0.79026476106E+02 -0.11298297182E+03  0.12439699188E+04  0.12578151303E+04  0.12500962861E+03 0.  0.
          2    1    1    2  501    0  0.72684977781E+02  0.81143040627E+02 -0.77019706868E+03  0.77786298514E+03  0.00000000000E+00 0. -1.
          1    1    1    2  502    0  0.63414983248E+01  0.31839931190E+02  0.60290251735E+03  0.60377598598E+03  0.00000000000E+00 0. -1.
         22    1    3    3    0    0  0.13949204417E+02 -0.55647659246E+02  0.73604198629E+03  0.73827437167E+03  0.00000000000E+00 0. -1.
         22    1    3    3    0    0 -0.92975680523E+02 -0.57335312571E+02  0.50792793248E+03  0.51954075859E+03  0.00000000000E+00 0. -1.
</event>
<event>
 7    1  0.1418218E-005  0.6193805E+02  0.7818608E-02  0.1417215E+00
          2   -1    0    0  502    0  0.00000000000E+00  0.00000000000E+00  0.21654449067E+04  0.21654449067E+04  0.00000000000E+00 0. -1.
          1   -1    0    0  501    0 -0.00000000000E+00 -0.00000000000E+00 -0.10647186686E+04  0.10647186686E+04  0.00000000000E+00 0. -1.
         25    2    1    2    0    0 -0.15122999397E+02 -0.58642242502E+01 -0.25366857271E+03  0.28326032950E+03  0.12500230099E+03 0.  0.
          2    1    1    2  501    0 -0.17959105173E+02 -0.46595259187E+02 -0.79502356027E+03  0.79659030186E+03  0.00000000000E+00 0. -1.
          1    1    1    2  502    0  0.33082104571E+02  0.52459483437E+02  0.21494183710E+04  0.21503129439E+04  0.00000000000E+00 0. -1.
         22    1    3    3    0    0  0.40929623888E+02 -0.84857906804E+01 -0.27029404369E+02  0.49777820921E+02  0.00000000000E+00 0. -1.
         22    1    3    3    0    0 -0.56052623286E+02  0.26215664301E+01 -0.22663916834E+03  0.23348250858E+03  0.00000000000E+00 0. -1.
</event>
<event>
 7    1  0.6508013E-006  0.1402770E+03  0.7818608E-02  0.1253892E+00
          2   -1    0    0  502    0  0.00000000000E+00  0.00000000000E+00  0.22928634943E+04  0.22928634943E+04  0.00000000000E+00 0. -1.
          1   -1    0    0  501    0 -0.00000000000E+00 -0.00000000000E+00 -0.63033732374E+03  0.63033732374E+03  0.00000000000E+00 0. -1.
         25    2    1    2    0    0 -0.18159670154E+03  0.12460828772E+03  0.49962701820E+03  0.56014006538E+03  0.12500059259E+03 0.  0.
          2    1    1    2  501    0  0.91629413770E+02 -0.10473516950E+03 -0.59078733721E+03  0.60695558570E+03  0.00000000000E+00 0. -1.
          1    1    1    2  502    0  0.89967287774E+02 -0.19873118214E+02  0.17536864896E+04  0.17561051670E+04  0.00000000000E+00 0. -1.
         22    1    3    3    0    0 -0.22670637532E+02  0.10511884115E+02  0.20471973257E+03  0.20623924558E+03  0.00000000000E+00 0. -1.
         22    1    3    3    0    0 -0.15892606401E+03  0.11409640360E+03  0.29490728564E+03  0.35390081980E+03  0.00000000000E+00 0. -1.
</event>
<event>
 7    1  0.6508013E-006  0.2045423E+03  0.7818608E-02  0.1240767E+00
          2   -1    0    0  502    0  0.00000000000E+00  0.00000000000E+00  0.11160845128E+04  0.11160845128E+04  0.00000000000E+00 0. -1.
          1   -1    0    0  501    0 -0.00000000000E+00 -0.00000000000E+00 -0.89830105319E+03  0.89830105319E+03  0.00000000000E+00 0. -1.
         25    2    1    2    0    0  0.25164276073E+03  0.56015771361E+01  0.66355292704E+02  0.28876177575E+03  0.12499952629E+03 0.  0.
          2    1    1    2  501    0 -0.19515571537E+03 -0.50377483343E+02 -0.77276845659E+03  0.79862051788E+03  0.00000000000E+00 0. -1.
          1    1    1    2  502    0 -0.56487045357E+02  0.44775906207E+02  0.92419662346E+03  0.92700327232E+03  0.00000000000E+00 0. -1.
         22    1    3    3    0    0  0.14189050056E+03  0.46177075602E+02  0.82720443429E+02  0.17061039892E+03  0.00000000000E+00 0.  1.
         22    1    3    3    0    0  0.10975226017E+03 -0.40575498466E+02 -0.16365150725E+02  0.11815137682E+03  0.00000000000E+00 0.  1.
</event>
<event>
 7    1  0.6508013E-006  0.9917028E+02  0.7818608E-02  0.1282314E+00
          2   -1    0    0  502    0  0.00000000000E+00  0.00000000000E+00  0.26537427649E+03  0.26537427649E+03  0.00000000000E+00 0. -1.
          1   -1    0    0  501    0 -0.00000000000E+00 -0.00000000000E+00 -0.84474864834E+03  0.84474864834E+03  0.00000000000E+00 0. -1.
         25    2    1    2    0    0  0.25298414420E+02 -0.99134725914E+02 -0.18232922507E+03  0.24359293794E+03  0.12500347773E+03 0.  0.
          2    1    1    2  501    0 -0.95473118835E+02  0.25897095768E+02 -0.61670170412E+03  0.62458527669E+03  0.00000000000E+00 0. -1.
          1    1    1    2  502    0  0.70174704415E+02  0.73237630146E+02  0.21965655735E+03  0.24194471020E+03  0.00000000000E+00 0. -1.
         22    1    3    3    0    0 -0.70039667843E+01 -0.11948211989E+03 -0.15841145016E+03  0.19854274116E+03  0.00000000000E+00 0.  1.
         22    1    3    3    0    0  0.32302381204E+02  0.20347393979E+02 -0.23917774909E+02  0.45050196779E+02  0.00000000000E+00 0.  1.
</event>
<event>
 7    1  0.6590585E-006  0.8716076E+02  0.7818608E-02  0.1345953E+00
          2   -1    0    0  502    0  0.00000000000E+00  0.00000000000E+00  0.87679000133E+03  0.87679000133E+03  0.00000000000E+00 0. -1.
          1   -1    0    0  501    0 -0.00000000000E+00 -0.00000000000E+00 -0.28230719863E+04  0.28230719863E+04  0.00000000000E+00 0. -1.
         25    2    1    2    0    0 -0.26828221782E+02 -0.22173113481E+02 -0.20495135912E+03  0.24257170803E+03  0.12499829393E+03 0.  0.
          2    1    1    2  501    0  0.89000570649E+02  0.98025396315E+01 -0.25973670635E+04  0.25989099357E+04  0.00000000000E+00 0. -1.
          1    1    1    2  502    0 -0.62172348867E+02  0.12370573849E+02  0.85603643769E+03  0.85838034385E+03  0.00000000000E+00 0. -1.
         22    1    3    3    0    0 -0.19369420727E+02 -0.69829583496E+02 -0.16399782486E+03  0.17929481797E+03  0.00000000000E+00 0.  1.
         22    1    3    3    0    0 -0.74588010550E+01  0.47656470015E+02 -0.40953534260E+02  0.63276890062E+02  0.00000000000E+00 0.  1.
</event>
<event>
 7    1  0.6508013E-006  0.4934368E+02  0.7818608E-02  0.1449751E+00
          2   -1    0    0  502    0  0.00000000000E+00  0.00000000000E+00  0.15208536463E+04  0.15208536463E+04  0.00000000000E+00 0. -1.
          1   -1    0    0  501    0 -0.00000000000E+00 -0.00000000000E+00 -0.11143021328E+02  0.11143021328E+02  0.00000000000E+00 0. -1.
         25    2    1    2    0    0  0.83094604839E+01  0.19048573150E+02  0.72388312992E+03  0.73488933119E+03  0.12499459204E+03 0.  0.
          2    1    1    2  501    0 -0.57056082815E+02 -0.11395785305E+02  0.17773258161E+03  0.18701371895E+03  0.00000000000E+00 0. -1.
          1    1    1    2  502    0  0.48746622331E+02 -0.76527878458E+01  0.60809491343E+03  0.61009361748E+03  0.00000000000E+00 0. -1.
         22    1    3    3    0    0 -0.39786540879E+02  0.74069298275E+01  0.60178783585E+03  0.60314710546E+03  0.00000000000E+00 0. -1.
         22    1    3    3    0    0  0.48096001363E+02  0.11641643323E+02  0.12209529407E+03  0.13174222573E+03  0.00000000000E+00 0. -1.
</event>
<event>
 7    1  0.6508013E-006  0.8984262E+02  0.7818608E-02  0.1380488E+00
          2   -1    0    0  502    0  0.00000000000E+00  0.00000000000E+00  0.10628821898E+04  0.10628821898E+04  0.00000000000E+00 0. -1.
          1   -1    0    0  501    0 -0.00000000000E+00 -0.00000000000E+00 -0.54069650259E+03  0.54069650259E+03  0.00000000000E+00 0. -1.
         25    2    1    2    0    0 -0.11355767631E+03  0.27678848367E+02  0.63961858835E+03  0.66211491387E+03  0.12499102411E+03 0.  0.
          2    1    1    2  501    0  0.89013636682E+02  0.11309055783E+02 -0.52433735234E+03  0.53195956737E+03  0.00000000000E+00 0. -1.
          1    1    1    2  502    0  0.24544039626E+02 -0.38987904150E+02  0.40690445124E+03  0.40950421120E+03  0.00000000000E+00 0. -1.
         22    1    3    3    0    0 -0.95877037613E+02  0.73736697885E+02  0.42325963078E+03  0.44020247841E+03  0.00000000000E+00 0. -1.
         22    1    3    3    0    0 -0.17680638694E+02 -0.46057849518E+02  0.21635895757E+03  0.22191243545E+03  0.00000000000E+00 0. -1.
</event>
<event>
 7    1  0.6508013E-006  0.5296071E+02  0.7818608E-02  0.1482565E+00
          2   -1    0    0  502    0  0.00000000000E+00  0.00000000000E+00  0.33945532491E+03  0.33945532491E+03  0.00000000000E+00 0. -1.
          1   -1    0    0  501    0 -0.00000000000E+00 -0.00000000000E+00 -0.30975422249E+03  0.30975422249E+03  0.00000000000E+00 0. -1.
         25    2    1    2    0    0 -0.15806686040E+02 -0.14726586377E+02 -0.56313376943E+02  0.13879054319E+03  0.12499957915E+03 0.  0.
          2    1    1    2  501    0  0.50921115857E+02  0.22989696086E+02 -0.20740093450E+03  0.21479439890E+03  0.00000000000E+00 0. -1.
          1    1    1    2  502    0 -0.35114429817E+02 -0.82631097093E+01  0.29341541387E+03  0.29562460531E+03  0.00000000000E+00 0. -1.
         22    1    3    3    0    0 -0.57563417032E+02  0.26709538866E+02 -0.47590038156E+02  0.79320603745E+02  0.00000000000E+00 0.  1.
         22    1    3    3    0    0  0.41756730992E+02 -0.41436125242E+02 -0.87233387875E+01  0.59469939447E+02  0.00000000000E+00 0.  1.
</event>
<event>
 7    1  0.6508013E-006  0.6685764E+02  0.7818608E-02  0.1391436E+00
          2   -1    0    0  502    0  0.00000000000E+00  0.00000000000E+00  0.52633837482E+03  0.52633837482E+03  0.00000000000E+00 0. -1.
          1   -1    0    0  501    0 -0.00000000000E+00 -0.00000000000E+00 -0.13096024294E+03  0.13096024294E+03  0.00000000000E+00 0. -1.
         25    2    1    2    0    0 -0.93817566036E+02  0.49387186675E+02  0.12504603497E+03  0.20616071708E+03  0.12499960201E+03 0.  0.
          2    1    1    2  501    0  0.37267461058E+02 -0.53004555657E+02 -0.76188213861E+02  0.10001495141E+03  0.00000000000E+00 0. -1.
          1    1    1    2  502    0  0.56550104978E+02  0.36173689820E+01  0.34652031076E+03  0.35112294927E+03  0.00000000000E+00 0. -1.
         22    1    3    3    0    0 -0.11751807141E+03  0.64698467508E+02  0.91791629066E+02  0.16254873722E+03  0.00000000000E+00 0.  1.
         22    1    3    3    0    0  0.23700505369E+02 -0.15311280834E+02  0.33254405907E+02  0.43611979865E+02  0.00000000000E+00 0.  1.
</event>
<event>
 7    1  0.6508013E-006  0.6337012E+02  0.7818608E-02  0.1476138E+00
          2   -1    0    0  502    0  0.00000000000E+00  0.00000000000E+00  0.46526041139E+03  0.46526041139E+03  0.00000000000E+00 0. -1.
          1   -1    0    0  501    0 -0.00000000000E+00 -0.00000000000E+00 -0.26620276597E+03  0.26620276597E+03  0.00000000000E+00 0. -1.
         25    2    1    2    0    0  0.50873023329E+02  0.14445336991E+02  0.26244863456E+03  0.29546732281E+03  0.12499968322E+03 0.  0.
          2    1    1    2  501    0 -0.44607222202E+02 -0.45366378728E+02 -0.24425268942E+03  0.25240302867E+03  0.00000000000E+00 0. -1.
          1    1    1    2  502    0 -0.62658011267E+01  0.30921041737E+02  0.18086170028E+03  0.18359282588E+03  0.00000000000E+00 0. -1.
         22    1    3    3    0    0  0.31728267477E+02  0.31212518233E+02  0.15377508804E+02  0.47088979906E+02  0.00000000000E+00 0.  1.
         22    1    3    3    0    0  0.19144755852E+02 -0.16767181243E+02  0.24707112576E+03  0.24837834291E+03  0.00000000000E+00 0.  1.
</event>
<event>
 7    1  0.6508013E-006  0.1421109E+03  0.7818608E-02  0.1365865E+00
          2   -1    0    0  502    0  0.00000000000E+00  0.00000000000E+00  0.15241755705E+04  0.15241755705E+04  0.00000000000E+00 0. -1.
          1   -1    0    0  501    0 -0.00000000000E+00 -0.00000000000E+00 -0.94443034469E+03  0.94443034469E+03  0.00000000000E+00 0. -1.
         25    2    1    2    0    0  0.89593445232E+02  0.62873810708E+02  0.90861870497E+03  0.92368520204E+03  0.12500519969E+03 0.  0.
          2    1    1    2  501    0 -0.11684989362E+03 -0.81218392359E+02 -0.93104313838E+03  0.94185542968E+03  0.00000000000E+00 0. -1.
          1    1    1    2  502    0  0.27256448386E+02  0.18344581652E+02  0.60216965920E+03  0.60306528346E+03  0.00000000000E+00 0. -1.
         22    1    3    3    0    0  0.86924582657E+02 -0.83515890293E+01  0.63320695310E+03  0.63920002938E+03  0.00000000000E+00 0. -1.
         22    1    3    3    0    0  0.26688625754E+01  0.71225399737E+02  0.27541175187E+03  0.28448517266E+03  0.00000000000E+00 0. -1.
</event>
<event>
 7    1  0.6508013E-006  0.7770134E+02  0.7818608E-02  0.1487029E+00
          2   -1    0    0  502    0  0.00000000000E+00  0.00000000000E+00  0.55500707180E+02  0.55500707180E+02  0.00000000000E+00 0. -1.
          1   -1    0    0  501    0 -0.00000000000E+00 -0.00000000000E+00 -0.17458702478E+04  0.17458702478E+04  0.00000000000E+00 0. -1.
         25    2    1    2    0    0  0.61195434951E+02 -0.40099134187E+02 -0.11711713536E+03  0.18626547457E+03  0.12500232718E+03 0.  0.
          2    1    1    2  501    0 -0.75107049154E+02  0.20752222068E+02 -0.15861139301E+04  0.15880268017E+04  0.00000000000E+00 0. -1.
          1    1    1    2  502    0  0.13911614204E+02  0.19346912119E+02  0.12861524880E+02  0.27078678707E+02  0.00000000000E+00 0. -1.
         22    1    3    3    0    0  0.12955963437E+02 -0.33303014819E+01  0.26874738105E+02  0.30019984090E+02  0.00000000000E+00 0.  1.
         22    1    3    3    0    0  0.48239471514E+02 -0.36768832705E+02 -0.14399187346E+03  0.15624549048E+03  0.00000000000E+00 0.  1.
</event>
<event>
 7    1  0.6508013E-006  0.2332701E+03  0.7818608E-02  0.1238320E+00
          2   -1    0    0  502    0  0.00000000000E+00  0.00000000000E+00  0.10222230109E+04  0.10222230109E+04  0.00000000000E+00 0. -1.
          1   -1    0    0  501    0 -0.00000000000E+00 -0.00000000000E+00 -0.35813331733E+03  0.35813331733E+03  0.00000000000E+00 0. -1.
         25    2    1    2    0    0  0.20371397042E+03 -0.18605200117E+03  0.74586410259E+03  0.80501750568E+03  0.12500078411E+03 0.  0.
          2    1    1    2  501    0 -0.19665750175E+03  0.12164165723E+03 -0.28211898912E+03  0.36477663000E+03  0.00000000000E+00 0. -1.
          1    1    1    2  502    0 -0.70564686685E+01  0.64410343935E+02  0.20034458006E+03  0.21056219251E+03  0.00000000000E+00 0. -1.
         22    1    3    3    0    0  0.19960119590E+03 -0.12165140938E+03  0.63609687332E+03  0.67768645778E+03  0.00000000000E+00 0.  1.
         22    1    3    3    0    0  0.41127745222E+01 -0.64400591789E+02  0.10976722927E+03  0.12733104790E+03  0.00000000000E+00 0.  1.
</event>
<event>
 7    1  0.6508013E-006  0.4718720E+02  0.7818608E-02  0.1509104E+00
          2   -1    0    0  502    0  0.00000000000E+00  0.00000000000E+00  0.10023024503E+04  0.10023024503E+04  0.00000000000E+00 0. -1.
          1   -1    0    0  501    0 -0.00000000000E+00 -0.00000000000E+00 -0.23645723239E+03  0.23645723239E+03  0.00000000000E+00 0. -1.
         25    2    1    2    0    0 -0.65413732190E+02  0.35607655432E+02  0.19282139429E+03  0.24155886032E+03  0.12499492558E+03 0.  0.
          2    1    1    2  501    0  0.19626349399E+02 -0.27398398240E+02 -0.21005500746E+03  0.21274156147E+03  0.00000000000E+00 0. -1.
          1    1    1    2  502    0  0.45787382791E+02 -0.82092571915E+01  0.78307883112E+03  0.78445926094E+03  0.00000000000E+00 0. -1.
         22    1    3    3    0    0 -0.34177703615E+01  0.72733262457E+02  0.10600577262E+03  0.12860416965E+03  0.00000000000E+00 0. -1.
         22    1    3    3    0    0 -0.61995961829E+02 -0.37125607025E+02  0.86815621665E+02  0.11295469067E+03  0.00000000000E+00 0. -1.
</event>
<event>
 7    1  0.6508013E-006  0.8908196E+02  0.7818608E-02  0.1393309E+00
          2   -1    0    0  502    0  0.00000000000E+00  0.00000000000E+00  0.48010103488E+03  0.48010103488E+03  0.00000000000E+00 0. -1.
          1   -1    0    0  501    0 -0.00000000000E+00 -0.00000000000E+00 -0.62452479411E+03  0.62452479411E+03  0.00000000000E+00 0. -1.
         25    2    1    2    0    0  0.12916740482E+03 -0.61007621935E+00  0.77091548462E+02  0.19558252003E+03  0.12499929854E+03 0.  0.
          2    1    1    2  501    0 -0.87851865398E+02 -0.63361969005E+01 -0.56055100038E+03  0.56742886926E+03  0.00000000000E+00 0. -1.
          1    1    1    2  502    0 -0.41315539420E+02  0.69462731198E+01  0.33903569268E+03  0.34161443971E+03  0.00000000000E+00 0. -1.
         22    1    3    3    0    0  0.10196508471E+01  0.22952364392E+02  0.59902914140E+02  0.64157695108E+02  0.00000000000E+00 0.  1.
         22    1    3    3    0    0  0.12814775397E+03 -0.23562440612E+02  0.17188634322E+02  0.13142482492E+03  0.00000000000E+00 0.  1.
</event>
<event>
 7    1  0.6508013E-006  0.1614987E+03  0.7818608E-02  0.1271343E+00
          2   -1    0    0  502    0  0.00000000000E+00  0.00000000000E+00  0.31157046157E+04  0.31157046157E+04  0.00000000000E+00 0. -1.
          1   -1    0    0  501    0 -0.00000000000E+00 -0.00000000000E+00 -0.67545366289E+03  0.67545366289E+03  0.00000000000E+00 0. -1.
         25    2    1    2    0    0  0.19672660896E+02  0.20282455529E+03  0.48842382636E+03  0.54378536997E+03  0.12497952080E+03 0.  0.
          2    1    1    2  501    0 -0.60424093490E+02 -0.14905789627E+03 -0.63734276107E+03  0.65732421422E+03  0.00000000000E+00 0. -1.
          1    1    1    2  502    0  0.40751432594E+02 -0.53766659021E+02  0.25891698876E+04  0.25900486944E+04  0.00000000000E+00 0. -1.
         22    1    3    3    0    0 -0.11749437610E+02  0.23928581783E+02  0.46794205937E+01  0.27065167418E+02  0.00000000000E+00 0. -1.
         22    1    3    3    0    0  0.31422098506E+02  0.17889597351E+03  0.48374440577E+03  0.51672020255E+03  0.00000000000E+00 0. -1.
</event>
<event>
 7    1  0.6508013E-006  0.9343731E+02  0.7818608E-02  0.1384674E+00
          2   -1    0    0  502    0  0.00000000000E+00  0.00000000000E+00  0.21454457036E+04  0.21454457036E+04  0.00000000000E+00 0. -1.
          1   -1    0    0  501    0 -0.00000000000E+00 -0.00000000000E+00 -0.69767908145E+03  0.69767908145E+03  0.00000000000E+00 0. -1.
         25    2    1    2    0    0 -0.56114178453E+02 -0.77132859586E+02  0.91360281095E+02  0.18185538305E+03  0.12500560120E+03 0.  0.
          2    1    1    2  501    0  0.40064946843E+02 -0.15101911531E+02 -0.65063671255E+03  0.65204401647E+03  0.00000000000E+00 0. -1.
          1    1    1    2  502    0  0.16049231610E+02  0.92234771117E+02  0.20070430536E+04  0.20092253855E+04  0.00000000000E+00 0. -1.
         22    1    3    3    0    0  0.33128622489E+02 -0.51374281875E+02  0.54588719850E+02  0.81955785647E+02  0.00000000000E+00 0.  1.
         22    1    3    3    0    0 -0.89242800941E+02 -0.25758577711E+02  0.36771561245E+02  0.99899597406E+02  0.00000000000E+00 0.  1.
</event>
<event>
 7    1  0.6508013E-006  0.8301128E+02  0.7818608E-02  0.1342699E+00
          2   -1    0    0  502    0  0.00000000000E+00  0.00000000000E+00  0.66022423807E+03  0.66022423807E+03  0.00000000000E+00 0. -1.
          1   -1    0    0  501    0 -0.00000000000E+00 -0.00000000000E+00 -0.31966633628E+03  0.31966633628E+03  0.00000000000E+00 0. -1.
         25    2    1    2    0    0  0.37222628511E+02  0.13443344383E+03  0.21296137563E+02  0.18851042158E+03  0.12499911470E+03 0.  0.
          2    1    1    2  501    0  0.38384917414E+01 -0.79667110792E+02 -0.22712496609E+03  0.24072252238E+03  0.00000000000E+00 0. -1.
          1    1    1    2  502    0 -0.41061120252E+02 -0.54766333041E+02  0.54638673032E+03  0.55065763039E+03  0.00000000000E+00 0. -1.
         22    1    3    3    0    0  0.19401528738E+02  0.11612511124E+03  0.67500716541E+02  0.13571222315E+03  0.00000000000E+00 0.  1.
         22    1    3    3    0    0  0.17821099773E+02  0.18308332591E+02 -0.46204578977E+02  0.52798198434E+02  0.00000000000E+00 0.  1.
</event>
<event>
 7    1  0.6508013E-006  0.7680819E+02  0.7818608E-02  0.1434249E+00
          2   -1    0    0  502    0  0.00000000000E+00  0.00000000000E+00  0.27225718150E+03  0.27225718150E+03  0.00000000000E+00 0. -1.
          1   -1    0    0  501    0 -0.00000000000E+00 -0.00000000000E+00 -0.47379979625E+03  0.47379979625E+03  0.00000000000E+00 0. -1.
         25    2    1    2    0    0  0.69756486101E+02  0.80448413274E+02 -0.35568790442E+03  0.39175973106E+03  0.12499554782E+03 0.  0.
          2    1    1    2  501    0 -0.89629587974E+01 -0.34207669355E+02 -0.90946438191E+02  0.97579474752E+02  0.00000000000E+00 0. -1.
          1    1    1    2  502    0 -0.60793527304E+02 -0.46240743918E+02  0.24509172787E+03  0.25671777194E+03  0.00000000000E+00 0. -1.
         22    1    3    3    0    0  0.98284757777E+02  0.25447048926E+02 -0.23823417780E+03  0.25896518952E+03  0.00000000000E+00 0. -1.
         22    1    3    3    0    0 -0.28528271675E+02  0.55001364347E+02 -0.11745372662E+03  0.13279454154E+03  0.00000000000E+00 0. -1.
</event>
<event>
 7    1  0.6508013E-006  0.1221708E+03  0.7818608E-02  0.1301870E+00
          2   -1    0    0  502    0  0.00000000000E+00  0.00000000000E+00  0.41319242347E+03  0.41319242347E+03  0.00000000000E+00 0. -1.
          1   -1    0    0  501    0 -0.00000000000E+00 -0.00000000000E+00 -0.22867002139E+03  0.22867002139E+03  0.00000000000E+00 0. -1.
         25    2    1    2    0    0  0.65183282498E+02 -0.13903389479E+03  0.12218974718E+03  0.23266933469E+03  0.12500160308E+03 0.  0.
          2    1    1    2  501    0 -0.62952498077E+02  0.22644026895E+02 -0.15156271219E+03  0.16567143596E+03  0.00000000000E+00 0. -1.
          1    1    1    2  502    0 -0.22307844212E+01  0.11638986789E+03  0.21389536709E+03  0.24352167421E+03  0.00000000000E+00 0. -1.
         22    1    3    3    0    0  0.62297749556E+02 -0.12872617234E+03  0.14734351525E+03  0.20533277510E+03  0.00000000000E+00 0.  1.
         22    1    3    3    0    0  0.28855329424E+01 -0.10307722452E+02 -0.25153768066E+02  0.27336559593E+02  0.00000000000E+00 0.  1.
</event>
<event>
 7    1  0.6508013E-006  0.4334166E+02  0.7818608E-02  0.1572244E+00
          2   -1    0    0  502    0  0.00000000000E+00  0.00000000000E+00  0.16257347437E+04  0.16257347437E+04  0.00000000000E+00 0. -1.
          1   -1    0    0  501    0 -0.00000000000E+00 -0.00000000000E+00 -0.12336425927E+03  0.12336425927E+03  0.00000000000E+00 0. -1.
         25    2    1    2    0    0 -0.36309982546E+02 -0.54333438440E+02  0.11735175944E+04  0.11819665662E+04  0.12502352444E+03 0.  0.
          2    1    1    2  501    0  0.16709587387E+02  0.39915673560E+02 -0.11486628105E+03  0.12274662451E+03  0.00000000000E+00 0. -1.
          1    1    1    2  502    0  0.19600395159E+02  0.14417764879E+02  0.44371917104E+03  0.44438581231E+03  0.00000000000E+00 0. -1.
         22    1    3    3    0    0  0.44286245383E+02 -0.19644366600E+02  0.57696852636E+03  0.57899900957E+03  0.00000000000E+00 0.  1.
         22    1    3    3    0    0 -0.80596227929E+02 -0.34689071840E+02  0.59654906808E+03  0.60296755658E+03  0.00000000000E+00 0.  1.
</event>
<event>
 7    1  0.6508013E-006  0.1301968E+03  0.7818608E-02  0.1263153E+00
          2   -1    0    0  502    0  0.00000000000E+00  0.00000000000E+00  0.10697161854E+04  0.10697161854E+04  0.00000000000E+00 0. -1.
          1   -1    0    0  501    0 -0.00000000000E+00 -0.00000000000E+00 -0.75938668904E+03  0.75938668904E+03  0.00000000000E+00 0. -1.
         25    2    1    2    0    0 -0.52102466040E+02  0.29806780120E+02 -0.43166966748E+02  0.14522644866E+03  0.12499689302E+03 0.  0.
          2    1    1    2  501    0 -0.71607953578E+01  0.90330042056E+02 -0.65766604421E+03  0.66387906970E+03  0.00000000000E+00 0. -1.
          1    1    1    2  502    0  0.59263261397E+02 -0.12013682218E+03  0.10111625073E+04  0.10199973561E+04  0.00000000000E+00 0. -1.
         22    1    3    3    0    0 -0.74896469118E+01  0.25931472267E+02 -0.81766210843E+02  0.86106035215E+02  0.00000000000E+00 0.  1.
         22    1    3    3    0    0 -0.44612819128E+02  0.38753078528E+01  0.38599244095E+02  0.59120413448E+02  0.00000000000E+00 0.  1.
</event>
<event>
 7    1  0.6508013E-006  0.2136219E+03  0.7818608E-02  0.1253106E+00
          2   -1    0    0  502    0  0.00000000000E+00  0.00000000000E+00  0.19979622116E+04  0.19979622116E+04  0.00000000000E+00 0. -1.
          1   -1    0    0  501    0 -0.00000000000E+00 -0.00000000000E+00 -0.37811106709E+03  0.37811106709E+03  0.00000000000E+00 0. -1.
         25    2    1    2    0    0 -0.17011796097E+03  0.10855824523E+03  0.21812080089E+03  0.32237504095E+03  0.12499587990E+03 0.  0.
          2    1    1    2  501    0  0.27951276240E+02  0.54192266444E+02 -0.31630329880E+03  0.32212707495E+03  0.00000000000E+00 0. -1.
          1    1    1    2  502    0  0.14216668473E+03 -0.16275051168E+03  0.17180336424E+04  0.17315711628E+04  0.00000000000E+00 0. -1.
         22    1    3    3    0    0 -0.63056059706E+02  0.65308302656E+02  0.19840992547E+02  0.92924195164E+02  0.00000000000E+00 0. -1.
         22    1    3    3    0    0 -0.10706190127E+03  0.43249942576E+02  0.19827980834E+03  0.22945084579E+03  0.00000000000E+00 0. -1.
</event>
<event>
 7    1  0.6508013E-006  0.1697762E+03  0.7818608E-02  0.1394060E+00
          2   -1    0    0  502    0  0.00000000000E+00  0.00000000000E+00  0.13911364272E+04  0.13911364272E+04  0.00000000000E+00 0. -1.
          1   -1    0    0  501    0 -0.00000000000E+00 -0.00000000000E+00 -0.76333441873E+02  0.76333441873E+02  0.00000000000E+00 0. -1.
         25    2    1    2    0    0  0.15757721067E+03  0.32311673785E+02  0.24308788609E+03  0.31716251573E+03  0.12500287769E+03 0.  0.
          2    1    1    2  501    0  0.54113033601E+01  0.21170359815E+02 -0.28997299205E+02  0.36308534809E+02  0.00000000000E+00 0. -1.
          1    1    1    2  502    0 -0.16298851403E+03 -0.53482033600E+02  0.11007123985E+04  0.11139988186E+04  0.00000000000E+00 0. -1.
         22    1    3    3    0    0  0.15974132042E+03  0.10499973601E+02  0.14284492398E+03  0.21455118551E+03  0.00000000000E+00 0.  1.
         22    1    3    3    0    0 -0.21641097494E+01  0.21811700184E+02  0.10024296212E+03  0.10261133022E+03  0.00000000000E+00 0.  1.
</event>
<event>
 7    1  0.6508013E-006  0.1802429E+03  0.7818608E-02  0.1369736E+00
          2   -1    0    0  502    0  0.00000000000E+00  0.00000000000E+00  0.12994203268E+04  0.12994203268E+04  0.00000000000E+00 0. -1.
          1   -1    0    0  501    0 -0.00000000000E+00 -0.00000000000E+00 -0.23101205642E+03  0.23101205642E+03  0.00000000000E+00 0. -1.
         25    2    1    2    0    0 -0.16131298843E+03  0.16276467576E+02 -0.38034754455E+02  0.20822762422E+03  0.12500118923E+03 0.  0.
          2    1    1    2  501    0 -0.16523948456E+02  0.18872972198E+02 -0.99550951377E+02  0.10266266056E+03  0.00000000000E+00 0. -1.
          1    1    1    2  502    0  0.17783693688E+03 -0.35149439775E+02  0.12059939762E+04  0.12195420985E+04  0.00000000000E+00 0. -1.
         22    1    3    3    0    0 -0.81364618772E+01 -0.34256013114E+02 -0.30782800852E+02  0.46768122420E+02  0.00000000000E+00 0. -1.
         22    1    3    3    0    0 -0.15317652655E+03  0.50532480691E+02 -0.72519536029E+01  0.16145950180E+03  0.00000000000E+00 0. -1.
</event>
<event>
 7    1  0.6508013E-006  0.6947543E+02  0.7818608E-02  0.1413533E+00
          2   -1    0    0  502    0  0.00000000000E+00  0.00000000000E+00  0.15476942671E+04  0.15476942671E+04  0.00000000000E+00 0. -1.
          1   -1    0    0  501    0 -0.00000000000E+00 -0.00000000000E+00 -0.15266092706E+03  0.15266092706E+03  0.00000000000E+00 0. -1.
         25    2    1    2    0    0  0.51362380118E+02  0.95784962214E+02  0.21580118157E+03  0.27204409805E+03  0.12499995296E+03 0.  0.
          2    1    1    2  501    0 -0.35111252378E+02 -0.29418130696E+02 -0.11939875802E+03  0.12788389216E+03  0.00000000000E+00 0. -1.
          1    1    1    2  502    0 -0.16251127740E+02 -0.66366831518E+02  0.12986309165E+04  0.13004272040E+04  0.00000000000E+00 0. -1.
         22    1    3    3    0    0 -0.32039804323E+02  0.20128187641E+01  0.15433769699E+02  0.35620243507E+02  0.00000000000E+00 0.  1.
         22    1    3    3    0    0  0.83402184441E+02  0.93772143450E+02  0.20036741188E+03  0.23642385455E+03  0.00000000000E+00 0.  1.
</event>
<event>
 7    1  0.6508013E-006  0.7092496E+02  0.7818608E-02  0.1434316E+00
          2   -1    0    0  502    0  0.00000000000E+00  0.00000000000E+00  0.33570602917E+04  0.33570602917E+04  0.00000000000E+00 0. -1.
          1   -1    0    0  501    0 -0.00000000000E+00 -0.00000000000E+00 -0.13550283761E+03  0.13550283761E+03  0.00000000000E+00 0. -1.
         25    2    1    2    0    0 -0.27967610604E+02  0.45751109298E+02  0.83988385466E+02  0.15985824648E+03  0.12500103532E+03 0.  0.
          2    1    1    2  501    0  0.28604875674E+02  0.25433177819E+02 -0.93406682724E+02  0.10094500396E+03  0.00000000000E+00 0. -1.
          1    1    1    2  502    0 -0.63726507055E+00 -0.71184287117E+02  0.32309757513E+04  0.32317598788E+04  0.00000000000E+00 0. -1.
         22    1    3    3    0    0 -0.26680426276E+02  0.54762111564E+02  0.11358764369E+03  0.12889098808E+03  0.00000000000E+00 0. -1.
         22    1    3    3    0    0 -0.12871843283E+01 -0.90110022664E+01 -0.29599258226E+02  0.30967258401E+02  0.00000000000E+00 0. -1.
</event>
<event>
 7    1  0.6508013E-006  0.1108327E+03  0.7818608E-02  0.1404789E+00
          2   -1    0    0  502    0  0.00000000000E+00  0.00000000000E+00  0.11729359013E+04  0.11729359013E+04  0.00000000000E+00 0. -1.
          1   -1    0    0  501    0 -0.00000000000E+00 -0.00000000000E+00 -0.69194878873E+03  0.69194878873E+03  0.00000000000E+00 0. -1.
         25    2    1    2    0    0  0.79529976432E+02  0.60738718512E+02 -0.41219311237E+03  0.44220285694E+03  0.12500398282E+03 0.  0.
          2    1    1    2  501    0 -0.10945915246E+03 -0.53708819306E+02 -0.25049559557E+03  0.27859286912E+03  0.00000000000E+00 0. -1.
          1    1    1    2  502    0  0.29929176023E+02 -0.70298992055E+01  0.11436758205E+04  0.11440889640E+04  0.00000000000E+00 0. -1.
         22    1    3    3    0    0  0.45276229811E+02  0.49660991389E+02 -0.39779234893E+03  0.40342893293E+03  0.00000000000E+00 0. -1.
         22    1    3    3    0    0  0.34253746621E+02  0.11077727123E+02 -0.14400763437E+02  0.38773924013E+02  0.00000000000E+00 0. -1.
</event>
<event>
 7    1  0.6508013E-006  0.1707439E+03  0.7818608E-02  0.1232638E+00
          2   -1    0    0  502    0  0.00000000000E+00  0.00000000000E+00  0.59153727748E+03  0.59153727748E+03  0.00000000000E+00 0. -1.
          1   -1    0    0  501    0 -0.00000000000E+00 -0.00000000000E+00 -0.15788470115E+04  0.15788470115E+04  0.00000000000E+00 0. -1.
         25    2    1    2    0    0  0.17166995696E+03 -0.17493113135E+03 -0.70508667973E+03  0.75686413560E+03  0.12499847593E+03 0.  0.
          2    1    1    2  501    0 -0.10553485628E+03  0.10838172124E+03 -0.83715486163E+03  0.85071291617E+03  0.00000000000E+00 0. -1.
          1    1    1    2  502    0 -0.66135100682E+02  0.66549410102E+02  0.55493180731E+03  0.56280723724E+03  0.00000000000E+00 0. -1.
         22    1    3    3    0    0  0.13017506607E+03 -0.14963053977E+03 -0.66475028734E+03  0.69370583880E+03  0.00000000000E+00 0.  1.
         22    1    3    3    0    0  0.41494890892E+02 -0.25300591572E+02 -0.40336392388E+02  0.63158296802E+02  0.00000000000E+00 0.  1.
</event>
<event>
 7    1  0.6508013E-006  0.6729142E+02  0.7818608E-02  0.1527530E+00
          2   -1    0    0  502    0  0.00000000000E+00  0.00000000000E+00  0.44652300647E+04  0.44652300647E+04  0.00000000000E+00 0. -1.
          1   -1    0    0  501    0 -0.00000000000E+00 -0.00000000000E+00 -0.66391976226E+02  0.66391976226E+02  0.00000000000E+00 0. -1.
         25    2    1    2    0    0  0.45724880961E+02 -0.70502020236E+02  0.36459159816E+03  0.39447845478E+03  0.12499967297E+03 0.  0.
          2    1    1    2  501    0 -0.70615297567E+00  0.20876036148E+02 -0.49042197946E+02  0.53305203467E+02  0.00000000000E+00 0. -1.
          1    1    1    2  502    0 -0.45018727985E+02  0.49625984088E+02  0.40832886882E+04  0.40838383826E+04  0.00000000000E+00 0. -1.
         22    1    3    3    0    0  0.86951874514E+02 -0.53701750799E+02  0.20909079802E+03  0.23273046285E+03  0.00000000000E+00 0. -1.
         22    1    3    3    0    0 -0.41226993553E+02 -0.16800269437E+02  0.15550080014E+03  0.16174799193E+03  0.00000000000E+00 0. -1.
</event>
<event>
 7    1  0.6508013E-006  0.5480038E+02  0.7818608E-02  0.1547312E+00
          2   -1    0    0  502    0  0.00000000000E+00  0.00000000000E+00  0.54513514059E+03  0.54513514059E+03  0.00000000000E+00 0. -1.
          1   -1    0    0  501    0 -0.00000000000E+00 -0.00000000000E+00 -0.57770402720E+03  0.57770402720E+03  0.00000000000E+00 0. -1.
         25    2    1    2    0    0 -0.23007113731E+02  0.49294399685E+02 -0.13164992636E+03  0.18951499373E+03  0.12499985846E+03 0.  0.
          2    1    1    2  501    0 -0.18278249170E+02 -0.13189440861E+02 -0.41535831925E+03  0.41596945694E+03  0.00000000000E+00 0. -1.
          1    1    1    2  502    0  0.41285362901E+02 -0.36104958824E+02  0.51443935900E+03  0.51735471712E+03  0.00000000000E+00 0. -1.
         22    1    3    3    0    0  0.33970459776E+01  0.28644279444E+02  0.19418552374E+02  0.34772328691E+02  0.00000000000E+00 0.  1.
         22    1    3    3    0    0 -0.26404159708E+02  0.20650120241E+02 -0.15106847873E+03  0.15474266504E+03  0.00000000000E+00 0.  1.
</event>
<event>
 7    1  0.6508013E-006  0.1266169E+03  0.7818608E-02  0.1265026E+00
          2   -1    0    0  502    0  0.00000000000E+00  0.00000000000E+00  0.14148471246E+04  0.14148471246E+04  0.00000000000E+00 0. -1.
          1   -1    0    0  501    0 -0.00000000000E+00 -0.00000000000E+00 -0.11028604349E+04  0.11028604349E+04  0.00000000000E+00 0. -1.
         25    2    1    2    0    0 -0.16478313568E+03 -0.97269767873E+02  0.17095238696E+03  0.28541890226E+03  0.12499736642E+03 0.  0.
          2    1    1    2  501    0  0.42063888972E+02  0.81244281332E+02 -0.10403874373E+04  0.10444022327E+04  0.00000000000E+00 0. -1.
          1    1    1    2  502    0  0.12271924671E+03  0.16025486540E+02  0.11814217400E+04  0.11878864245E+04  0.00000000000E+00 0. -1.
         22    1    3    3    0    0 -0.16397862120E+03 -0.11252758933E+03  0.17950783191E+03  0.26790764881E+03  0.00000000000E+00 0.  1.
         22    1    3    3    0    0 -0.80451447849E+00  0.15257821454E+02 -0.85554449548E+01  0.17511253452E+02  0.00000000000E+00 0.  1.
</event>
<event>
 7    1  0.6508013E-006  0.4476983E+02  0.7818608E-02  0.1522327E+00
          2   -1    0    0  502    0  0.00000000000E+00  0.00000000000E+00  0.68428768630E+03  0.68428768630E+03  0.00000000000E+00 0. -1.
          1   -1    0    0  501    0 -0.00000000000E+00 -0.00000000000E+00 -0.75219057791E+02  0.75219057791E+02  0.00000000000E+00 0. -1.
         25    2    1    2    0    0 -0.75331394724E+02  0.99059087056E+01  0.14194480775E+03  0.20382958816E+03  0.12500090602E+03 0.  0.
          2    1    1    2  501    0  0.32492335269E+02 -0.69104332480E+00 -0.37232134957E+02  0.49421263294E+02  0.00000000000E+00 0. -1.
          1    1    1    2  502    0  0.42839059454E+02 -0.92148653808E+01  0.50435595572E+03  0.50625589263E+03  0.00000000000E+00 0. -1.
         22    1    3    3    0    0 -0.74589058005E+02  0.37533968102E+02  0.15280752454E+03  0.17413347149E+03  0.00000000000E+00 0. -1.
         22    1    3    3    0    0 -0.74233671888E+00 -0.27628059397E+02 -0.10862716788E+02  0.29696116680E+02  0.00000000000E+00 0. -1.
</event>
<event>
 7    1  0.6508013E-006  0.1724296E+03  0.7818608E-02  0.1251484E+00
          2   -1    0    0  502    0  0.00000000000E+00  0.00000000000E+00  0.18010070519E+04  0.18010070519E+04  0.00000000000E+00 0. -1.
          1   -1    0    0  501    0 -0.00000000000E+00 -0.00000000000E+00 -0.48721630016E+03  0.48721630016E+03  0.00000000000E+00 0. -1.
         25    2    1    2    0    0 -0.17499513913E+03 -0.14260160795E+03  0.13054464035E+04  0.13307042458E+04  0.12499983990E+03 0.  0.
          2    1    1    2  501    0  0.15798936477E+03  0.67736473413E+02 -0.45576423304E+03  0.48710358789E+03  0.00000000000E+00 0. -1.
          1    1    1    2  502    0  0.17005774359E+02  0.74865134539E+02  0.46410858121E+03  0.47041551833E+03  0.00000000000E+00 0. -1.
         22    1    3    3    0    0 -0.15759458675E+03 -0.52733679094E+02  0.87289492009E+03  0.88857325877E+03  0.00000000000E+00 0. -1.
         22    1    3    3    0    0 -0.17400552382E+02 -0.89867928858E+02  0.43255148345E+03  0.44213098703E+03  0.00000000000E+00 0. -1.
</event>
<event>
 7    1  0.6508013E-006  0.1110490E+03  0.7818608E-02  0.1268282E+00
          2   -1    0    0  502    0  0.00000000000E+00  0.00000000000E+00  0.19959167268E+04  0.19959167268E+04  0.00000000000E+00 0. -1.
          1   -1    0    0  501    0 -0.00000000000E+00 -0.00000000000E+00 -0.42436533731E+02  0.42436533731E+02  0.00000000000E+00 0. -1.
         25    2    1    2    0    0  0.42966837387E+02 -0.20365694515E+01  0.51402717832E+03  0.53075310631E+03  0.12499849232E+03 0.  0.
          2    1    1    2  501    0 -0.47984365838E+02 -0.10889903214E+03  0.79485777368E+02  0.14310655949E+03  0.00000000000E+00 0. -1.
          1    1    1    2  502    0  0.50175284502E+01  0.11093560159E+03  0.13599672373E+04  0.13644935947E+04  0.00000000000E+00 0. -1.
         22    1    3    3    0    0 -0.28819632692E+02  0.29584862657E+02  0.29949940413E+03  0.30233380294E+03  0.00000000000E+00 0.  1.
         22    1    3    3    0    0  0.71786470080E+02 -0.31621432108E+02  0.21452777419E+03  0.22841930337E+03  0.00000000000E+00 0.  1.
</event>
<event>
 7    1  0.6508013E-006  0.2400882E+03  0.7818608E-02  0.1350614E+00
          2   -1    0    0  502    0  0.00000000000E+00  0.00000000000E+00  0.29599559581E+04  0.29599559581E+04  0.00000000000E+00 0. -1.
          1   -1    0    0  501    0 -0.00000000000E+00 -0.00000000000E+00 -0.20326113497E+04  0.20326113497E+04  0.00000000000E+00 0. -1.
         25    2    1    2    0    0 -0.21957835130E+03  0.14228306016E+03  0.23433850138E+04  0.23612607516E+04  0.12505955668E+03 0.  0.
          2    1    1    2  501    0  0.20380771249E+03 -0.12678132862E+03 -0.20163520402E+04  0.20305877571E+04  0.00000000000E+00 0. -1.
          1    1    1    2  502    0  0.15770638811E+02 -0.15501731539E+02  0.60031163480E+03  0.60071879911E+03  0.00000000000E+00 0. -1.
         22    1    3    3    0    0 -0.15248469454E+03  0.11623986577E+03  0.11643757529E+04  0.11800568556E+04  0.00000000000E+00 0. -1.
         22    1    3    3    0    0 -0.67093656758E+02  0.26043194388E+02  0.11790092609E+04  0.11812038961E+04  0.00000000000E+00 0. -1.
</event>
<event>
 7    1  0.6508013E-006  0.8578286E+02  0.7818608E-02  0.1405185E+00
          2   -1    0    0  502    0  0.00000000000E+00  0.00000000000E+00  0.24743881386E+03  0.24743881386E+03  0.00000000000E+00 0. -1.
          1   -1    0    0  501    0 -0.00000000000E+00 -0.00000000000E+00 -0.64002077359E+03  0.64002077359E+03  0.00000000000E+00 0. -1.
         25    2    1    2    0    0 -0.56212546461E+02  0.54074440008E+02 -0.43805238606E+02  0.15368144850E+03  0.12496076682E+03 0.  0.
          2    1    1    2  501    0  0.83112424794E+02 -0.25016092961E+02 -0.53571057931E+03  0.54269632839E+03  0.00000000000E+00 0. -1.
          1    1    1    2  502    0 -0.26899878333E+02 -0.29058347047E+02  0.18693385819E+03  0.19108181056E+03  0.00000000000E+00 0. -1.
         22    1    3    3    0    0  0.36491352803E+02  0.83768994482E+01 -0.32738933257E+02  0.49735591126E+02  0.00000000000E+00 0.  1.
         22    1    3    3    0    0 -0.92703899264E+02  0.45697540559E+02 -0.11066305348E+02  0.10394585738E+03  0.00000000000E+00 0.  1.
</event>
<event>
 7    1  0.6508013E-006  0.4807280E+02  0.7818608E-02  0.1509441E+00
          2   -1    0    0  502    0  0.00000000000E+00  0.00000000000E+00  0.59661173238E+03  0.59661173238E+03  0.00000000000E+00 0. -1.
          1   -1    0    0  501    0 -0.00000000000E+00 -0.00000000000E+00 -0.64270323769E+03  0.64270323769E+03  0.00000000000E+00 0. -1.
         25    2    1    2    0    0 -0.27298623000E+02  0.76241591990E+02 -0.52622077473E+03  0.54689242654E+03  0.12500010913E+03 0.  0.
          2    1    1    2  501    0  0.99846446700E+01 -0.31459834201E+02 -0.10256938552E+03  0.10774921412E+03  0.00000000000E+00 0. -1.
          1    1    1    2  502    0  0.17313978330E+02 -0.44781757790E+02  0.58269865493E+03  0.58467332942E+03  0.00000000000E+00 0. -1.
         22    1    3    3    0    0 -0.76248541298E+02  0.59646550465E+02 -0.32241723929E+03  0.33663693681E+03  0.00000000000E+00 0. -1.
         22    1    3    3    0    0  0.48949918298E+02  0.16595041525E+02 -0.20380353543E+03  0.21025548973E+03  0.00000000000E+00 0. -1.
</event>
<event>
 7    1  0.6508013E-006  0.1377954E+03  0.7818608E-02  0.1304790E+00
          2   -1    0    0  502    0  0.00000000000E+00  0.00000000000E+00  0.44206832108E+03  0.44206832108E+03  0.00000000000E+00 0. -1.
          1   -1    0    0  501    0 -0.00000000000E+00 -0.00000000000E+00 -0.77214097557E+03  0.77214097557E+03  0.00000000000E+00 0. -1.
         25    2    1    2    0    0 -0.76111056643E+02 -0.63399874534E+02 -0.21233972990E+03  0.26556708579E+03  0.12500111651E+03 0.  0.
          2    1    1    2  501    0  0.10451644239E+03  0.11367858553E+03 -0.51990059508E+03  0.54234964396E+03  0.00000000000E+00 0. -1.
          1    1    1    2  502    0 -0.28405385746E+02 -0.50278710998E+02  0.40216767049E+03  0.40629256689E+03  0.00000000000E+00 0. -1.
         22    1    3    3    0    0 -0.96455316230E+02 -0.84763750173E+02 -0.18599817588E+03  0.22601735066E+03  0.00000000000E+00 0.  1.
         22    1    3    3    0    0  0.20344259587E+02  0.21363875639E+02 -0.26341554024E+02  0.39549735130E+02  0.00000000000E+00 0.  1.
</event>
<event>
 7    1  0.6508013E-006  0.1270638E+03  0.7818608E-02  0.1246029E+00
          2   -1    0    0  502    0  0.00000000000E+00  0.00000000000E+00  0.16951028981E+04  0.16951028981E+04  0.00000000000E+00 0. -1.
          1   -1    0    0  501    0 -0.00000000000E+00 -0.00000000000E+00 -0.12384957409E+04  0.12384957409E+04  0.00000000000E+00 0. -1.
         25    2    1    2    0    0  0.18242388086E+03 -0.41081117209E+02  0.35567481413E+03  0.42082694117E+03  0.12499844201E+03 0.  0.
          2    1    1    2  501    0 -0.67044239033E+02  0.87243797532E+02 -0.12004436917E+04  0.12054756187E+04  0.00000000000E+00 0. -1.
          1    1    1    2  502    0 -0.11537964182E+03 -0.46162680323E+02  0.13013760347E+04  0.13072960791E+04  0.00000000000E+00 0. -1.
         22    1    3    3    0    0  0.10934770831E+02  0.61880775766E+01 -0.87457336364E+01  0.15308473930E+02  0.00000000000E+00 0.  1.
         22    1    3    3    0    0  0.17148911002E+03 -0.47269194785E+02  0.36442054777E+03  0.40551846724E+03  0.00000000000E+00 0.  1.
</event>
<event>
 7    1  0.6508013E-006  0.1864536E+03  0.7818608E-02  0.1170750E+00
          2   -1    0    0  502    0  0.00000000000E+00  0.00000000000E+00  0.21136999718E+04  0.21136999718E+04  0.00000000000E+00 0. -1.
          1   -1    0    0  501    0 -0.00000000000E+00 -0.00000000000E+00 -0.27711559712E+03  0.27711559712E+03  0.00000000000E+00 0. -1.
         25    2    1    2    0    0  0.12586177478E+02 -0.64522810873E+02  0.50334969058E+03  0.52278880631E+03  0.12500247998E+03 0.  0.
          2    1    1    2  501    0  0.13626342422E+03  0.14242823075E+03 -0.22593398782E+03  0.29983276764E+03  0.00000000000E+00 0. -1.
          1    1    1    2  502    0 -0.14884960170E+03 -0.77905419876E+02  0.15591686719E+04  0.15681939950E+04  0.00000000000E+00 0. -1.
         22    1    3    3    0    0  0.29708804789E+02 -0.41162176760E+02  0.48678104354E+03  0.48942080281E+03  0.00000000000E+00 0.  1.
         22    1    3    3    0    0 -0.17122627311E+02 -0.23360634113E+02  0.16568647048E+02  0.33368003494E+02  0.00000000000E+00 0.  1.
</event>
<event>
 7    1  0.6508013E-006  0.1133417E+03  0.7818608E-02  0.1425665E+00
          2   -1    0    0  502    0  0.00000000000E+00  0.00000000000E+00  0.33526120259E+03  0.33526120259E+03  0.00000000000E+00 0. -1.
          1   -1    0    0  501    0 -0.00000000000E+00 -0.00000000000E+00 -0.45860993159E+03  0.45860993159E+03  0.00000000000E+00 0. -1.
         25    2    1    2    0    0 -0.68719277714E+02  0.91673025229E+02 -0.77429458213E+02  0.18640477351E+03  0.12500054362E+03 0.  0.
          2    1    1    2  501    0 -0.17846412165E+02 -0.18319577405E+02 -0.31468952735E+03  0.31572709730E+03  0.00000000000E+00 0. -1.
          1    1    1    2  502    0  0.86565689879E+02 -0.73353447824E+02  0.26877025657E+03  0.29173926336E+03  0.00000000000E+00 0. -1.
         22    1    3    3    0    0 -0.33936126279E+02 -0.27395726458E+02 -0.32815041670E+02  0.54580339453E+02  0.00000000000E+00 0. -1.
         22    1    3    3    0    0 -0.34783151435E+02  0.11906875169E+03 -0.44614416543E+02  0.13182443406E+03  0.00000000000E+00 0. -1.
</event>
<event>
 7    1  0.6508013E-006  0.9617235E+02  0.7818608E-02  0.1353470E+00
          2   -1    0    0  502    0  0.00000000000E+00  0.00000000000E+00  0.47315049930E+04  0.47315049930E+04  0.00000000000E+00 0. -1.
          1   -1    0    0  501    0 -0.00000000000E+00 -0.00000000000E+00 -0.26564548931E+03  0.26564548931E+03  0.00000000000E+00 0. -1.
         25    2    1    2    0    0 -0.83993823197E+02 -0.11718929562E+03  0.18748433343E+04  0.18845289102E+04  0.12499356669E+03 0.  0.
          2    1    1    2  501    0  0.70591795255E+02  0.65001999996E+02 -0.25171172547E+03  0.26938309950E+03  0.00000000000E+00 0. -1.
          1    1    1    2  502    0  0.13402027942E+02  0.52187295629E+02  0.28427278948E+04  0.28432384726E+04  0.00000000000E+00 0. -1.
         22    1    3    3    0    0 -0.63176690677E+02 -0.14371722079E+03  0.15185130345E+04  0.15266066192E+04  0.00000000000E+00 0.  1.
         22    1    3    3    0    0 -0.20817132520E+02  0.26527925167E+02  0.35633029981E+03  0.35792229099E+03  0.00000000000E+00 0.  1.
</event>
<event>
 7    1  0.6508013E-006  0.9600377E+02  0.7818608E-02  0.1373748E+00
          2   -1    0    0  502    0  0.00000000000E+00  0.00000000000E+00  0.16510846566E+03  0.16510846566E+03  0.00000000000E+00 0. -1.
          1   -1    0    0  501    0 -0.00000000000E+00 -0.00000000000E+00 -0.78516066472E+03  0.78516066472E+03  0.00000000000E+00 0. -1.
         25    2    1    2    0    0 -0.48979597469E+02 -0.23543624024E+02 -0.35094437593E+03  0.37648344507E+03  0.12499810484E+03 0.  0.
          2    1    1    2  501    0 -0.29892622923E+02 -0.34383012718E+02 -0.40431871548E+03  0.40687760341E+03  0.00000000000E+00 0. -1.
          1    1    1    2  502    0  0.78872220392E+02  0.57926636741E+02  0.13521089235E+03  0.16690808190E+03  0.00000000000E+00 0. -1.
         22    1    3    3    0    0 -0.71489553812E+02  0.10214499354E+02 -0.31198097607E+03  0.32022995134E+03  0.00000000000E+00 0. -1.
         22    1    3    3    0    0  0.22509956344E+02 -0.33758123378E+02 -0.38963399855E+02  0.56253493730E+02  0.00000000000E+00 0. -1.
</event>
<event>
 7    1  0.6508013E-006  0.1043253E+03  0.7818608E-02  0.1302785E+00
          2   -1    0    0  502    0  0.00000000000E+00  0.00000000000E+00  0.13327861986E+03  0.13327861986E+03  0.00000000000E+00 0. -1.
          1   -1    0    0  501    0 -0.00000000000E+00 -0.00000000000E+00 -0.66377620581E+03  0.66377620581E+03  0.00000000000E+00 0. -1.
         25    2    1    2    0    0  0.39456405776E+01 -0.32958868538E+02 -0.12667364236E+02  0.12995575302E+03  0.12500472203E+03 0.  0.
          2    1    1    2  501    0 -0.94871874754E+01  0.11045022535E+03 -0.56529200992E+03  0.57605929859E+03  0.00000000000E+00 0. -1.
          1    1    1    2  502    0  0.55415468978E+01 -0.77491356808E+02  0.47461788208E+02  0.91039774065E+02  0.00000000000E+00 0. -1.
         22    1    3    3    0    0 -0.45979476143E+02 -0.31645952614E+02 -0.43933811285E+02  0.71033501373E+02  0.00000000000E+00 0.  1.
         22    1    3    3    0    0  0.49925116720E+02 -0.13129159243E+01  0.31266447049E+02  0.58922251644E+02  0.00000000000E+00 0.  1.
</event>
<event>
 7    1  0.6508013E-006  0.5257395E+03  0.7818608E-02  0.1178659E+00
          2   -1    0    0  502    0  0.00000000000E+00  0.00000000000E+00  0.16823014254E+04  0.16823014254E+04  0.00000000000E+00 0. -1.
          1   -1    0    0  501    0 -0.00000000000E+00 -0.00000000000E+00 -0.15273957942E+04  0.15273957942E+04  0.00000000000E+00 0. -1.
         25    2    1    2    0    0  0.18526569545E+03  0.46903929250E+03  0.22751030460E+02  0.52006059583E+03  0.12499671247E+03 0.  0.
          2    1    1    2  501    0  0.54309584401E+02  0.41729825992E+01 -0.12282672213E+04  0.12294744047E+04  0.00000000000E+00 0. -1.
          1    1    1    2  502    0 -0.23957527985E+03 -0.47321227510E+03  0.13604218220E+04  0.14601622190E+04  0.00000000000E+00 0. -1.
         22    1    3    3    0    0  0.17239275966E+03  0.33395153601E+03 -0.23858159154E+02  0.37657947865E+03  0.00000000000E+00 0. -1.
         22    1    3    3    0    0  0.12872935795E+02  0.13508775649E+03  0.46609189614E+02  0.14348111718E+03  0.00000000000E+00 0. -1.
</event>
<event>
 7    1  0.6508013E-006  0.7838500E+02  0.7818608E-02  0.1349430E+00
          2   -1    0    0  502    0  0.00000000000E+00  0.00000000000E+00  0.27350043633E+04  0.27350043633E+04  0.00000000000E+00 0. -1.
          1   -1    0    0  501    0 -0.00000000000E+00 -0.00000000000E+00 -0.84171768608E+02  0.84171768608E+02  0.00000000000E+00 0. -1.
         25    2    1    2    0    0  0.20839852040E+02  0.40888406002E+02  0.11622915265E+03  0.17675182808E+03  0.12500332645E+03 0.  0.
          2    1    1    2  501    0 -0.77737583718E+02  0.13026866150E+02 -0.24175016803E+02  0.82445512924E+02  0.00000000000E+00 0. -1.
          1    1    1    2  502    0  0.56897731677E+02 -0.53915272152E+02  0.25587784588E+04  0.25599787909E+04  0.00000000000E+00 0. -1.
         22    1    3    3    0    0  0.53656404053E+02  0.57247897845E+02  0.31722002065E+02  0.84632245146E+02  0.00000000000E+00 0. -1.
         22    1    3    3    0    0 -0.32816552012E+02 -0.16359491843E+02  0.84507150583E+02  0.92119582929E+02  0.00000000000E+00 0. -1.
</event>
<event>
 7    1  0.6508013E-006  0.3780033E+02  0.7818608E-02  0.1525921E+00
          2   -1    0    0  502    0  0.00000000000E+00  0.00000000000E+00  0.22527729218E+04  0.22527729218E+04  0.00000000000E+00 0. -1.
          1   -1    0    0  501    0 -0.00000000000E+00 -0.00000000000E+00 -0.41347364589E+03  0.41347364589E+03  0.00000000000E+00 0. -1.
         25    2    1    2    0    0 -0.21200345585E+02  0.32916403832E+02  0.10914765183E+03  0.17049413148E+03  0.12498837817E+03 0.  0.
          2    1    1    2  501    0  0.37561533592E+02  0.12652297091E+01 -0.38170755067E+03  0.38355328685E+03  0.00000000000E+00 0. -1.
          1    1    1    2  502    0 -0.16361188007E+02 -0.34181633541E+02  0.21118591747E+04  0.21121991493E+04  0.00000000000E+00 0. -1.
         22    1    3    3    0    0  0.94785393118E+01  0.48282191388E+02 -0.67129584260E+01  0.49659606558E+02  0.00000000000E+00 0. -1.
         22    1    3    3    0    0 -0.30678884897E+02 -0.15365787556E+02  0.11586061025E+03  0.12083452492E+03  0.00000000000E+00 0. -1.
</event>
<event>
 7    1  0.9948121E-006  0.4833542E+02  0.7818608E-02  0.1463554E+00
          2   -1    0    0  502    0  0.00000000000E+00  0.00000000000E+00  0.20039214528E+04  0.20039214528E+04  0.00000000000E+00 0. -1.
          1   -1    0    0  501    0 -0.00000000000E+00 -0.00000000000E+00 -0.21385308367E+04  0.21385308367E+04  0.00000000000E+00 0. -1.
         25    2    1    2    0    0 -0.90993779413E+02 -0.51566571837E+01 -0.37610465481E+03  0.40667662746E+03  0.12499883580E+03 0.  0.
          2    1    1    2  501    0  0.43339915901E+02  0.13061217842E+02 -0.17465535793E+04  0.17471400485E+04  0.00000000000E+00 0. -1.
          1    1    1    2  502    0  0.47653863513E+02 -0.79045606579E+01  0.19880488502E+04  0.19886356136E+04  0.00000000000E+00 0. -1.
         22    1    3    3    0    0 -0.37302035469E+02  0.39186289089E+02 -0.51526649754E+02  0.74712801698E+02  0.00000000000E+00 0. -1.
         22    1    3    3    0    0 -0.53691743944E+02 -0.44342946273E+02 -0.32457800505E+03  0.33196382577E+03  0.00000000000E+00 0. -1.
</event>
<event>
 7    1  0.6508013E-006  0.1035288E+03  0.7818608E-02  0.1320095E+00
          2   -1    0    0  502    0  0.00000000000E+00  0.00000000000E+00  0.31209742519E+04  0.31209742519E+04  0.00000000000E+00 0. -1.
          1   -1    0    0  501    0 -0.00000000000E+00 -0.00000000000E+00 -0.41939106595E+03  0.41939106595E+03  0.00000000000E+00 0. -1.
         25    2    1    2    0    0 -0.10637870018E+03 -0.10968874361E+03  0.16582475692E+04  0.16699573594E+04  0.12499813234E+03 0.  0.
          2    1    1    2  501    0  0.28585202455E+02  0.60519488661E+02 -0.40936234359E+03  0.41479784312E+03  0.00000000000E+00 0. -1.
          1    1    1    2  502    0  0.77793497728E+02  0.49169254944E+02  0.14526979604E+04  0.14556101154E+04  0.00000000000E+00 0. -1.
         22    1    3    3    0    0 -0.26049404873E+02  0.22976543403E+02  0.52483958580E+03  0.52598772216E+03  0.00000000000E+00 0.  1.
         22    1    3    3    0    0 -0.80329295309E+02 -0.13266528701E+03  0.11334079834E+04  0.11439696372E+04  0.00000000000E+00 0.  1.
</event>
<event>
 7    1  0.6508013E-006  0.1282708E+03  0.7818608E-02  0.1271186E+00
          2   -1    0    0  502    0  0.00000000000E+00  0.00000000000E+00  0.73629648195E+03  0.73629648195E+03  0.00000000000E+00 0. -1.
          1   -1    0    0  501    0 -0.00000000000E+00 -0.00000000000E+00 -0.47184287585E+03  0.47184287585E+03  0.00000000000E+00 0. -1.
         25    2    1    2    0    0  0.57547419069E+02 -0.16992330996E+03 -0.97485137816E+02  0.23940260813E+03  0.12499847990E+03 0.  0.
          2    1    1    2  501    0 -0.72910320032E+02  0.43829849774E+02 -0.29119411776E+03  0.30336609025E+03  0.00000000000E+00 0. -1.
          1    1    1    2  502    0  0.15362900963E+02  0.12609346018E+03  0.65313286167E+03  0.66537065942E+03  0.00000000000E+00 0. -1.
         22    1    3    3    0    0  0.12182832651E+00 -0.11798413223E+03 -0.10959433184E+03  0.16103163624E+03  0.00000000000E+00 0.  1.
         22    1    3    3    0    0  0.57425590742E+02 -0.51939177727E+02  0.12109194020E+02  0.78370971889E+02  0.00000000000E+00 0.  1.
</event>
<event>
 7    1  0.6508013E-006  0.8321190E+02  0.7818608E-02  0.1412910E+00
          2   -1    0    0  502    0  0.00000000000E+00  0.00000000000E+00  0.67036471630E+03  0.67036471630E+03  0.00000000000E+00 0. -1.
          1   -1    0    0  501    0 -0.00000000000E+00 -0.00000000000E+00 -0.78080072740E+02  0.78080072740E+02  0.00000000000E+00 0. -1.
         25    2    1    2    0    0 -0.11925837133E+01 -0.59289961872E+02  0.17524621336E+03  0.22327723652E+03  0.12499906887E+03 0.  0.
          2    1    1    2  501    0 -0.28755557751E+02  0.83373008195E+02 -0.16674700213E+02  0.89755145948E+02  0.00000000000E+00 0. -1.
          1    1    1    2  502    0  0.29948141464E+02 -0.24083046323E+02  0.43371313042E+03  0.43541240657E+03  0.00000000000E+00 0. -1.
         22    1    3    3    0    0 -0.43464492984E+02 -0.78782328934E+02  0.97597693041E+02  0.13274459382E+03  0.00000000000E+00 0. -1.
         22    1    3    3    0    0  0.42271909271E+02  0.19492367062E+02  0.77648520315E+02  0.90532642699E+02  0.00000000000E+00 0. -1.
</event>
<event>
 7    1  0.6508013E-006  0.6998152E+02  0.7818608E-02  0.1416529E+00
          2   -1    0    0  502    0  0.00000000000E+00  0.00000000000E+00  0.12961638235E+03  0.12961638235E+03  0.00000000000E+00 0. -1.
          1   -1    0    0  501    0 -0.00000000000E+00 -0.00000000000E+00 -0.14387991040E+04  0.14387991040E+04  0.00000000000E+00 0. -1.
         25    2    1    2    0    0 -0.43341498554E+02 -0.79992968888E+01  0.13981369126E+02  0.13328171628E+03  0.12500425178E+03 0.  0.
          2    1    1    2  501    0 -0.32133158759E+02 -0.30686291201E+02 -0.13464505474E+04  0.13471834563E+04  0.00000000000E+00 0. -1.
          1    1    1    2  502    0  0.75474657313E+02  0.38685588089E+02  0.23286456651E+02  0.87950313733E+02  0.00000000000E+00 0. -1.
         22    1    3    3    0    0  0.21601649094E+02  0.40091890333E+02 -0.14191185083E+02  0.47700950181E+02  0.00000000000E+00 0.  1.
         22    1    3    3    0    0 -0.64943147649E+02 -0.48091187222E+02  0.28172554208E+02  0.85580766096E+02  0.00000000000E+00 0.  1.
</event>
<event>
 7    1  0.6508013E-006  0.1599504E+03  0.7818608E-02  0.1268404E+00
          2   -1    0    0  502    0  0.00000000000E+00  0.00000000000E+00  0.11768609068E+04  0.11768609068E+04  0.00000000000E+00 0. -1.
          1   -1    0    0  501    0 -0.00000000000E+00 -0.00000000000E+00 -0.21336974349E+04  0.21336974349E+04  0.00000000000E+00 0. -1.
         25    2    1    2    0    0  0.25792236728E+02  0.96249190179E+02 -0.10677089904E+03  0.19222283546E+03  0.12498178869E+03 0.  0.
          2    1    1    2  501    0 -0.10376642219E+02 -0.16461491279E+03 -0.19796849539E+04  0.19865443012E+04  0.00000000000E+00 0. -1.
          1    1    1    2  502    0 -0.15415594508E+02  0.68365722610E+02  0.11296193249E+04  0.11317912050E+04  0.00000000000E+00 0. -1.
         22    1    3    3    0    0 -0.22453224439E+02  0.10617022112E+03 -0.58607367234E+02  0.12333323411E+03  0.00000000000E+00 0.  1.
         22    1    3    3    0    0  0.48245461167E+02 -0.99210309441E+01 -0.48163531807E+02  0.68889601351E+02  0.00000000000E+00 0.  1.
</event>
<event>
 7    1  0.6508013E-006  0.3767631E+02  0.7818608E-02  0.1549828E+00
          2   -1    0    0  502    0  0.00000000000E+00  0.00000000000E+00  0.16281642561E+03  0.16281642561E+03  0.00000000000E+00 0. -1.
          1   -1    0    0  501    0 -0.00000000000E+00 -0.00000000000E+00 -0.16847160093E+03  0.16847160093E+03  0.00000000000E+00 0. -1.
         25    2    1    2    0    0 -0.17668393855E+02  0.52055157464E+02 -0.24446301125E+02  0.13872225728E+03  0.12499732584E+03 0.  0.
          2    1    1    2  501    0  0.27924463619E+02 -0.16150028994E+02 -0.80372506561E+02  0.86604497088E+02  0.00000000000E+00 0. -1.
          1    1    1    2  502    0 -0.10256069764E+02 -0.35905128471E+02  0.99163632366E+02  0.10596127218E+03  0.00000000000E+00 0. -1.
         22    1    3    3    0    0 -0.53057297634E+02  0.26174640264E+02  0.31990020795E+02  0.67257342020E+02  0.00000000000E+00 0. -1.
         22    1    3    3    0    0  0.35388903779E+02  0.25880517200E+02 -0.56436321920E+02  0.71464915260E+02  0.00000000000E+00 0. -1.
</event>
<event>
 7    1  0.6508013E-006  0.1048973E+03  0.7818608E-02  0.1343971E+00
          2   -1    0    0  502    0  0.00000000000E+00  0.00000000000E+00  0.72143217442E+03  0.72143217442E+03  0.00000000000E+00 0. -1.
          1   -1    0    0  501    0 -0.00000000000E+00 -0.00000000000E+00 -0.75071030955E+03  0.75071030955E+03  0.00000000000E+00 0. -1.
         25    2    1    2    0    0  0.45008585091E+02  0.64853765234E+02 -0.38943928058E+03  0.41655757675E+03  0.12500191158E+03 0.  0.
          2    1    1    2  501    0 -0.92798198201E+02 -0.89076112659E+02 -0.33474892713E+03  0.35861247002E+03  0.00000000000E+00 0. -1.
          1    1    1    2  502    0  0.47789613110E+02  0.24222347425E+02  0.69491007258E+03  0.69697243720E+03  0.00000000000E+00 0. -1.
         22    1    3    3    0    0  0.83724476981E+02  0.28580029868E+02 -0.18087661646E+03  0.20135281606E+03  0.00000000000E+00 0.  1.
         22    1    3    3    0    0 -0.38715891890E+02  0.36273735366E+02 -0.20856266412E+03  0.21520476069E+03  0.00000000000E+00 0.  1.
</event>
<event>
 7    1  0.6508013E-006  0.1592259E+03  0.7818608E-02  0.1236276E+00
          2   -1    0    0  502    0  0.00000000000E+00  0.00000000000E+00  0.32798009397E+03  0.32798009397E+03  0.00000000000E+00 0. -1.
          1   -1    0    0  501    0 -0.00000000000E+00 -0.00000000000E+00 -0.82079886399E+03  0.82079886399E+03  0.00000000000E+00 0. -1.
         25    2    1    2    0    0 -0.78042441123E+02  0.20616272977E+03 -0.23163169822E+02  0.25447065868E+03  0.12500035973E+03 0.  0.
          2    1    1    2  501    0 -0.21542749383E+02 -0.94502912796E+02 -0.65158742673E+03  0.65875721268E+03  0.00000000000E+00 0. -1.
          1    1    1    2  502    0  0.99585190506E+02 -0.11165981697E+03  0.18193182654E+03  0.23555108661E+03  0.00000000000E+00 0. -1.
         22    1    3    3    0    0 -0.10026938136E+03  0.88908465342E+02 -0.94432527070E+01  0.13434224604E+03  0.00000000000E+00 0. -1.
         22    1    3    3    0    0  0.22226940242E+02  0.11725426442E+03 -0.13719917114E+02  0.12012841264E+03  0.00000000000E+00 0. -1.
</event>
<event>
 7    1  0.6508013E-006  0.9228437E+02  0.7818608E-02  0.1410971E+00
          2   -1    0    0  502    0  0.00000000000E+00  0.00000000000E+00  0.20934075327E+03  0.20934075327E+03  0.00000000000E+00 0. -1.
          1   -1    0    0  501    0 -0.00000000000E+00 -0.00000000000E+00 -0.10480990703E+04  0.10480990703E+04  0.00000000000E+00 0. -1.
         25    2    1    2    0    0  0.52549713401E+01  0.88335518782E+02 -0.80259791728E+02  0.17291097657E+03  0.12500317216E+03 0.  0.
          2    1    1    2  501    0  0.29920478772E+02 -0.87837018755E+02 -0.91724723362E+03  0.92192899102E+03  0.00000000000E+00 0. -1.
          1    1    1    2  502    0 -0.35175450112E+02 -0.49850002746E+00  0.15874870828E+03  0.16259985601E+03  0.00000000000E+00 0. -1.
         22    1    3    3    0    0 -0.46053197151E+02  0.18089318651E+02  0.66770111886E+01  0.49926975630E+02  0.00000000000E+00 0.  1.
         22    1    3    3    0    0  0.51308168491E+02  0.70246200131E+02 -0.86936802917E+02  0.12298400094E+03  0.00000000000E+00 0.  1.
</event>
<event>
 7    1  0.6508013E-006  0.3581319E+02  0.7818608E-02  0.1588086E+00
          2   -1    0    0  502    0  0.00000000000E+00  0.00000000000E+00  0.19370221992E+04  0.19370221992E+04  0.00000000000E+00 0. -1.
          1   -1    0    0  501    0 -0.00000000000E+00 -0.00000000000E+00 -0.14842039690E+02  0.14842039690E+02  0.00000000000E+00 0. -1.
         25    2    1    2    0    0  0.14279492935E+02  0.97771197756E+01  0.47116558164E+03  0.48777465126E+03  0.12501043594E+03 0.  0.
          2    1    1    2  501    0 -0.66155601072E+01  0.25871204572E+02  0.21969849761E+02  0.34579750723E+02  0.00000000000E+00 0. -1.
          1    1    1    2  502    0 -0.76639328275E+01 -0.35648324348E+02  0.14290447281E+04  0.14295098369E+04  0.00000000000E+00 0. -1.
         22    1    3    3    0    0 -0.90108712501E+01 -0.54399944930E+02  0.16089993218E+03  0.17008626630E+03  0.00000000000E+00 0.  1.
         22    1    3    3    0    0  0.23290364185E+02  0.64177064706E+02  0.31026564947E+03  0.31768838496E+03  0.00000000000E+00 0.  1.
</event>
<event>
 7    1  0.6508013E-006  0.6354877E+02  0.7818608E-02  0.1497756E+00
          2   -1    0    0  502    0  0.00000000000E+00  0.00000000000E+00  0.15074900866E+04  0.15074900866E+04  0.00000000000E+00 0. -1.
          1   -1    0    0  501    0 -0.00000000000E+00 -0.00000000000E+00 -0.65376578284E+02  0.65376578284E+02  0.00000000000E+00 0. -1.
         25    2    1    2    0    0  0.66688596526E+02 -0.23360479473E+02  0.38708274807E+03  0.41285664896E+03  0.12499791131E+03 0.  0.
          2    1    1    2  501    0 -0.19389541670E+02 -0.18854127675E+02 -0.48034271722E+02  0.55124619875E+02  0.00000000000E+00 0. -1.
          1    1    1    2  502    0 -0.47299054856E+02  0.42214607147E+02  0.11030650320E+04  0.11048853960E+04  0.00000000000E+00 0. -1.
         22    1    3    3    0    0  0.48346420133E+02 -0.19175054091E+02  0.39031705828E+03  0.39376701871E+03  0.00000000000E+00 0. -1.
         22    1    3    3    0    0  0.18342176393E+02 -0.41854253814E+01 -0.32343102141E+01  0.19089630248E+02  0.00000000000E+00 0. -1.
</event>
<event>
 7    1  0.6508013E-006  0.1051174E+03  0.7818608E-02  0.1297192E+00
          2   -1    0    0  502    0  0.00000000000E+00  0.00000000000E+00  0.55086936865E+03  0.55086936865E+03  0.00000000000E+00 0. -1.
          1   -1    0    0  501    0 -0.00000000000E+00 -0.00000000000E+00 -0.83927595141E+03  0.83927595141E+03  0.00000000000E+00 0. -1.
         25    2    1    2    0    0  0.53297097009E+02 -0.23894754014E+02 -0.20304293199E+03  0.24548423649E+03  0.12499815324E+03 0.  0.
          2    1    1    2  501    0  0.43685123022E+02  0.68427841131E+02 -0.60690631809E+03  0.61231204328E+03  0.00000000000E+00 0. -1.
          1    1    1    2  502    0 -0.96982220030E+02 -0.44533087117E+02  0.52154266732E+03  0.53234904028E+03  0.00000000000E+00 0. -1.
         22    1    3    3    0    0  0.57240218533E+02  0.42109807524E+02 -0.11822567528E+03  0.13793835146E+03  0.00000000000E+00 0.  1.
         22    1    3    3    0    0 -0.39431215244E+01 -0.66004561538E+02 -0.84817256714E+02  0.10754588503E+03  0.00000000000E+00 0.  1.
</event>
<event>
 7    1  0.6508013E-006  0.7297969E+02  0.7818608E-02  0.1372932E+00
          2   -1    0    0  502    0  0.00000000000E+00  0.00000000000E+00  0.28407933434E+03  0.28407933434E+03  0.00000000000E+00 0. -1.
          1   -1    0    0  501    0 -0.00000000000E+00 -0.00000000000E+00 -0.14124318322E+04  0.14124318322E+04  0.00000000000E+00 0. -1.
         25    2    1    2    0    0 -0.30529054553E+02 -0.94900426549E+02 -0.48066753213E+02  0.16695055589E+03  0.12499584480E+03 0.  0.
          2    1    1    2  501    0  0.54279115291E+02  0.26354242573E+02 -0.12983473711E+04  0.12997486928E+04  0.00000000000E+00 0. -1.
          1    1    1    2  502    0 -0.23750060738E+02  0.68546183975E+02  0.21806162636E+03  0.22981191791E+03  0.00000000000E+00 0. -1.
         22    1    3    3    0    0 -0.59318301682E+02 -0.11029530793E+03 -0.48507171569E+02  0.13430063872E+03  0.00000000000E+00 0.  1.
         22    1    3    3    0    0  0.28789247129E+02  0.15394881386E+02  0.44041835563E+00  0.32649917174E+02  0.00000000000E+00 0.  1.
</event>
<event>
 7    1  0.6508013E-006  0.4255649E+02  0.7818608E-02  0.1542982E+00
          2   -1    0    0  502    0  0.00000000000E+00  0.00000000000E+00  0.32367760715E+03  0.32367760715E+03  0.00000000000E+00 0. -1.
          1   -1    0    0  501    0 -0.00000000000E+00 -0.00000000000E+00 -0.12857577888E+03  0.12857577888E+03  0.00000000000E+00 0. -1.
         25    2    1    2    0    0  0.68070331749E+01 -0.50146450801E+02  0.46675342215E+00  0.13485586792E+03  0.12499954010E+03 0.  0.
          2    1    1    2  501    0  0.20237022332E+02  0.37513862741E+02 -0.52975482078E+02  0.67994328235E+02  0.00000000000E+00 0. -1.
          1    1    1    2  502    0 -0.27044055507E+02  0.12632588060E+02  0.24761055692E+03  0.24940318987E+03  0.00000000000E+00 0. -1.
         22    1    3    3    0    0  0.44852493236E+02 -0.75758890864E+02  0.78984016048E+01  0.88394233083E+02  0.00000000000E+00 0.  1.
         22    1    3    3    0    0 -0.38045460061E+02  0.25612440063E+02 -0.74316481827E+01  0.46461634840E+02  0.00000000000E+00 0.  1.
</event>
<event>
 7    1  0.6508013E-006  0.1548593E+03  0.7818608E-02  0.1261335E+00
          2   -1    0    0  502    0  0.00000000000E+00  0.00000000000E+00  0.20990238469E+04  0.20990238469E+04  0.00000000000E+00 0. -1.
          1   -1    0    0  501    0 -0.00000000000E+00 -0.00000000000E+00 -0.12572196758E+04  0.12572196758E+04  0.00000000000E+00 0. -1.
         25    2    1    2    0    0  0.15474558463E+03  0.27170619777E+02  0.36988710697E+02  0.20415569085E+03  0.12500777114E+03 0.  0.
          2    1    1    2  501    0 -0.12144424233E+03 -0.97207783096E+02 -0.11677163843E+04  0.11780320926E+04  0.00000000000E+00 0. -1.
          1    1    1    2  502    0 -0.33301342299E+02  0.70037163320E+02  0.19725318446E+04  0.19740557393E+04  0.00000000000E+00 0. -1.
         22    1    3    3    0    0  0.74231471719E+02  0.32833143537E+02 -0.41854831941E+02  0.91324441771E+02  0.00000000000E+00 0. -1.
         22    1    3    3    0    0  0.80514112911E+02 -0.56625237600E+01  0.78843542638E+02  0.11283124908E+03  0.00000000000E+00 0. -1.
</event>
<event>
 7    1  0.6508013E-006  0.1061330E+03  0.7818608E-02  0.1281706E+00
          2   -1    0    0  502    0  0.00000000000E+00  0.00000000000E+00  0.21581833227E+03  0.21581833227E+03  0.00000000000E+00 0. -1.
          1   -1    0    0  501    0 -0.00000000000E+00 -0.00000000000E+00 -0.16917069898E+04  0.16917069898E+04  0.00000000000E+00 0. -1.
         25    2    1    2    0    0  0.14530878389E+02 -0.12904622228E+03  0.42241394597E+02  0.18513123901E+03  0.12500066531E+03 0.  0.
          2    1    1    2  501    0  0.69199250067E+02  0.62083737524E+02 -0.15903887072E+04  0.15931036271E+04  0.00000000000E+00 0. -1.
          1    1    1    2  502    0 -0.83730128456E+02  0.66962484760E+02  0.72258655057E+02  0.12929045598E+03  0.00000000000E+00 0. -1.
         22    1    3    3    0    0  0.49428524995E+02 -0.28712320471E+02 -0.21699277020E+02  0.61142743259E+02  0.00000000000E+00 0.  1.
         22    1    3    3    0    0 -0.34897646607E+02 -0.10033390181E+03  0.63940671618E+02  0.12398849575E+03  0.00000000000E+00 0.  1.
</event>
<event>
 7    1  0.6508013E-006  0.7246202E+02  0.7818608E-02  0.1371602E+00
          2   -1    0    0  502    0  0.00000000000E+00  0.00000000000E+00  0.17054838031E+04  0.17054838031E+04  0.00000000000E+00 0. -1.
          1   -1    0    0  501    0 -0.00000000000E+00 -0.00000000000E+00 -0.28385159742E+03  0.28385159742E+03  0.00000000000E+00 0. -1.
         25    2    1    2    0    0 -0.10593681014E+02  0.66030481222E+02 -0.93830647275E+02  0.17000366707E+03  0.12499922368E+03 0.  0.
          2    1    1    2  501    0 -0.50629731916E+02 -0.60876334173E+02 -0.14101031268E+03  0.16171952912E+03  0.00000000000E+00 0. -1.
          1    1    1    2  502    0  0.61223412930E+02 -0.51541470498E+01  0.16564731656E+04  0.16576122044E+04  0.00000000000E+00 0. -1.
         22    1    3    3    0    0 -0.62290494246E+02  0.32713742200E+02 -0.18489847288E+02  0.72747295859E+02  0.00000000000E+00 0. -1.
         22    1    3    3    0    0  0.51696813232E+02  0.33316739022E+02 -0.75340799987E+02  0.97256371206E+02  0.00000000000E+00 0. -1.
</event>
<event>
 7    1  0.6508013E-006  0.2988922E+03  0.7818608E-02  0.1193244E+00
          2   -1    0    0  502    0  0.00000000000E+00  0.00000000000E+00  0.21719249839E+04  0.21719249839E+04  0.00000000000E+00 0. -1.
          1   -1    0    0  501    0 -0.00000000000E+00 -0.00000000000E+00 -0.30608621089E+03  0.30608621089E+03  0.00000000000E+00 0. -1.
         25    2    1    2    0    0 -0.16982904672E+03 -0.31283443137E+03  0.14985064181E+03  0.40593754358E+03  0.12499115118E+03 0.  0.
          2    1    1    2  501    0  0.14689035951E+03  0.23467036380E+03 -0.68924966579E+02  0.28530266101E+03  0.00000000000E+00 0. -1.
          1    1    1    2  502    0  0.22938687211E+02  0.78164067573E+02  0.17849130978E+04  0.17867709903E+04  0.00000000000E+00 0. -1.
         22    1    3    3    0    0 -0.53358645448E+02 -0.21440532736E+03  0.11675099698E+03  0.24989514749E+03  0.00000000000E+00 0. -1.
         22    1    3    3    0    0 -0.11647040127E+03 -0.98429104008E+02  0.33099644838E+02  0.15604239609E+03  0.00000000000E+00 0. -1.
</event>
<event>
 7    1  0.6508013E-006  0.9875015E+02  0.7818608E-02  0.1319746E+00
          2   -1    0    0  502    0  0.00000000000E+00  0.00000000000E+00  0.15958463338E+04  0.15958463338E+04  0.00000000000E+00 0. -1.
          1   -1    0    0  501    0 -0.00000000000E+00 -0.00000000000E+00 -0.98617292982E+02  0.98617292982E+02  0.00000000000E+00 0. -1.
         25    2    1    2    0    0  0.20647199666E+01  0.52853542948E+02  0.40475462495E+02  0.14162338573E+03  0.12498464006E+03 0.  0.
          2    1    1    2  501    0 -0.65703127669E+02  0.25252008852E+02 -0.19589290792E+02  0.73063706793E+02  0.00000000000E+00 0. -1.
          1    1    1    2  502    0  0.63638407703E+02 -0.78105551800E+02  0.14763428691E+04  0.14797765342E+04  0.00000000000E+00 0. -1.
         22    1    3    3    0    0 -0.57307040216E+02  0.39806704348E+02  0.22438052154E+01  0.69811927571E+02  0.00000000000E+00 0.  1.
         22    1    3    3    0    0  0.59371760182E+02  0.13046838600E+02  0.38231657280E+02  0.71811458159E+02  0.00000000000E+00 0.  1.
</event>
<event>
 7    1  0.6508013E-006  0.1393080E+03  0.7818608E-02  0.1258994E+00
          2   -1    0    0  502    0  0.00000000000E+00  0.00000000000E+00  0.73913073004E+03  0.73913073004E+03  0.00000000000E+00 0. -1.
          1   -1    0    0  501    0 -0.00000000000E+00 -0.00000000000E+00 -0.62633349265E+03  0.62633349265E+03  0.00000000000E+00 0. -1.
         25    2    1    2    0    0 -0.20723367414E+03  0.54818207149E+02  0.23412546988E+03  0.34115534962E+03  0.12498562075E+03 0.  0.
          2    1    1    2  501    0  0.86998905695E+02 -0.14589353464E+02 -0.56039882475E+03  0.56729930513E+03  0.00000000000E+00 0. -1.
          1    1    1    2  502    0  0.12023476845E+03 -0.40228853684E+02  0.43907059225E+03  0.45700956794E+03  0.00000000000E+00 0. -1.
         22    1    3    3    0    0 -0.20215534016E+03  0.81695507325E+02  0.18983336035E+03  0.28909798023E+03  0.00000000000E+00 0. -1.
         22    1    3    3    0    0 -0.50783339823E+01 -0.26877300176E+02  0.44292109534E+02  0.52057369390E+02  0.00000000000E+00 0. -1.
</event>
<event>
 7    1  0.6508013E-006  0.5575542E+02  0.7818608E-02  0.1492783E+00
          2   -1    0    0  502    0  0.00000000000E+00  0.00000000000E+00  0.55822324880E+03  0.55822324880E+03  0.00000000000E+00 0. -1.
          1   -1    0    0  501    0 -0.00000000000E+00 -0.00000000000E+00 -0.32799259761E+02  0.32799259761E+02  0.00000000000E+00 0. -1.
         25    2    1    2    0    0  0.29492875708E+02  0.40274589335E+02  0.35374196637E+03  0.37848010529E+03  0.12498775566E+03 0.  0.
          2    1    1    2  501    0 -0.53883902563E+02 -0.19709088115E+02  0.25268250047E+02  0.62692962685E+02  0.00000000000E+00 0. -1.
          1    1    1    2  502    0  0.24391026855E+02 -0.20565501220E+02  0.14641377262E+03  0.14984944059E+03  0.00000000000E+00 0. -1.
         22    1    3    3    0    0  0.60854974004E+02  0.40265193447E+02  0.10556855000E+03  0.12833289685E+03  0.00000000000E+00 0.  1.
         22    1    3    3    0    0 -0.31362098296E+02  0.93958881226E-02  0.24817341637E+03  0.25014720844E+03  0.00000000000E+00 0.  1.
</event>
<event>
 7    1  0.6508013E-006  0.3182436E+02  0.7818608E-02  0.1587667E+00
          2   -1    0    0  502    0  0.00000000000E+00  0.00000000000E+00  0.52288640347E+03  0.52288640347E+03  0.00000000000E+00 0. -1.
          1   -1    0    0  501    0 -0.00000000000E+00 -0.00000000000E+00 -0.34526346268E+03  0.34526346268E+03  0.00000000000E+00 0. -1.
         25    2    1    2    0    0  0.16400830453E+01  0.86309022569E+01 -0.22921990402E+03  0.26124244041E+03  0.12501466284E+03 0.  0.
          2    1    1    2  501    0  0.29881752210E+02 -0.38407647575E+01 -0.97248710254E+02  0.10180855679E+03  0.00000000000E+00 0. -1.
          1    1    1    2  502    0 -0.31521835256E+02 -0.47901374994E+01  0.50409155508E+03  0.50509886895E+03  0.00000000000E+00 0. -1.
         22    1    3    3    0    0  0.27964973673E+02  0.36359827182E+02 -0.22638444712E+02  0.51152477596E+02  0.00000000000E+00 0. -1.
         22    1    3    3    0    0 -0.26324890628E+02 -0.27728924925E+02 -0.20658145931E+03  0.21008996282E+03  0.00000000000E+00 0. -1.
</event>
<event>
 7    1  0.6508013E-006  0.1560940E+03  0.7818608E-02  0.1345655E+00
          2   -1    0    0  502    0  0.00000000000E+00  0.00000000000E+00  0.28522872833E+03  0.28522872833E+03  0.00000000000E+00 0. -1.
          1   -1    0    0  501    0 -0.00000000000E+00 -0.00000000000E+00 -0.60454625712E+03  0.60454625712E+03  0.00000000000E+00 0. -1.
         25    2    1    2    0    0  0.92942677939E+02 -0.10877038749E+03 -0.21180911920E+03  0.28453068055E+03  0.12500106647E+03 0.  0.
          2    1    1    2  501    0  0.32794245995E+02  0.13560393169E+02 -0.33034237746E+03  0.33224303331E+03  0.00000000000E+00 0. -1.
          1    1    1    2  502    0 -0.12573692393E+03  0.95209994325E+02  0.22283396787E+03  0.27300127160E+03  0.00000000000E+00 0. -1.
         22    1    3    3    0    0  0.21669398473E+02 -0.11545930800E+03 -0.11775977069E+03  0.16633634067E+03  0.00000000000E+00 0. -1.
         22    1    3    3    0    0  0.71273279466E+02  0.66889205100E+01 -0.94049348512E+02  0.11819433988E+03  0.00000000000E+00 0. -1.
</event>
<event>
 7    1  0.1385422E-005  0.5834227E+02  0.7818608E-02  0.1463545E+00
          2   -1    0    0  502    0  0.00000000000E+00  0.00000000000E+00  0.17637165656E+04  0.17637165656E+04  0.00000000000E+00 0. -1.
          1   -1    0    0  501    0 -0.00000000000E+00 -0.00000000000E+00 -0.16329763144E+04  0.16329763144E+04  0.00000000000E+00 0. -1.
         25    2    1    2    0    0  0.36785053825E+02  0.60209341326E+02 -0.19091951473E+03  0.23885865783E+03  0.12499956938E+03 0.  0.
          2    1    1    2  501    0 -0.37457103812E+02 -0.18742821103E+01 -0.14173500374E+04  0.14178461398E+04  0.00000000000E+00 0. -1.
          1    1    1    2  502    0  0.67204998748E+00 -0.58335059215E+02  0.17390098034E+04  0.17399880824E+04  0.00000000000E+00 0. -1.
         22    1    3    3    0    0  0.82517810145E+02  0.27111446097E+02 -0.12221758567E+03  0.14993784628E+03  0.00000000000E+00 0. -1.
         22    1    3    3    0    0 -0.45732756320E+02  0.33097895229E+02 -0.68701929061E+02  0.88920811545E+02  0.00000000000E+00 0. -1.
</event>
<event>
 7    1  0.6508013E-006  0.5190923E+02  0.7818608E-02  0.1569655E+00
          2   -1    0    0  502    0  0.00000000000E+00  0.00000000000E+00  0.60618042471E+03  0.60618042471E+03  0.00000000000E+00 0. -1.
          1   -1    0    0  501    0 -0.00000000000E+00 -0.00000000000E+00 -0.60230863367E+02  0.60230863367E+02  0.00000000000E+00 0. -1.
         25    2    1    2    0    0 -0.23639201708E+02 -0.52175213998E+02  0.26466648127E+03  0.29825327478E+03  0.12500241918E+03 0.  0.
          2    1    1    2  501    0  0.20638594921E+02  0.59969427475E+00 -0.38789709942E+02  0.43942608376E+02  0.00000000000E+00 0. -1.
          1    1    1    2  502    0  0.30006067875E+01  0.51575519723E+02  0.32007279002E+03  0.32421540491E+03  0.00000000000E+00 0. -1.
         22    1    3    3    0    0 -0.61651013791E+02 -0.66286711228E+02  0.13619714439E+03  0.16353726709E+03  0.00000000000E+00 0.  1.
         22    1    3    3    0    0  0.38011812082E+02  0.14111497230E+02  0.12846933688E+03  0.13471600770E+03  0.00000000000E+00 0.  1.
</event>
<event>
 7    1  0.6508013E-006  0.2575818E+03  0.7818608E-02  0.1154583E+00
          2   -1    0    0  502    0  0.00000000000E+00  0.00000000000E+00  0.34000818908E+03  0.34000818908E+03  0.00000000000E+00 0. -1.
          1   -1    0    0  501    0 -0.00000000000E+00 -0.00000000000E+00 -0.15825251662E+04  0.15825251662E+04  0.00000000000E+00 0. -1.
         25    2    1    2    0    0  0.26825217691E+03 -0.28487776657E+03 -0.10863900063E+03  0.42490220177E+03  0.12499950521E+03 0.  0.
          2    1    1    2  501    0 -0.15200340820E+03  0.19545772573E+03 -0.12721755339E+04  0.12960475870E+04  0.00000000000E+00 0. -1.
          1    1    1    2  502    0 -0.11624876871E+03  0.89420040845E+02  0.13829755739E+03  0.20158356657E+03  0.00000000000E+00 0. -1.
         22    1    3    3    0    0  0.25382185339E+03 -0.29783798838E+03 -0.10193921380E+03  0.40438175514E+03  0.00000000000E+00 0.  1.
         22    1    3    3    0    0  0.14430323517E+02  0.12960221806E+02 -0.66997868351E+01  0.20520446626E+02  0.00000000000E+00 0.  1.
</event>
<event>
 7    1  0.6508013E-006  0.8982230E+02  0.7818608E-02  0.1357393E+00
          2   -1    0    0  502    0  0.00000000000E+00  0.00000000000E+00  0.79724255421E+03  0.79724255421E+03  0.00000000000E+00 0. -1.
          1   -1    0    0  501    0 -0.00000000000E+00 -0.00000000000E+00 -0.29412676748E+03  0.29412676748E+03  0.00000000000E+00 0. -1.
         25    2    1    2    0    0  0.10748813423E+01  0.11832041813E+03  0.25318566239E+03  0.30616960767E+03  0.12504388152E+03 0.  0.
          2    1    1    2  501    0 -0.39154012101E+02 -0.39766054969E+02 -0.26098263278E+03  0.26688257794E+03  0.00000000000E+00 0. -1.
          1    1    1    2  502    0  0.38079130759E+02 -0.78554363157E+02  0.51091275712E+03  0.51831713608E+03  0.00000000000E+00 0. -1.
         22    1    3    3    0    0  0.11177075886E+02  0.89519143166E+02  0.55022406105E+02  0.10566962284E+03  0.00000000000E+00 0. -1.
         22    1    3    3    0    0 -0.10102194544E+02  0.28801274960E+02  0.19816325629E+03  0.20049998483E+03  0.00000000000E+00 0. -1.
</event>
<event>
 7    1  0.6508013E-006  0.4828766E+02  0.7818608E-02  0.1518723E+00
          2   -1    0    0  502    0  0.00000000000E+00  0.00000000000E+00  0.16157072352E+04  0.16157072352E+04  0.00000000000E+00 0. -1.
          1   -1    0    0  501    0 -0.00000000000E+00 -0.00000000000E+00 -0.23680346508E+02  0.23680346508E+02  0.00000000000E+00 0. -1.
         25    2    1    2    0    0 -0.19311954331E+02 -0.39083844686E+02  0.85734273140E+03  0.86749902019E+03  0.12496996618E+03 0.  0.
          2    1    1    2  501    0  0.44167622533E+02  0.20782745455E+02  0.14329264049E+02  0.50872676330E+02  0.00000000000E+00 0. -1.
          1    1    1    2  502    0 -0.24855668202E+02  0.18301099231E+02  0.72035489321E+03  0.72101588515E+03  0.00000000000E+00 0. -1.
         22    1    3    3    0    0 -0.62483641148E+02 -0.57503422597E+02  0.58736427746E+03  0.59347084466E+03  0.00000000000E+00 0. -1.
         22    1    3    3    0    0  0.43171686817E+02  0.18419577912E+02  0.26997845393E+03  0.27402817553E+03  0.00000000000E+00 0. -1.
</event>
<event>
 7    1  0.6508013E-006  0.1936406E+03  0.7818608E-02  0.1290313E+00
          2   -1    0    0  502    0  0.00000000000E+00  0.00000000000E+00  0.20733581554E+04  0.20733581554E+04  0.00000000000E+00 0. -1.
          1   -1    0    0  501    0 -0.00000000000E+00 -0.00000000000E+00 -0.87096949151E+02  0.87096949151E+02  0.00000000000E+00 0. -1.
         25    2    1    2    0    0 -0.12849650066E+03 -0.16088366278E+03  0.52223636235E+03  0.57510938589E+03  0.12500033579E+03 0.  0.
          2    1    1    2  501    0  0.14983939458E+03  0.11902622968E+03  0.91666814573E+02  0.21218362900E+03  0.00000000000E+00 0. -1.
          1    1    1    2  502    0 -0.21342893926E+02  0.41857433102E+02  0.13723580293E+04  0.13731620896E+04  0.00000000000E+00 0. -1.
         22    1    3    3    0    0 -0.31577217022E+02 -0.13635048036E+03  0.32929465281E+03  0.35780377653E+03  0.00000000000E+00 0. -1.
         22    1    3    3    0    0 -0.96919283635E+02 -0.24533182424E+02  0.19294170954E+03  0.21730560936E+03  0.00000000000E+00 0. -1.
</event>
<event>
 7    1  0.6508013E-006  0.1424351E+03  0.7818608E-02  0.1307836E+00
          2   -1    0    0  502    0  0.00000000000E+00  0.00000000000E+00  0.19457658995E+04  0.19457658995E+04  0.00000000000E+00 0. -1.
          1   -1    0    0  501    0 -0.00000000000E+00 -0.00000000000E+00 -0.16408748427E+03  0.16408748427E+03  0.00000000000E+00 0. -1.
         25    2    1    2    0    0  0.93293854608E+02  0.11257821247E+03  0.52256350787E+03  0.55684092003E+03  0.12498637219E+03 0.  0.
          2    1    1    2  501    0 -0.12524500787E+03 -0.68629994396E+02 -0.11158312365E+03  0.18123791438E+03  0.00000000000E+00 0. -1.
          1    1    1    2  502    0  0.31951153263E+02 -0.43948218075E+02  0.13706980310E+04  0.13717745494E+04  0.00000000000E+00 0. -1.
         22    1    3    3    0    0  0.92808321979E+02  0.63794208190E+02  0.19117488348E+03  0.22188042208E+03  0.00000000000E+00 0.  1.
         22    1    3    3    0    0  0.48553262974E+00  0.48784004281E+02  0.33138862439E+03  0.33496049795E+03  0.00000000000E+00 0.  1.
</event>
<event>
 7    1  0.6508013E-006  0.1123805E+03  0.7818608E-02  0.1312019E+00
          2   -1    0    0  502    0  0.00000000000E+00  0.00000000000E+00  0.59109332963E+03  0.59109332963E+03  0.00000000000E+00 0. -1.
          1   -1    0    0  501    0 -0.00000000000E+00 -0.00000000000E+00 -0.53112663201E+03  0.53112663201E+03  0.00000000000E+00 0. -1.
         25    2    1    2    0    0  0.33730995228E+00  0.49450179447E+02 -0.14230706367E+03  0.19576041147E+03  0.12500161721E+03 0.  0.
          2    1    1    2  501    0 -0.18395333059E+02  0.63698352988E+02 -0.35316039918E+03  0.35933012120E+03  0.00000000000E+00 0. -1.
          1    1    1    2  502    0  0.18058023107E+02 -0.11314853244E+03  0.55543416046E+03  0.56712942897E+03  0.00000000000E+00 0. -1.
         22    1    3    3    0    0  0.31119692463E+02  0.56150754425E+02 -0.15014758894E+03  0.16329617554E+03  0.00000000000E+00 0.  1.
         22    1    3    3    0    0 -0.30782382511E+02 -0.67005749772E+01  0.78405252749E+01  0.32464235932E+02  0.00000000000E+00 0.  1.
</event>
<event>
 7    1  0.6508013E-006  0.1194286E+03  0.7818608E-02  0.1315386E+00
          2   -1    0    0  502    0  0.00000000000E+00  0.00000000000E+00  0.22185944013E+03  0.22185944013E+03  0.00000000000E+00 0. -1.
          1   -1    0    0  501    0 -0.00000000000E+00 -0.00000000000E+00 -0.28891837873E+03  0.28891837873E+03  0.00000000000E+00 0. -1.
         25    2    1    2    0    0  0.67530405782E+02  0.41944941965E+02 -0.11305654296E+03  0.18635099300E+03  0.12500070729E+03 0.  0.
          2    1    1    2  501    0  0.56886241229E+02 -0.20659514120E+02 -0.10891498435E+03  0.12460069735E+03  0.00000000000E+00 0. -1.
          1    1    1    2  502    0 -0.12441664701E+03 -0.21285427845E+02  0.15491258872E+03  0.19982612851E+03  0.00000000000E+00 0. -1.
         22    1    3    3    0    0  0.52430215723E+02 -0.38249679685E+02 -0.36508956841E+02  0.74463880146E+02  0.00000000000E+00 0. -1.
         22    1    3    3    0    0  0.15100190059E+02  0.80194621650E+02 -0.76547586119E+02  0.11188711285E+03  0.00000000000E+00 0. -1.
</event>
<event>
 7    1  0.6508013E-006  0.3340354E+03  0.7818608E-02  0.1174112E+00
          2   -1    0    0  502    0  0.00000000000E+00  0.00000000000E+00  0.29694226687E+04  0.29694226687E+04  0.00000000000E+00 0. -1.
          1   -1    0    0  501    0 -0.00000000000E+00 -0.00000000000E+00 -0.11355997358E+03  0.11355997358E+03  0.00000000000E+00 0. -1.
         25    2    1    2    0    0  0.51915207261E+02  0.38287489416E+03  0.10285005484E+04  0.11057695880E+04  0.12499852132E+03 0.  0.
          2    1    1    2  501    0 -0.95422719491E+02 -0.30379864412E+03  0.27072246050E+03  0.41795904366E+03  0.00000000000E+00 0. -1.
          1    1    1    2  502    0  0.43507512230E+02 -0.79076250042E+02  0.15566396863E+04  0.15592540107E+04  0.00000000000E+00 0. -1.
         22    1    3    3    0    0  0.31444879818E+02  0.12575012440E+03  0.20251041989E+03  0.24044197723E+03  0.00000000000E+00 0.  1.
         22    1    3    3    0    0  0.20470327443E+02  0.25712476976E+03  0.82599012851E+03  0.86532761075E+03  0.00000000000E+00 0.  1.
</event>
<event>
 7    1  0.6508013E-006  0.5419987E+03  0.7818608E-02  0.1191688E+00
          2   -1    0    0  502    0  0.00000000000E+00  0.00000000000E+00  0.21107917412E+04  0.21107917412E+04  0.00000000000E+00 0. -1.
          1   -1    0    0  501    0 -0.00000000000E+00 -0.00000000000E+00 -0.46783270113E+03  0.46783270113E+03  0.00000000000E+00 0. -1.
         25    2    1    2    0    0 -0.20735892447E+03  0.46561531778E+03  0.67839424350E+03  0.85769433896E+03  0.12500192704E+03 0.  0.
          2    1    1    2  501    0  0.24330656146E+03 -0.49382996486E+03 -0.17713937399E+03  0.57831174540E+03  0.00000000000E+00 0. -1.
          1    1    1    2  502    0 -0.35947636987E+02  0.28214647079E+02  0.11417041705E+04  0.11426183579E+04  0.00000000000E+00 0. -1.
         22    1    3    3    0    0  0.35454955868E+01  0.19496908798E+02  0.78293369385E+02  0.80762315973E+02  0.00000000000E+00 0.  1.
         22    1    3    3    0    0 -0.21090442006E+03  0.44611840898E+03  0.60010087411E+03  0.77693202299E+03  0.00000000000E+00 0.  1.
</event>
<event>
 7    1  0.1420326E-005  0.8019548E+02  0.7818608E-02  0.1392063E+00
          2   -1    0    0  502    0  0.00000000000E+00  0.00000000000E+00  0.17390310940E+04  0.17390310940E+04  0.00000000000E+00 0. -1.
          1   -1    0    0  501    0 -0.00000000000E+00 -0.00000000000E+00 -0.15021036411E+04  0.15021036411E+04  0.00000000000E+00 0. -1.
         25    2    1    2    0    0 -0.58878145665E+02  0.50488766623E+02 -0.48789495742E+03  0.50959033599E+03  0.12500027786E+03 0.  0.
          2    1    1    2  501    0 -0.20907872298E+02 -0.42098275827E+02 -0.10018786195E+04  0.10029806440E+04  0.00000000000E+00 0. -1.
          1    1    1    2  502    0  0.79786017963E+02 -0.83904907960E+01  0.17267010299E+04  0.17285637551E+04  0.00000000000E+00 0. -1.
         22    1    3    3    0    0 -0.12368814263E+02  0.63591535779E+02 -0.42684002190E+03  0.43172824240E+03  0.00000000000E+00 0. -1.
         22    1    3    3    0    0 -0.46509331402E+02 -0.13102769156E+02 -0.61054935522E+02  0.77862093593E+02  0.00000000000E+00 0. -1.
</event>
<event>
 7    1  0.6508013E-006  0.2395048E+03  0.7818608E-02  0.1128804E+00
          2   -1    0    0  502    0  0.00000000000E+00  0.00000000000E+00  0.46952618974E+03  0.46952618974E+03  0.00000000000E+00 0. -1.
          1   -1    0    0  501    0 -0.00000000000E+00 -0.00000000000E+00 -0.18619850663E+04  0.18619850663E+04  0.00000000000E+00 0. -1.
         25    2    1    2    0    0  0.36209619415E+02 -0.16053626250E+02 -0.75814235491E+03  0.76939715027E+03  0.12499315613E+03 0.  0.
          2    1    1    2  501    0  0.11218406810E+03 -0.18347649544E+03 -0.10532278574E+04  0.10749594454E+04  0.00000000000E+00 0. -1.
          1    1    1    2  502    0 -0.14839368752E+03  0.19953012169E+03  0.41891133576E+03  0.48715466044E+03  0.00000000000E+00 0. -1.
         22    1    3    3    0    0 -0.32860550881E+02 -0.32565414771E+02 -0.48398979367E+03  0.48619588894E+03  0.00000000000E+00 0. -1.
         22    1    3    3    0    0  0.69070170296E+02  0.16511788520E+02 -0.27415256124E+03  0.28320126133E+03  0.00000000000E+00 0. -1.
</event>
<event>
 7    1  0.6508013E-006  0.4904817E+02  0.7818608E-02  0.1504273E+00
          2   -1    0    0  502    0  0.00000000000E+00  0.00000000000E+00  0.13806620271E+03  0.13806620271E+03  0.00000000000E+00 0. -1.
          1   -1    0    0  501    0 -0.00000000000E+00 -0.00000000000E+00 -0.46146967165E+04  0.46146967165E+04  0.00000000000E+00 0. -1.
         25    2    1    2    0    0 -0.44245652019E+02 -0.16523849897E+02 -0.18418140194E+04  0.18466552333E+04  0.12500381216E+03 0.  0.
          2    1    1    2  501    0  0.47273458022E+02 -0.16847082865E+02 -0.27681618327E+04  0.27686167189E+04  0.00000000000E+00 0. -1.
          1    1    1    2  502    0 -0.30278060031E+01  0.33370932763E+02  0.13334533835E+03  0.13749096705E+03  0.00000000000E+00 0. -1.
         22    1    3    3    0    0  0.23139960584E+02  0.15504033321E+02 -0.12290687083E+04  0.12293842860E+04  0.00000000000E+00 0.  1.
         22    1    3    3    0    0 -0.67385612603E+02 -0.32027883218E+02 -0.61274531109E+03  0.61727094728E+03  0.00000000000E+00 0.  1.
</event>
<event>
 7    1  0.6508013E-006  0.7752817E+02  0.7818608E-02  0.1512778E+00
          2   -1    0    0  502    0  0.00000000000E+00  0.00000000000E+00  0.14730449132E+03  0.14730449132E+03  0.00000000000E+00 0. -1.
          1   -1    0    0  501    0 -0.00000000000E+00 -0.00000000000E+00 -0.15106401077E+04  0.15106401077E+04  0.00000000000E+00 0. -1.
         25    2    1    2    0    0  0.42033033168E+02  0.46894999517E+02 -0.25610196817E+03  0.29185571729E+03  0.12500249901E+03 0.  0.
          2    1    1    2  501    0 -0.61989641056E+02 -0.48343020923E+02 -0.12346303161E+04  0.12371304623E+04  0.00000000000E+00 0. -1.
          1    1    1    2  502    0  0.19956607888E+02  0.14480214060E+01  0.12739666787E+03  0.12895841946E+03  0.00000000000E+00 0. -1.
         22    1    3    3    0    0  0.35283627045E+02  0.81631296409E+02 -0.23351461393E+03  0.24987532453E+03  0.00000000000E+00 0. -1.
         22    1    3    3    0    0  0.67494061233E+01 -0.34736296892E+02 -0.22587354235E+02  0.41980392759E+02  0.00000000000E+00 0. -1.
</event>
<event>
 7    1  0.6508013E-006  0.1246093E+03  0.7818608E-02  0.1270130E+00
          2   -1    0    0  502    0  0.00000000000E+00  0.00000000000E+00  0.23324115536E+04  0.23324115536E+04  0.00000000000E+00 0. -1.
          1   -1    0    0  501    0 -0.00000000000E+00 -0.00000000000E+00 -0.56168930926E+03  0.56168930926E+03  0.00000000000E+00 0. -1.
         25    2    1    2    0    0 -0.11944800053E+03 -0.10185605093E+03  0.11492829457E+04  0.11666698594E+04  0.12499916643E+03 0.  0.
          2    1    1    2  501    0  0.32893581143E+02  0.12015558562E+03 -0.54428242278E+03  0.55835715110E+03  0.00000000000E+00 0. -1.
          1    1    1    2  502    0  0.86554419384E+02 -0.18299534689E+02  0.11657217215E+04  0.11690738524E+04  0.00000000000E+00 0. -1.
         22    1    3    3    0    0 -0.75696442323E+02 -0.27501415363E+02  0.23686865454E+03  0.25018600827E+03  0.00000000000E+00 0. -1.
         22    1    3    3    0    0 -0.43751558204E+02 -0.74354635567E+02  0.91241429114E+03  0.91648385111E+03  0.00000000000E+00 0. -1.
</event>
<event>
 7    1  0.6508013E-006  0.1537831E+03  0.7818608E-02  0.1291989E+00
          2   -1    0    0  502    0  0.00000000000E+00  0.00000000000E+00  0.58788614490E+03  0.58788614490E+03  0.00000000000E+00 0. -1.
          1   -1    0    0  501    0 -0.00000000000E+00 -0.00000000000E+00 -0.41720679501E+03  0.41720679501E+03  0.00000000000E+00 0. -1.
         25    2    1    2    0    0  0.24206026020E+02 -0.10000826922E+03  0.82383671678E+02  0.18165977308E+03  0.12500247273E+03 0.  0.
          2    1    1    2  501    0 -0.28161483935E+02  0.15811638172E+03 -0.34799715167E+03  0.38326997914E+03  0.00000000000E+00 0. -1.
          1    1    1    2  502    0  0.39554579146E+01 -0.58108112499E+02  0.43629282988E+03  0.44016318769E+03  0.00000000000E+00 0. -1.
         22    1    3    3    0    0 -0.44729721907E+02 -0.38048461792E+02  0.64561790628E+02  0.87273468338E+02  0.00000000000E+00 0. -1.
         22    1    3    3    0    0  0.68935747927E+02 -0.61959807425E+02  0.17821881051E+02  0.94386304740E+02  0.00000000000E+00 0. -1.
</event>
<event>
 7    1  0.6508013E-006  0.6812682E+02  0.7818608E-02  0.1473322E+00
          2   -1    0    0  502    0  0.00000000000E+00  0.00000000000E+00  0.82270318687E+03  0.82270318687E+03  0.00000000000E+00 0. -1.
          1   -1    0    0  501    0 -0.00000000000E+00 -0.00000000000E+00 -0.90579746237E+03  0.90579746237E+03  0.00000000000E+00 0. -1.
         25    2    1    2    0    0  0.72438961902E+02 -0.52329485434E+02  0.61222767105E+03  0.63121694686E+03  0.12500533809E+03 0.  0.
          2    1    1    2  501    0 -0.63851360297E+02  0.23646688635E+02 -0.89388574471E+03  0.89647525716E+03  0.00000000000E+00 0. -1.
          1    1    1    2  502    0 -0.85876016044E+01  0.28682796800E+02  0.19856379816E+03  0.20080844522E+03  0.00000000000E+00 0. -1.
         22    1    3    3    0    0 -0.24032525213E+02  0.16422078258E+02  0.63585334137E+02  0.69930977683E+02  0.00000000000E+00 0. -1.
         22    1    3    3    0    0  0.96471487115E+02 -0.68751563692E+02  0.54864233691E+03  0.56128596917E+03  0.00000000000E+00 0. -1.
</event>
<event>
 7    1  0.6508013E-006  0.9794886E+02  0.7818608E-02  0.1424340E+00
          2   -1    0    0  502    0  0.00000000000E+00  0.00000000000E+00  0.14004798111E+04  0.14004798111E+04  0.00000000000E+00 0. -1.
          1   -1    0    0  501    0 -0.00000000000E+00 -0.00000000000E+00 -0.22162054190E+03  0.22162054190E+03  0.00000000000E+00 0. -1.
         25    2    1    2    0    0  0.10415435937E+03  0.49635931695E+02  0.54330835082E+03  0.56931526590E+03  0.12499620645E+03 0.  0.
          2    1    1    2  501    0 -0.28831966008E+02  0.79034645090E+01 -0.20486808808E+03  0.20703787221E+03  0.00000000000E+00 0. -1.
          1    1    1    2  502    0 -0.75322393365E+02 -0.57539396204E+02  0.84041900647E+03  0.84574721489E+03  0.00000000000E+00 0. -1.
         22    1    3    3    0    0  0.44104273633E+02 -0.23229527270E+02  0.35682833593E+03  0.36029329609E+03  0.00000000000E+00 0. -1.
         22    1    3    3    0    0  0.60050085740E+02  0.72865458965E+02  0.18648001489E+03  0.20902196980E+03  0.00000000000E+00 0. -1.
</event>
<event>
 7    1  0.6508013E-006  0.5051246E+02  0.7818608E-02  0.1448129E+00
          2   -1    0    0  502    0  0.00000000000E+00  0.00000000000E+00  0.59196307960E+03  0.59196307960E+03  0.00000000000E+00 0. -1.
          1   -1    0    0  501    0 -0.00000000000E+00 -0.00000000000E+00 -0.12598796417E+03  0.12598796417E+03  0.00000000000E+00 0. -1.
         25    2    1    2    0    0 -0.65863623875E+02  0.17974385860E+02  0.11608393283E+03  0.18374263092E+03  0.12499911784E+03 0.  0.
          2    1    1    2  501    0  0.24953207619E+02 -0.43991026985E+02 -0.83765761298E+02  0.97849761326E+02  0.00000000000E+00 0. -1.
          1    1    1    2  502    0  0.40910416256E+02  0.26016641126E+02  0.43365694390E+03  0.43635865153E+03  0.00000000000E+00 0. -1.
         22    1    3    3    0    0 -0.10136683053E+03  0.25546239766E+02  0.97556099513E+02  0.14298614356E+03  0.00000000000E+00 0.  1.
         22    1    3    3    0    0  0.35503206658E+02 -0.75718539064E+01  0.18527833316E+02  0.40756487360E+02  0.00000000000E+00 0.  1.
</event>
<event>
 7    1  0.6508013E-006  0.3380934E+03  0.7818608E-02  0.1273595E+00
          2   -1    0    0  502    0  0.00000000000E+00  0.00000000000E+00  0.36519266589E+04  0.36519266589E+04  0.00000000000E+00 0. -1.
          1   -1    0    0  501    0 -0.00000000000E+00 -0.00000000000E+00 -0.66112209660E+03  0.66112209660E+03  0.00000000000E+00 0. -1.
         25    2    1    2    0    0 -0.34477375727E+01 -0.34024897869E+03  0.67082598117E+02  0.36865423424E+03  0.12499846023E+03 0.  0.
          2    1    1    2  501    0 -0.31281673000E+02  0.39876620603E+01 -0.50152040991E+03  0.50251086164E+03  0.00000000000E+00 0. -1.
          1    1    1    2  502    0  0.34729410572E+02  0.33626131663E+03  0.34252423741E+04  0.34418836596E+04  0.00000000000E+00 0. -1.
         22    1    3    3    0    0  0.58639763998E+02 -0.21274004981E+03  0.39996965047E+02  0.22426927549E+03  0.00000000000E+00 0. -1.
         22    1    3    3    0    0 -0.62087501571E+02 -0.12750892888E+03  0.27085633070E+02  0.14438495875E+03  0.00000000000E+00 0. -1.
</event>
<event>
 7    1  0.6508013E-006  0.1752783E+03  0.7818608E-02  0.1302352E+00
          2   -1    0    0  502    0  0.00000000000E+00  0.00000000000E+00  0.18954925750E+04  0.18954925750E+04  0.00000000000E+00 0. -1.
          1   -1    0    0  501    0 -0.00000000000E+00 -0.00000000000E+00 -0.96322036344E+03  0.96322036344E+03  0.00000000000E+00 0. -1.
         25    2    1    2    0    0 -0.15725619554E+03  0.42786667919E+01  0.75282470786E+02  0.21459170394E+03  0.12503731830E+03 0.  0.
          2    1    1    2  501    0 -0.14969176292E+02 -0.43945095259E+02 -0.88849745745E+03  0.88970949165E+03  0.00000000000E+00 0. -1.
          1    1    1    2  502    0  0.17222537184E+03  0.39666428467E+02  0.17454871983E+04  0.17544117429E+04  0.00000000000E+00 0. -1.
         22    1    3    3    0    0 -0.16216230895E+03 -0.17193580392E+02  0.91731894674E+02  0.18710150761E+03  0.00000000000E+00 0. -1.
         22    1    3    3    0    0  0.49061134076E+01  0.21472247184E+02 -0.16449423888E+02  0.27490196327E+02  0.00000000000E+00 0. -1.
</event>
<event>
 7    1  0.6508013E-006  0.1708825E+03  0.7818608E-02  0.1238149E+00
          2   -1    0    0  502    0  0.00000000000E+00  0.00000000000E+00  0.28678129819E+03  0.28678129819E+03  0.00000000000E+00 0. -1.
          1   -1    0    0  501    0 -0.00000000000E+00 -0.00000000000E+00 -0.18526297998E+04  0.18526297998E+04  0.00000000000E+00 0. -1.
         25    2    1    2    0    0  0.10493143166E+03  0.32522172562E+02 -0.33138058379E+03  0.37081893775E+03  0.12500118490E+03 0.  0.
          2    1    1    2  501    0 -0.16218488889E+03 -0.10014688827E+03 -0.14879295179E+04  0.15000891932E+04  0.00000000000E+00 0. -1.
          1    1    1    2  502    0  0.57253457231E+02  0.67624715713E+02  0.25346160011E+03  0.26850296697E+03  0.00000000000E+00 0. -1.
         22    1    3    3    0    0  0.75924625964E+02 -0.38736376134E+02 -0.21528911597E+03  0.23154796289E+03  0.00000000000E+00 0.  1.
         22    1    3    3    0    0  0.29006805697E+02  0.71258548696E+02 -0.11609146782E+03  0.13927097487E+03  0.00000000000E+00 0.  1.
</event>
<event>
 7    1  0.6508013E-006  0.1793747E+03  0.7818608E-02  0.1197054E+00
          2   -1    0    0  502    0  0.00000000000E+00  0.00000000000E+00  0.60226081153E+03  0.60226081153E+03  0.00000000000E+00 0. -1.
          1   -1    0    0  501    0 -0.00000000000E+00 -0.00000000000E+00 -0.74355561624E+03  0.74355561624E+03  0.00000000000E+00 0. -1.
         25    2    1    2    0    0  0.10748959194E+03 -0.79026032601E+02  0.24787327030E+03  0.30800911023E+03  0.12501730941E+03 0.  0.
          2    1    1    2  501    0  0.11580463520E+03 -0.59488252949E+02 -0.65275909464E+03  0.66561550569E+03  0.00000000000E+00 0. -1.
          1    1    1    2  502    0 -0.22329422715E+03  0.13851428555E+03  0.26359101963E+03  0.37219181185E+03  0.00000000000E+00 0. -1.
         22    1    3    3    0    0  0.25641205314E+02 -0.89426250632E+02  0.87778904689E+02  0.12790489365E+03  0.00000000000E+00 0. -1.
         22    1    3    3    0    0  0.81848386630E+02  0.10400218030E+02  0.16009436561E+03  0.18010421658E+03  0.00000000000E+00 0. -1.
</event>
<event>
 7    1  0.6508013E-006  0.6641594E+02  0.7818608E-02  0.1473751E+00
          2   -1    0    0  502    0  0.00000000000E+00  0.00000000000E+00  0.27178603776E+04  0.27178603776E+04  0.00000000000E+00 0. -1.
          1   -1    0    0  501    0 -0.00000000000E+00 -0.00000000000E+00 -0.44215512120E+02  0.44215512120E+02  0.00000000000E+00 0. -1.
         25    2    1    2    0    0  0.37622654439E+01 -0.91576051218E+02  0.31013659904E+03  0.34671293789E+03  0.12499929376E+03 0.  0.
          2    1    1    2  501    0  0.12741749187E+02  0.27841002015E+02 -0.16271086948E+02  0.34673070761E+02  0.00000000000E+00 0. -1.
          1    1    1    2  502    0 -0.16504014631E+02  0.63735049203E+02  0.23797793534E+04  0.23806898811E+04  0.00000000000E+00 0. -1.
         22    1    3    3    0    0  0.23592126036E+02 -0.10760477852E+03  0.29944291761E+03  0.31906337564E+03  0.00000000000E+00 0.  1.
         22    1    3    3    0    0 -0.19829860592E+02  0.16028727302E+02  0.10693681429E+02  0.27649562248E+02  0.00000000000E+00 0.  1.
</event>
<event>
 7    1  0.6508013E-006  0.6312389E+02  0.7818608E-02  0.1468524E+00
          2   -1    0    0  502    0  0.00000000000E+00  0.00000000000E+00  0.16246932029E+03  0.16246932029E+03  0.00000000000E+00 0. -1.
          1   -1    0    0  501    0 -0.00000000000E+00 -0.00000000000E+00 -0.57140434764E+03  0.57140434764E+03  0.00000000000E+00 0. -1.
         25    2    1    2    0    0  0.29353246035E+02  0.30328367419E+02 -0.88680177073E+02  0.15896768604E+03  0.12500051391E+03 0.  0.
          2    1    1    2  501    0  0.32050695143E+02 -0.95454205498E+01 -0.43865126066E+03  0.43992418732E+03  0.00000000000E+00 0. -1.
          1    1    1    2  502    0 -0.61403941179E+02 -0.20782946870E+02  0.11839641038E+03  0.13498179456E+03  0.00000000000E+00 0. -1.
         22    1    3    3    0    0 -0.44885449045E+02  0.10518436615E+02 -0.62769161822E+02  0.77880091940E+02  0.00000000000E+00 0. -1.
         22    1    3    3    0    0  0.74238695081E+02  0.19809930805E+02 -0.25911015251E+02  0.81087594101E+02  0.00000000000E+00 0. -1.
</event>
<event>
 7    1  0.6508013E-006  0.7359321E+02  0.7818608E-02  0.1377280E+00
          2   -1    0    0  502    0  0.00000000000E+00  0.00000000000E+00  0.22905680053E+04  0.22905680053E+04  0.00000000000E+00 0. -1.
          1   -1    0    0  501    0 -0.00000000000E+00 -0.00000000000E+00 -0.48153185906E+02  0.48153185906E+02  0.00000000000E+00 0. -1.
         25    2    1    2    0    0  0.46063544370E+02 -0.54027510741E+02  0.99582265405E+03  0.10061456167E+04  0.12500168633E+03 0.  0.
          2    1    1    2  501    0  0.32039704639E+02  0.48030499373E+02 -0.21838553437E+02  0.61728388603E+02  0.00000000000E+00 0. -1.
          1    1    1    2  502    0 -0.78103249008E+02  0.59970113685E+01  0.12684307188E+04  0.12708471859E+04  0.00000000000E+00 0. -1.
         22    1    3    3    0    0  0.33695365401E+02  0.12040621575E+01  0.61714508716E+02  0.70324305907E+02  0.00000000000E+00 0.  1.
         22    1    3    3    0    0  0.12368178969E+02 -0.55231572899E+02  0.93410814533E+03  0.93582131076E+03  0.00000000000E+00 0.  1.
</event>
<event>
 7    1  0.6508013E-006  0.7630332E+02  0.7818608E-02  0.1381144E+00
          2   -1    0    0  502    0  0.00000000000E+00  0.00000000000E+00  0.24213317600E+04  0.24213317600E+04  0.00000000000E+00 0. -1.
          1   -1    0    0  501    0 -0.00000000000E+00 -0.00000000000E+00 -0.32875012396E+03  0.32875012396E+03  0.00000000000E+00 0. -1.
         25    2    1    2    0    0 -0.40013466825E+02 -0.16083771660E+02  0.26182098107E+02  0.13479771681E+03  0.12500062783E+03 0.  0.
          2    1    1    2  501    0  0.37442145919E+02  0.69978631054E+02 -0.26838617478E+03  0.27987508268E+03  0.00000000000E+00 0. -1.
          1    1    1    2  502    0  0.25713209060E+01 -0.53894859395E+02  0.23347857128E+04  0.23354090845E+04  0.00000000000E+00 0. -1.
         22    1    3    3    0    0 -0.43469609255E+02 -0.44298415644E+02 -0.32158328817E+02  0.69900748706E+02  0.00000000000E+00 0.  1.
         22    1    3    3    0    0  0.34561424309E+01  0.28214643985E+02  0.58340426924E+02  0.64896968106E+02  0.00000000000E+00 0.  1.
</event>
<event>
 7    1  0.6508013E-006  0.2050452E+03  0.7818608E-02  0.1248592E+00
          2   -1    0    0  502    0  0.00000000000E+00  0.00000000000E+00  0.17792005524E+04  0.17792005524E+04  0.00000000000E+00 0. -1.
          1   -1    0    0  501    0 -0.00000000000E+00 -0.00000000000E+00 -0.18823508731E+03  0.18823508731E+03  0.00000000000E+00 0. -1.
         25    2    1    2    0    0 -0.82759341642E+02 -0.12485904796E+03  0.11900077810E+03  0.22853188657E+03  0.12500698981E+03 0.  0.
          2    1    1    2  501    0 -0.55928147447E+02 -0.35888513611E+02 -0.11767894561E+03  0.13514539328E+03  0.00000000000E+00 0. -1.
          1    1    1    2  502    0  0.13868748909E+03  0.16074756157E+03  0.15896436326E+04  0.16037583599E+04  0.00000000000E+00 0. -1.
         22    1    3    3    0    0 -0.36743304176E+02 -0.14069062607E+03  0.78659309418E+02  0.16532153406E+03  0.00000000000E+00 0. -1.
         22    1    3    3    0    0 -0.46016037465E+02  0.15831578102E+02  0.40341468680E+02  0.63210352510E+02  0.00000000000E+00 0. -1.
</event>
<event>
 7    1  0.6508013E-006  0.6248834E+02  0.7818608E-02  0.1465765E+00
          2   -1    0    0  502    0  0.00000000000E+00  0.00000000000E+00  0.48721133709E+03  0.48721133709E+03  0.00000000000E+00 0. -1.
          1   -1    0    0  501    0 -0.00000000000E+00 -0.00000000000E+00 -0.16906704435E+03  0.16906704435E+03  0.00000000000E+00 0. -1.
         25    2    1    2    0    0 -0.84366112361E+02 -0.17164135948E+02 -0.78221659992E+02  0.17075088440E+03  0.12499995182E+03 0.  0.
          2    1    1    2  501    0  0.50110153178E+02  0.20899268741E+02 -0.27086527964E+02  0.60675257582E+02  0.00000000000E+00 0. -1.
          1    1    1    2  502    0  0.34255959183E+02 -0.37351327935E+01  0.42345248070E+03  0.42485223945E+03  0.00000000000E+00 0. -1.
         22    1    3    3    0    0 -0.60504306004E+02 -0.68957047844E+02 -0.64366613254E+02  0.11206652664E+03  0.00000000000E+00 0.  1.
         22    1    3    3    0    0 -0.23861806357E+02  0.51792911896E+02 -0.13855046738E+02  0.58684357757E+02  0.00000000000E+00 0.  1.
</event>
<event>
 7    1  0.6508013E-006  0.4141435E+02  0.7818608E-02  0.1599314E+00
          2   -1    0    0  502    0  0.00000000000E+00  0.00000000000E+00  0.86261106418E+02  0.86261106418E+02  0.00000000000E+00 0. -1.
          1   -1    0    0  501    0 -0.00000000000E+00 -0.00000000000E+00 -0.17365626589E+04  0.17365626589E+04  0.00000000000E+00 0. -1.
         25    2    1    2    0    0  0.42480015148E+02 -0.45582633531E+02 -0.69173415481E+03  0.70569372870E+03  0.12500067856E+03 0.  0.
          2    1    1    2  501    0 -0.11677242952E+02  0.18137790318E+02 -0.10323613439E+04  0.10325866946E+04  0.00000000000E+00 0. -1.
          1    1    1    2  502    0 -0.30802772197E+02  0.27444843213E+02  0.73793946190E+02  0.84543342069E+02  0.00000000000E+00 0. -1.
         22    1    3    3    0    0  0.18989678249E+02 -0.32937674250E+02 -0.47201624294E+02  0.60609335923E+02  0.00000000000E+00 0. -1.
         22    1    3    3    0    0  0.23490336899E+02 -0.12644959281E+02 -0.64453253051E+03  0.64508439278E+03  0.00000000000E+00 0. -1.
</event>
<event>
 7    1  0.6508013E-006  0.1127093E+03  0.7818608E-02  0.1345191E+00
          2   -1    0    0  502    0  0.00000000000E+00  0.00000000000E+00  0.43233313488E+03  0.43233313488E+03  0.00000000000E+00 0. -1.
          1   -1    0    0  501    0 -0.00000000000E+00 -0.00000000000E+00 -0.11374941438E+04  0.11374941438E+04  0.00000000000E+00 0. -1.
         25    2    1    2    0    0 -0.10051935161E+03  0.15846723921E+02  0.22339706859E+03  0.27547570621E+03  0.12500142300E+03 0.  0.
          2    1    1    2  501    0 -0.70507312461E+01  0.48837387591E+02 -0.10892944798E+04  0.10904115126E+04  0.00000000000E+00 0. -1.
          1    1    1    2  502    0  0.10757008286E+03 -0.64684111513E+02  0.16073640224E+03  0.20394005985E+03  0.00000000000E+00 0. -1.
         22    1    3    3    0    0 -0.88367049725E+02  0.21633783174E+02  0.23848972800E+03  0.25525302430E+03  0.00000000000E+00 0.  1.
         22    1    3    3    0    0 -0.12152301884E+02 -0.57870592528E+01 -0.15092659408E+02  0.20222681916E+02  0.00000000000E+00 0.  1.
</event>
<event>
 7    1  0.6508013E-006  0.4724714E+03  0.7818608E-02  0.1053282E+00
          2   -1    0    0  502    0  0.00000000000E+00  0.00000000000E+00  0.15183134027E+04  0.15183134027E+04  0.00000000000E+00 0. -1.
          1   -1    0    0  501    0 -0.00000000000E+00 -0.00000000000E+00 -0.63411328681E+03  0.63411328681E+03  0.00000000000E+00 0. -1.
         25    2    1    2    0    0 -0.37571746043E+03 -0.19938958185E+03  0.27652727947E+03  0.52250569038E+03  0.12500017908E+03 0.  0.
          2    1    1    2  501    0 -0.14586364331E+03  0.25710259997E+03 -0.39788429451E+03  0.49567112199E+03  0.00000000000E+00 0. -1.
          1    1    1    2  502    0  0.52158110374E+03 -0.57713018122E+02  0.10055571309E+04  0.11342498771E+04  0.00000000000E+00 0. -1.
         22    1    3    3    0    0 -0.27095875972E+03 -0.98977382062E+02  0.23356011128E+03  0.37116774808E+03  0.00000000000E+00 0.  1.
         22    1    3    3    0    0 -0.10475870070E+03 -0.10041219979E+03  0.42967168189E+02  0.15133794230E+03  0.00000000000E+00 0.  1.
</event>
<event>
 7    1  0.6508013E-006  0.2678002E+02  0.7818608E-02  0.1639230E+00
          2   -1    0    0  502    0  0.00000000000E+00  0.00000000000E+00  0.49806283564E+01  0.49806283564E+01  0.00000000000E+00 0. -1.
          1   -1    0    0  501    0 -0.00000000000E+00 -0.00000000000E+00 -0.18090458112E+04  0.18090458112E+04  0.00000000000E+00 0. -1.
         25    2    1    2    0    0 -0.58746407723E+01 -0.14287937605E+02 -0.12770521478E+04  0.12832480420E+04  0.12499877000E+03 0.  0.
          2    1    1    2  501    0  0.26093927294E+02 -0.60229880676E+01 -0.38337255870E+03  0.38430676313E+03  0.00000000000E+00 0. -1.
          1    1    1    2  502    0 -0.20219286522E+02  0.20310925673E+02 -0.14364047631E+03  0.14647163440E+03  0.00000000000E+00 0. -1.
         22    1    3    3    0    0  0.37237381464E+02  0.10599340471E+02 -0.10539030431E+04  0.10546139544E+04  0.00000000000E+00 0.  1.
         22    1    3    3    0    0 -0.43112022236E+02 -0.24887278076E+02 -0.22314910473E+03  0.22863408760E+03  0.00000000000E+00 0.  1.
</event>
<event>
 7    1  0.6508013E-006  0.3877316E+02  0.7818608E-02  0.1524774E+00
          2   -1    0    0  502    0  0.00000000000E+00  0.00000000000E+00  0.78138077404E+03  0.78138077404E+03  0.00000000000E+00 0. -1.
          1   -1    0    0  501    0 -0.00000000000E+00 -0.00000000000E+00 -0.17004142051E+04  0.17004142051E+04  0.00000000000E+00 0. -1.
         25    2    1    2    0    0  0.93899602492E+01 -0.45924014763E+02  0.42196950991E+03  0.44258444064E+03  0.12500213326E+03 0.  0.
          2    1    1    2  501    0 -0.33801801624E+02  0.14850230566E+02 -0.16887860981E+04  0.16891896212E+04  0.00000000000E+00 0. -1.
          1    1    1    2  502    0  0.24411841375E+02  0.31073784197E+02  0.34778315722E+03  0.35002091724E+03  0.00000000000E+00 0. -1.
         22    1    3    3    0    0 -0.30660617317E+02  0.15009854020E+02  0.28834966668E+03  0.29036339206E+03  0.00000000000E+00 0. -1.
         22    1    3    3    0    0  0.40050577566E+02 -0.60933868783E+02  0.13361984323E+03  0.15222104859E+03  0.00000000000E+00 0. -1.
</event>
<event>
 7    1  0.6508013E-006  0.8369182E+02  0.7818608E-02  0.1393738E+00
          2   -1    0    0  502    0  0.00000000000E+00  0.00000000000E+00  0.27705413708E+04  0.27705413708E+04  0.00000000000E+00 0. -1.
          1   -1    0    0  501    0 -0.00000000000E+00 -0.00000000000E+00 -0.12724461368E+04  0.12724461368E+04  0.00000000000E+00 0. -1.
         25    2    1    2    0    0 -0.89949639779E+01 -0.75581768830E+02  0.33773837132E+03  0.36808466580E+03  0.12500240230E+03 0.  0.
          2    1    1    2  501    0  0.44424028940E+02 -0.12296896880E+01 -0.12561400216E+04  0.12569259168E+04  0.00000000000E+00 0. -1.
          1    1    1    2  502    0 -0.35429064962E+02  0.76811458518E+02  0.24164968842E+04  0.24179769250E+04  0.00000000000E+00 0. -1.
         22    1    3    3    0    0  0.19027978780E+02 -0.45756038638E+02  0.30620354262E+02  0.58251911071E+02  0.00000000000E+00 0.  1.
         22    1    3    3    0    0 -0.28022942758E+02 -0.29825730192E+02  0.30711801706E+03  0.30983275473E+03  0.00000000000E+00 0.  1.
</event>
<event>
 7    1  0.6508013E-006  0.8889892E+02  0.7818608E-02  0.1474747E+00
          2   -1    0    0  502    0  0.00000000000E+00  0.00000000000E+00  0.25576153307E+03  0.25576153307E+03  0.00000000000E+00 0. -1.
          1   -1    0    0  501    0 -0.00000000000E+00 -0.00000000000E+00 -0.23601862564E+03  0.23601862564E+03  0.00000000000E+00 0. -1.
         25    2    1    2    0    0  0.94439543052E+02  0.51664908219E+02  0.48005378224E+02  0.17180687329E+03  0.12499998135E+03 0.  0.
          2    1    1    2  501    0 -0.21043919960E+02 -0.85459408011E+01 -0.16083150796E+03  0.16242737954E+03  0.00000000000E+00 0. -1.
          1    1    1    2  502    0 -0.73395623091E+02 -0.43118967418E+02  0.13256903718E+03  0.15754590587E+03  0.00000000000E+00 0. -1.
         22    1    3    3    0    0  0.75775852270E+02  0.82127910549E+02  0.68057088377E+02  0.13083860576E+03  0.00000000000E+00 0. -1.
         22    1    3    3    0    0  0.18663690782E+02 -0.30463002330E+02 -0.20051710153E+02  0.40968267533E+02  0.00000000000E+00 0. -1.
</event>
<event>
 7    1  0.6508013E-006  0.4347037E+02  0.7818608E-02  0.1525156E+00
          2   -1    0    0  502    0  0.00000000000E+00  0.00000000000E+00  0.46848675969E+02  0.46848675969E+02  0.00000000000E+00 0. -1.
          1   -1    0    0  501    0 -0.00000000000E+00 -0.00000000000E+00 -0.15821790709E+04  0.15821790709E+04  0.00000000000E+00 0. -1.
         25    2    1    2    0    0 -0.35314508001E+01  0.65423820240E+02 -0.84254076637E+03  0.85427846254E+03  0.12499600462E+03 0.  0.
          2    1    1    2  501    0  0.19693812427E+02 -0.36827985950E+02 -0.72648983733E+03  0.72768924036E+03  0.00000000000E+00 0. -1.
          1    1    1    2  502    0 -0.16162361627E+02 -0.28595834290E+02  0.33700208735E+02  0.47060043995E+02  0.00000000000E+00 0. -1.
         22    1    3    3    0    0  0.42120586878E+02  0.72464297098E+01 -0.57852111398E+03  0.58009769341E+03  0.00000000000E+00 0.  1.
         22    1    3    3    0    0 -0.45652037678E+02  0.58177390530E+02 -0.26401965239E+03  0.27418076913E+03  0.00000000000E+00 0.  1.
</event>
<event>
 7    1  0.6508013E-006  0.1198263E+03  0.7818608E-02  0.1299568E+00
          2   -1    0    0  502    0  0.00000000000E+00  0.00000000000E+00  0.14368089987E+04  0.14368089987E+04  0.00000000000E+00 0. -1.
          1   -1    0    0  501    0 -0.00000000000E+00 -0.00000000000E+00 -0.44772836644E+03  0.44772836644E+03  0.00000000000E+00 0. -1.
         25    2    1    2    0    0  0.15767723674E+02 -0.16421105657E+03  0.36965664007E+03  0.42365704745E+03  0.12500148038E+03 0.  0.
          2    1    1    2  501    0  0.32990013200E+02  0.11444358093E+03 -0.41109904749E+03  0.42800479090E+03  0.00000000000E+00 0. -1.
          1    1    1    2  502    0 -0.48757736874E+02  0.49767475639E+02  0.10305230397E+04  0.10328755268E+04  0.00000000000E+00 0. -1.
         22    1    3    3    0    0 -0.28128833252E+02 -0.13953127853E+02  0.12673562445E+02  0.33860599848E+02  0.00000000000E+00 0.  1.
         22    1    3    3    0    0  0.43896556926E+02 -0.15025792871E+03  0.35698307763E+03  0.38979644760E+03  0.00000000000E+00 0.  1.
</event>
<event>
 7    1  0.6508013E-006  0.4672957E+02  0.7818608E-02  0.1468466E+00
          2   -1    0    0  502    0  0.00000000000E+00  0.00000000000E+00  0.23912464700E+04  0.23912464700E+04  0.00000000000E+00 0. -1.
          1   -1    0    0  501    0 -0.00000000000E+00 -0.00000000000E+00 -0.22490918624E+03  0.22490918624E+03  0.00000000000E+00 0. -1.
         25    2    1    2    0    0  0.64088727499E+01 -0.51754273283E+01  0.29329765128E+02  0.12866305299E+03  0.12500434946E+03 0.  0.
          2    1    1    2  501    0  0.87107862921E+01  0.47764631880E+02 -0.17165417768E+03  0.17838860550E+03  0.00000000000E+00 0. -1.
          1    1    1    2  502    0 -0.15119659042E+02 -0.42589204552E+02  0.23086616963E+04  0.23091039978E+04  0.00000000000E+00 0. -1.
         22    1    3    3    0    0 -0.34897972818E+01  0.57107273990E+02  0.31976310886E+02  0.65543145221E+02  0.00000000000E+00 0.  1.
         22    1    3    3    0    0  0.98986700318E+01 -0.62282701318E+02 -0.26465457579E+01  0.63119907766E+02  0.00000000000E+00 0.  1.
</event>
<event>
 7    1  0.6508013E-006  0.1581615E+03  0.7818608E-02  0.1218138E+00
          2   -1    0    0  502    0  0.00000000000E+00  0.00000000000E+00  0.33311935846E+04  0.33311935846E+04  0.00000000000E+00 0. -1.
          1   -1    0    0  501    0 -0.00000000000E+00 -0.00000000000E+00 -0.36868422081E+03  0.36868422081E+03  0.00000000000E+00 0. -1.
         25    2    1    2    0    0  0.74191658990E+02 -0.31186970988E+02  0.11822202730E+04  0.11915314261E+04  0.12500134480E+03 0.  0.
          2    1    1    2  501    0 -0.59717776014E+02  0.14807457846E+03 -0.34481210615E+03  0.37998379189E+03  0.00000000000E+00 0. -1.
          1    1    1    2  502    0 -0.14473882976E+02 -0.11688760747E+03  0.21251011970E+04  0.21283625874E+04  0.00000000000E+00 0. -1.
         22    1    3    3    0    0  0.24208210784E+02  0.31678947120E+02  0.12365306923E+03  0.12992180221E+03  0.00000000000E+00 0. -1.
         22    1    3    3    0    0  0.49983448206E+02 -0.62865918108E+02  0.10585672037E+04  0.10616096239E+04  0.00000000000E+00 0. -1.
</event>
<event>
 7    1  0.6508013E-006  0.6956564E+02  0.7818608E-02  0.1369156E+00
          2   -1    0    0  502    0  0.00000000000E+00  0.00000000000E+00  0.47191275074E+03  0.47191275074E+03  0.00000000000E+00 0. -1.
          1   -1    0    0  501    0 -0.00000000000E+00 -0.00000000000E+00 -0.20544053527E+03  0.20544053527E+03  0.00000000000E+00 0. -1.
         25    2    1    2    0    0  0.17625941298E+02  0.87979138986E+02 -0.38319869847E+02  0.15856555641E+03  0.12499448208E+03 0.  0.
          2    1    1    2  501    0 -0.59141106157E+02 -0.37566565432E+02 -0.92569733736E+02  0.11609510274E+03  0.00000000000E+00 0. -1.
          1    1    1    2  502    0  0.41515164859E+02 -0.50412573554E+02  0.39736181905E+03  0.40269262686E+03  0.00000000000E+00 0. -1.
         22    1    3    3    0    0 -0.34556932666E+02 -0.67650026004E+01  0.14636330105E+02  0.38133568079E+02  0.00000000000E+00 0. -1.
         22    1    3    3    0    0  0.52182873964E+02  0.94744141587E+02 -0.52956199952E+02  0.12043198833E+03  0.00000000000E+00 0. -1.
</event>
<event>
 7    1  0.6508013E-006  0.7097961E+02  0.7818608E-02  0.1376511E+00
          2   -1    0    0  502    0  0.00000000000E+00  0.00000000000E+00  0.13913247015E+04  0.13913247015E+04  0.00000000000E+00 0. -1.
          1   -1    0    0  501    0 -0.00000000000E+00 -0.00000000000E+00 -0.86249597695E+03  0.86249597695E+03  0.00000000000E+00 0. -1.
         25    2    1    2    0    0  0.15265502988E+02 -0.12654400337E+03  0.21181879602E+03  0.27701928172E+03  0.12500423882E+03 0.  0.
          2    1    1    2  501    0 -0.18307747269E+02  0.57390716281E+02 -0.82775576176E+03  0.82994485904E+03  0.00000000000E+00 0. -1.
          1    1    1    2  502    0  0.30422442804E+01  0.69153287094E+02  0.11447656903E+04  0.11468565377E+04  0.00000000000E+00 0. -1.
         22    1    3    3    0    0  0.40836685603E+02 -0.13547280128E+03  0.13499688933E+03  0.19556245781E+03  0.00000000000E+00 0. -1.
         22    1    3    3    0    0 -0.25571182615E+02  0.89287979054E+01  0.76821906695E+02  0.81456823905E+02  0.00000000000E+00 0. -1.
</event>
<event>
 7    1  0.6508013E-006  0.3126016E+02  0.7818608E-02  0.1606071E+00
          2   -1    0    0  502    0  0.00000000000E+00  0.00000000000E+00  0.10967682664E+04  0.10967682664E+04  0.00000000000E+00 0. -1.
          1   -1    0    0  501    0 -0.00000000000E+00 -0.00000000000E+00 -0.23701701592E+02  0.23701701592E+02  0.00000000000E+00 0. -1.
         25    2    1    2    0    0 -0.20587305779E+02 -0.47846656010E+02  0.60095569164E+03  0.61602401935E+03  0.12499883781E+03 0.  0.
          2    1    1    2  501    0 -0.95676809158E+00  0.30845504859E+02 -0.67155315085E+00  0.30867645826E+02  0.00000000000E+00 0. -1.
          1    1    1    2  502    0  0.21544073871E+02  0.17001151150E+02  0.47278242627E+03  0.47357830277E+03  0.00000000000E+00 0. -1.
         22    1    3    3    0    0 -0.68554086895E+02 -0.50093266721E+02  0.32422340198E+03  0.33515640020E+03  0.00000000000E+00 0. -1.
         22    1    3    3    0    0  0.47966781116E+02  0.22466107109E+01  0.27673228966E+03  0.28086761916E+03  0.00000000000E+00 0. -1.
</event>
<event>
 7    1  0.6508013E-006  0.2410390E+03  0.7818608E-02  0.1196435E+00
          2   -1    0    0  502    0  0.00000000000E+00  0.00000000000E+00  0.24466609494E+03  0.24466609494E+03  0.00000000000E+00 0. -1.
          1   -1    0    0  501    0 -0.00000000000E+00 -0.00000000000E+00 -0.16861008680E+04  0.16861008680E+04  0.00000000000E+00 0. -1.
         25    2    1    2    0    0 -0.18882829273E+03  0.12834349445E+03 -0.33058535051E+03  0.42076050840E+03  0.12499821899E+03 0.  0.
          2    1    1    2  501    0  0.24368507761E+03 -0.47689788517E+02 -0.12858782350E+04  0.13096333717E+04  0.00000000000E+00 0. -1.
          1    1    1    2  502    0 -0.54856784877E+02 -0.80653705931E+02  0.17502881248E+03  0.20037308284E+03  0.00000000000E+00 0. -1.
         22    1    3    3    0    0 -0.16604686334E+03  0.95793377313E+02 -0.17291614901E+03  0.25816259712E+03  0.00000000000E+00 0.  1.
         22    1    3    3    0    0 -0.22781429397E+02  0.32550117135E+02 -0.15766920150E+03  0.16259791128E+03  0.00000000000E+00 0.  1.
</event>
<event>
 7    1  0.6508013E-006  0.1060342E+03  0.7818608E-02  0.1311868E+00
          2   -1    0    0  502    0  0.00000000000E+00  0.00000000000E+00  0.50210603231E+02  0.50210603231E+02  0.00000000000E+00 0. -1.
          1   -1    0    0  501    0 -0.00000000000E+00 -0.00000000000E+00 -0.21013070756E+04  0.21013070756E+04  0.00000000000E+00 0. -1.
         25    2    1    2    0    0  0.54893732345E+02 -0.15080784931E+03 -0.12298520892E+04  0.12465619525E+04  0.12499684361E+03 0.  0.
          2    1    1    2  501    0 -0.30863649682E+02  0.84672640054E+02 -0.82925307030E+03  0.83413588549E+03  0.00000000000E+00 0. -1.
          1    1    1    2  502    0 -0.24030082664E+02  0.66135209260E+02  0.80086871803E+01  0.70819840773E+02  0.00000000000E+00 0. -1.
         22    1    3    3    0    0 -0.30317540877E+01 -0.16900910408E+02 -0.59149869554E+03  0.59174786787E+03  0.00000000000E+00 0. -1.
         22    1    3    3    0    0  0.57925486433E+02 -0.13390693891E+03 -0.63835339366E+03  0.65481408466E+03  0.00000000000E+00 0. -1.
</event>
<event>
 7    1  0.6508013E-006  0.9583248E+02  0.7818608E-02  0.1451777E+00
          2   -1    0    0  502    0  0.00000000000E+00  0.00000000000E+00  0.25404100270E+04  0.25404100270E+04  0.00000000000E+00 0. -1.
          1   -1    0    0  501    0 -0.00000000000E+00 -0.00000000000E+00 -0.11018838299E+03  0.11018838299E+03  0.00000000000E+00 0. -1.
         25    2    1    2    0    0  0.40653233674E+02  0.63877150269E+02  0.69105169273E+03  0.70633606726E+03  0.12500088857E+03 0.  0.
          2    1    1    2  501    0 -0.38206744340E+02 -0.88633342783E+02 -0.79731487762E+02  0.12519079402E+03  0.00000000000E+00 0. -1.
          1    1    1    2  502    0 -0.24464893337E+01  0.24756192514E+02  0.18189014391E+04  0.18190715487E+04  0.00000000000E+00 0. -1.
         22    1    3    3    0    0 -0.22453841013E+02  0.42957461501E+02  0.52843752979E+03  0.53065595386E+03  0.00000000000E+00 0. -1.
         22    1    3    3    0    0  0.63107074686E+02  0.20919688768E+02  0.16261416294E+03  0.17568011339E+03  0.00000000000E+00 0. -1.
</event>
<event>
 7    1  0.6508013E-006  0.1118476E+03  0.7818608E-02  0.1290581E+00
          2   -1    0    0  502    0  0.00000000000E+00  0.00000000000E+00  0.71088719565E+03  0.71088719565E+03  0.00000000000E+00 0. -1.
          1   -1    0    0  501    0 -0.00000000000E+00 -0.00000000000E+00 -0.16523396794E+04  0.16523396794E+04  0.00000000000E+00 0. -1.
         25    2    1    2    0    0 -0.48593767247E+02 -0.96470554140E+00  0.46665305683E+02  0.14200463610E+03  0.12500152418E+03 0.  0.
          2    1    1    2  501    0 -0.55829766847E+02 -0.58879810461E+02 -0.15977570444E+04  0.15998160418E+04  0.00000000000E+00 0. -1.
          1    1    1    2  502    0  0.10442353409E+03  0.59844516003E+02  0.60963925496E+03  0.62140619707E+03  0.00000000000E+00 0. -1.
         22    1    3    3    0    0  0.28152845118E+02 -0.71995473734E+00 -0.24509562067E+02  0.37333894195E+02  0.00000000000E+00 0. -1.
         22    1    3    3    0    0 -0.76746612364E+02 -0.24475080406E+00  0.71174867751E+02  0.10467074191E+03  0.00000000000E+00 0. -1.
</event>
<event>
 7    1  0.6508013E-006  0.1064146E+03  0.7818608E-02  0.1326412E+00
          2   -1    0    0  502    0  0.00000000000E+00  0.00000000000E+00  0.51602406509E+03  0.51602406509E+03  0.00000000000E+00 0. -1.
          1   -1    0    0  501    0 -0.00000000000E+00 -0.00000000000E+00 -0.52969148048E+03  0.52969148048E+03  0.00000000000E+00 0. -1.
         25    2    1    2    0    0 -0.49789663740E+02 -0.30318577291E+02  0.12885965112E+03  0.18875074522E+03  0.12499522946E+03 0.  0.
          2    1    1    2  501    0  0.10794662565E+03  0.10134990680E+02 -0.49113664547E+03  0.50296162532E+03  0.00000000000E+00 0. -1.
          1    1    1    2  502    0 -0.58156961910E+02  0.20183586611E+02  0.34860957896E+03  0.35400317503E+03  0.00000000000E+00 0. -1.
         22    1    3    3    0    0 -0.68408575315E+02 -0.46635416874E+02  0.31973998016E+02  0.88752080723E+02  0.00000000000E+00 0. -1.
         22    1    3    3    0    0  0.18618911575E+02  0.16316839582E+02  0.96885653108E+02  0.99998664493E+02  0.00000000000E+00 0. -1.
</event>
<event>
 7    1  0.6508013E-006  0.6034772E+02  0.7818608E-02  0.1458376E+00
          2   -1    0    0  502    0  0.00000000000E+00  0.00000000000E+00  0.67184467375E+03  0.67184467375E+03  0.00000000000E+00 0. -1.
          1   -1    0    0  501    0 -0.00000000000E+00 -0.00000000000E+00 -0.33233971164E+03  0.33233971164E+03  0.00000000000E+00 0. -1.
         25    2    1    2    0    0 -0.63265794669E+02  0.12018017603E+02  0.42424942148E+03  0.44694510622E+03  0.12500145132E+03 0.  0.
          2    1    1    2  501    0  0.42195977296E+02 -0.43211828466E+02 -0.31661954590E+03  0.32232855826E+03  0.00000000000E+00 0. -1.
          1    1    1    2  502    0  0.21069817373E+02  0.31193810862E+02  0.23187508654E+03  0.23491072091E+03  0.00000000000E+00 0. -1.
         22    1    3    3    0    0  0.75579185297E+01  0.15061627357E+02  0.38191524950E-01  0.16851593686E+02  0.00000000000E+00 0.  1.
         22    1    3    3    0    0 -0.70823713198E+02 -0.30436097541E+01  0.42421122995E+03  0.43009351254E+03  0.00000000000E+00 0.  1.
</event>
<event>
 7    1  0.6508013E-006  0.6291131E+02  0.7818608E-02  0.1397816E+00
          2   -1    0    0  502    0  0.00000000000E+00  0.00000000000E+00  0.12271316957E+04  0.12271316957E+04  0.00000000000E+00 0. -1.
          1   -1    0    0  501    0 -0.00000000000E+00 -0.00000000000E+00 -0.16191956874E+03  0.16191956874E+03  0.00000000000E+00 0. -1.
         25    2    1    2    0    0 -0.25522584503E+02 -0.10173112977E+03  0.36342241510E+03  0.39837359632E+03  0.12500018145E+03 0.  0.
          2    1    1    2  501    0  0.41313468680E+02  0.46722248709E+02 -0.13669045503E+03  0.15024663628E+03  0.00000000000E+00 0. -1.
          1    1    1    2  502    0 -0.15790884178E+02  0.55008881061E+02  0.83848016687E+03  0.84043103183E+03  0.00000000000E+00 0. -1.
         22    1    3    3    0    0 -0.27191797021E+01 -0.10535161546E+03  0.14783407943E+03  0.18155239425E+03  0.00000000000E+00 0. -1.
         22    1    3    3    0    0 -0.22803404801E+02  0.36204856941E+01  0.21558833568E+03  0.21682120207E+03  0.00000000000E+00 0. -1.
</event>
<event>
 7    1  0.6508013E-006  0.1154684E+03  0.7818608E-02  0.1345460E+00
          2   -1    0    0  502    0  0.00000000000E+00  0.00000000000E+00  0.40052771353E+04  0.40052771353E+04  0.00000000000E+00 0. -1.
          1   -1    0    0  501    0 -0.00000000000E+00 -0.00000000000E+00 -0.80409454281E+02  0.80409454281E+02  0.00000000000E+00 0. -1.
         25    2    1    2    0    0  0.14045096615E+03 -0.60184949216E+02  0.28711310991E+04  0.28779090387E+04  0.12497177589E+03 0.  0.
          2    1    1    2  501    0 -0.92975976320E+02  0.67617198105E+02 -0.33292296393E+02  0.11968706969E+03  0.00000000000E+00 0. -1.
          1    1    1    2  502    0 -0.47474989833E+02 -0.74322488886E+01  0.10870288783E+04  0.10880904812E+04  0.00000000000E+00 0. -1.
         22    1    3    3    0    0  0.49673296072E+02 -0.65761154903E+02  0.69352917002E+03  0.69840867370E+03  0.00000000000E+00 0. -1.
         22    1    3    3    0    0  0.90777670081E+02  0.55762056866E+01  0.21776019291E+04  0.21795003650E+04  0.00000000000E+00 0. -1.
</event>
<event>
 7    1  0.6508013E-006  0.2131702E+03  0.7818608E-02  0.1372216E+00
          2   -1    0    0  502    0  0.00000000000E+00  0.00000000000E+00  0.70233663669E+03  0.70233663669E+03  0.00000000000E+00 0. -1.
          1   -1    0    0  501    0 -0.00000000000E+00 -0.00000000000E+00 -0.22766149778E+03  0.22766149778E+03  0.00000000000E+00 0. -1.
         25    2    1    2    0    0  0.17466423141E+03  0.12792332450E+03 -0.10789023168E+03  0.27228293745E+03  0.12500290095E+03 0.  0.
          2    1    1    2  501    0 -0.15415213297E+03 -0.13124551380E+03  0.23773713959E+03  0.31226144900E+03  0.00000000000E+00 0. -1.
          1    1    1    2  502    0 -0.20512098438E+02  0.33221893003E+01  0.34482823101E+03  0.34545374803E+03  0.00000000000E+00 0. -1.
         22    1    3    3    0    0  0.15825384295E+02  0.31147636403E+02 -0.75898454033E+02  0.83553535929E+02  0.00000000000E+00 0.  1.
         22    1    3    3    0    0  0.15883884712E+03  0.96775688097E+02 -0.31991777644E+02  0.18872940152E+03  0.00000000000E+00 0.  1.
</event>
<event>
 7    1  0.6508013E-006  0.1622438E+03  0.7818608E-02  0.1273931E+00
          2   -1    0    0  502    0  0.00000000000E+00  0.00000000000E+00  0.30485212612E+03  0.30485212612E+03  0.00000000000E+00 0. -1.
          1   -1    0    0  501    0 -0.00000000000E+00 -0.00000000000E+00 -0.85482548382E+03  0.85482548382E+03  0.00000000000E+00 0. -1.
         25    2    1    2    0    0  0.76377828796E+02  0.18974620862E+03 -0.36849299598E+03  0.43960105338E+03  0.12499920652E+03 0.  0.
          2    1    1    2  501    0 -0.81032796984E+02 -0.12440932820E+03 -0.43426428297E+03  0.45894385560E+03  0.00000000000E+00 0. -1.
          1    1    1    2  502    0  0.46549681878E+01 -0.65336880414E+02  0.25278392125E+03  0.26113270097E+03  0.00000000000E+00 0. -1.
         22    1    3    3    0    0  0.59486404261E+02  0.11702834740E+03 -0.33095384128E+03  0.35604032278E+03  0.00000000000E+00 0.  1.
         22    1    3    3    0    0  0.16891424535E+02  0.72717861218E+02 -0.37539154696E+02  0.83560730600E+02  0.00000000000E+00 0.  1.
</event>
<event>
 7    1  0.6508013E-006  0.7063839E+02  0.7818608E-02  0.1425153E+00
          2   -1    0    0  502    0  0.00000000000E+00  0.00000000000E+00  0.68634642150E+03  0.68634642150E+03  0.00000000000E+00 0. -1.
          1   -1    0    0  501    0 -0.00000000000E+00 -0.00000000000E+00 -0.15326856532E+04  0.15326856532E+04  0.00000000000E+00 0. -1.
         25    2    1    2    0    0  0.64402521945E+02 -0.20359980659E+02 -0.23102559708E+03  0.27121964155E+03  0.12500021526E+03 0.  0.
          2    1    1    2  501    0 -0.68295927421E+02 -0.20652954463E+02 -0.12799316328E+04  0.12819188207E+04  0.00000000000E+00 0. -1.
          1    1    1    2  502    0  0.38934054764E+01  0.41012935122E+02  0.66461799823E+03  0.66589361239E+03  0.00000000000E+00 0. -1.
         22    1    3    3    0    0 -0.16133610378E+02  0.38829344369E+02 -0.72801495419E+02  0.84071809206E+02  0.00000000000E+00 0. -1.
         22    1    3    3    0    0  0.80536132322E+02 -0.59189325027E+02 -0.15822410166E+03  0.18714783235E+03  0.00000000000E+00 0. -1.
</event>
<event>
 7    1  0.6508013E-006  0.6386124E+02  0.7818608E-02  0.1478375E+00
          2   -1    0    0  502    0  0.00000000000E+00  0.00000000000E+00  0.10651283380E+04  0.10651283380E+04  0.00000000000E+00 0. -1.
          1   -1    0    0  501    0 -0.00000000000E+00 -0.00000000000E+00 -0.97675703787E+02  0.97675703787E+02  0.00000000000E+00 0. -1.
         25    2    1    2    0    0  0.76084217102E+02 -0.44095378470E+01  0.22227763259E+03  0.26615906583E+03  0.12500020101E+03 0.  0.
          2    1    1    2  501    0 -0.16403833211E+02  0.26085036070E+02 -0.71316239258E+02  0.77688614563E+02  0.00000000000E+00 0. -1.
          1    1    1    2  502    0 -0.59680383891E+02 -0.21675498223E+02  0.81649124090E+03  0.81895636142E+03  0.00000000000E+00 0. -1.
         22    1    3    3    0    0  0.53942572988E+02 -0.50177722804E+01  0.23462612653E+03  0.24079949848E+03  0.00000000000E+00 0.  1.
         22    1    3    3    0    0  0.22141644114E+02  0.60823443338E+00 -0.12348493938E+02  0.25359567341E+02  0.00000000000E+00 0.  1.
</event>
<event>
 7    1  0.6508013E-006  0.3067549E+02  0.7818608E-02  0.1609754E+00
          2   -1    0    0  502    0  0.00000000000E+00  0.00000000000E+00  0.19611930384E+04  0.19611930384E+04  0.00000000000E+00 0. -1.
          1   -1    0    0  501    0 -0.00000000000E+00 -0.00000000000E+00 -0.11279031593E+04  0.11279031593E+04  0.00000000000E+00 0. -1.
         25    2    1    2    0    0 -0.27099835181E+02  0.51030260268E+02  0.86408598923E+03  0.87499010520E+03  0.12499839556E+03 0.  0.
          2    1    1    2  501    0  0.16700604494E+02 -0.25723103497E+02 -0.11220701060E+04  0.11224891585E+04  0.00000000000E+00 0. -1.
          1    1    1    2  502    0  0.10399230687E+02 -0.25307156771E+02  0.10912739959E+04  0.10916169339E+04  0.00000000000E+00 0. -1.
         22    1    3    3    0    0 -0.54602479232E+02  0.34353825297E+02  0.80613243915E+03  0.80870954335E+03  0.00000000000E+00 0.  1.
         22    1    3    3    0    0  0.27502644052E+02  0.16676434971E+02  0.57953550077E+02  0.66280561854E+02  0.00000000000E+00 0.  1.
</event>
<event>
 7    1  0.6508013E-006  0.5555002E+02  0.7818608E-02  0.1501428E+00
          2   -1    0    0  502    0  0.00000000000E+00  0.00000000000E+00  0.59797137379E+03  0.59797137379E+03  0.00000000000E+00 0. -1.
          1   -1    0    0  501    0 -0.00000000000E+00 -0.00000000000E+00 -0.82959340936E+02  0.82959340936E+02  0.00000000000E+00 0. -1.
         25    2    1    2    0    0  0.24975615194E+02  0.16628562987E+02  0.22683916051E+03  0.26073173274E+03  0.12499896502E+03 0.  0.
          2    1    1    2  501    0  0.29109600959E+02  0.79205260170E+01 -0.59914253451E+02  0.67080707860E+02  0.00000000000E+00 0. -1.
          1    1    1    2  502    0 -0.54085216154E+02 -0.24549089004E+02  0.34808712580E+03  0.35311827413E+03  0.00000000000E+00 0. -1.
         22    1    3    3    0    0 -0.31769155265E+02  0.54483492189E+01  0.64394022439E+01  0.32869889515E+02  0.00000000000E+00 0.  1.
         22    1    3    3    0    0  0.56744770459E+02  0.11180213768E+02  0.22039975826E+03  0.22786184322E+03  0.00000000000E+00 0.  1.
</event>
<event>
 7    1  0.6508013E-006  0.6850009E+02  0.7818608E-02  0.1383611E+00
          2   -1    0    0  502    0  0.00000000000E+00  0.00000000000E+00  0.59052672555E+03  0.59052672555E+03  0.00000000000E+00 0. -1.
          1   -1    0    0  501    0 -0.00000000000E+00 -0.00000000000E+00 -0.87690944829E+03  0.87690944829E+03  0.00000000000E+00 0. -1.
         25    2    1    2    0    0 -0.63396519734E+02 -0.62706991295E+02  0.80293042556E+02  0.17327202520E+03  0.12499974625E+03 0.  0.
          2    1    1    2  501    0  0.58638878554E+02 -0.56403595450E+01 -0.82683578559E+03  0.82893169084E+03  0.00000000000E+00 0. -1.
          1    1    1    2  502    0  0.47576411795E+01  0.68347350840E+02  0.46016002030E+03  0.46523245781E+03  0.00000000000E+00 0. -1.
         22    1    3    3    0    0  0.38032370084E+01  0.11947554507E+02 -0.24867134633E+02  0.27849291827E+02  0.00000000000E+00 0.  1.
         22    1    3    3    0    0 -0.67199756742E+02 -0.74654545802E+02  0.10516017719E+03  0.14542273337E+03  0.00000000000E+00 0.  1.
</event>
<event>
 7    1  0.6508013E-006  0.5649737E+02  0.7818608E-02  0.1448914E+00
          2   -1    0    0  502    0  0.00000000000E+00  0.00000000000E+00  0.15067569374E+03  0.15067569374E+03  0.00000000000E+00 0. -1.
          1   -1    0    0  501    0 -0.00000000000E+00 -0.00000000000E+00 -0.25553061694E+04  0.25553061694E+04  0.00000000000E+00 0. -1.
         25    2    1    2    0    0 -0.50105088586E+02 -0.24686415038E+02 -0.16964922008E+03  0.21800837474E+03  0.12500741816E+03 0.  0.
          2    1    1    2  501    0 -0.39487321810E+01  0.42914531423E+02 -0.23548389903E+04  0.23552333047E+04  0.00000000000E+00 0. -1.
          1    1    1    2  502    0  0.54053820767E+02 -0.18228116385E+02  0.11985773476E+03  0.13274018363E+03  0.00000000000E+00 0. -1.
         22    1    3    3    0    0 -0.63477438444E+01 -0.43872552488E+02 -0.27607803613E+01  0.44415274646E+02  0.00000000000E+00 0.  1.
         22    1    3    3    0    0 -0.43757344742E+02  0.19186137450E+02 -0.16688843972E+03  0.17359310010E+03  0.00000000000E+00 0.  1.
</event>
<event>
 7    1  0.6508013E-006  0.7550744E+02  0.7818608E-02  0.1342546E+00
          2   -1    0    0  502    0  0.00000000000E+00  0.00000000000E+00  0.33431126552E+03  0.33431126552E+03  0.00000000000E+00 0. -1.
          1   -1    0    0  501    0 -0.00000000000E+00 -0.00000000000E+00 -0.12663674151E+04  0.12663674151E+04  0.00000000000E+00 0. -1.
         25    2    1    2    0    0 -0.13107783305E+02  0.40935433550E+02  0.14662303362E+03  0.19741121624E+03  0.12500140243E+03 0.  0.
          2    1    1    2  501    0 -0.62198066148E+02 -0.43558438242E+02 -0.12309937036E+04  0.12333334648E+04  0.00000000000E+00 0. -1.
          1    1    1    2  502    0  0.75305849454E+02  0.26230046925E+01  0.15231452039E+03  0.16993399965E+03  0.00000000000E+00 0. -1.
         22    1    3    3    0    0 -0.20041378323E+01  0.58458910284E+02  0.10146214648E+02  0.59366711478E+02  0.00000000000E+00 0.  1.
         22    1    3    3    0    0 -0.11103645473E+02 -0.17523476734E+02  0.13647681897E+03  0.13804450477E+03  0.00000000000E+00 0.  1.
</event>
<event>
 7    1  0.6508013E-006  0.8575262E+02  0.7818608E-02  0.1386322E+00
          2   -1    0    0  502    0  0.00000000000E+00  0.00000000000E+00  0.15800147889E+03  0.15800147889E+03  0.00000000000E+00 0. -1.
          1   -1    0    0  501    0 -0.00000000000E+00 -0.00000000000E+00 -0.53324139500E+03  0.53324139500E+03  0.00000000000E+00 0. -1.
         25    2    1    2    0    0  0.96680893505E+02  0.43530529426E+02 -0.46964409330E+01  0.16397658118E+03  0.12499664179E+03 0.  0.
          2    1    1    2  501    0 -0.14350078073E+02 -0.43742428931E+02 -0.42569039849E+03  0.42817244213E+03  0.00000000000E+00 0. -1.
          1    1    1    2  502    0 -0.82330815433E+02  0.21189950570E+00  0.55146923322E+02  0.99093850581E+02  0.00000000000E+00 0. -1.
         22    1    3    3    0    0  0.26685803866E+02  0.78181887936E+02 -0.18516776812E+02  0.84660561967E+02  0.00000000000E+00 0. -1.
         22    1    3    3    0    0  0.69995089640E+02 -0.34651358510E+02  0.13820335879E+02  0.79316019215E+02  0.00000000000E+00 0. -1.
</event>
<event>
 7    1  0.6508013E-006  0.1578137E+03  0.7818608E-02  0.1202931E+00
          2   -1    0    0  502    0  0.00000000000E+00  0.00000000000E+00  0.96264756758E+03  0.96264756758E+03  0.00000000000E+00 0. -1.
          1   -1    0    0  501    0 -0.00000000000E+00 -0.00000000000E+00 -0.14532087331E+04  0.14532087331E+04  0.00000000000E+00 0. -1.
         25    2    1    2    0    0 -0.11771027138E+03  0.13698255083E+03  0.18994062186E+03  0.29038449246E+03  0.12500314561E+03 0.  0.
          2    1    1    2  501    0 -0.44909136144E+02 -0.13136492751E+03 -0.13903240290E+04  0.13972381616E+04  0.00000000000E+00 0. -1.
          1    1    1    2  502    0  0.16261940752E+03 -0.56176233216E+01  0.70982224159E+03  0.72823364661E+03  0.00000000000E+00 0. -1.
         22    1    3    3    0    0 -0.10750576005E+03  0.71366590640E+02  0.55556946486E+02  0.14048933414E+03  0.00000000000E+00 0.  1.
         22    1    3    3    0    0 -0.10204511330E+02  0.65615960187E+02  0.13438367538E+03  0.14989515833E+03  0.00000000000E+00 0.  1.
</event>
<event>
 7    1  0.6508013E-006  0.7232208E+02  0.7818608E-02  0.1384874E+00
          2   -1    0    0  502    0  0.00000000000E+00  0.00000000000E+00  0.96186260285E+03  0.96186260285E+03  0.00000000000E+00 0. -1.
          1   -1    0    0  501    0 -0.00000000000E+00 -0.00000000000E+00 -0.23453083850E+04  0.23453083850E+04  0.00000000000E+00 0. -1.
         25    2    1    2    0    0 -0.18554559898E+02  0.38790802120E+02 -0.14202810644E+03  0.19402604686E+03  0.12500050327E+03 0.  0.
          2    1    1    2  501    0 -0.28588235180E+02 -0.67560602484E+02 -0.21758478036E+04  0.21770841479E+04  0.00000000000E+00 0. -1.
          1    1    1    2  502    0  0.47142795078E+02  0.28769800365E+02  0.93443012792E+03  0.93606079317E+03  0.00000000000E+00 0. -1.
         22    1    3    3    0    0  0.19292595840E+02  0.70013085435E+02 -0.11995542575E+03  0.14022603379E+03  0.00000000000E+00 0.  1.
         22    1    3    3    0    0 -0.37847155738E+02 -0.31222283315E+02 -0.22072680697E+02  0.53800013067E+02  0.00000000000E+00 0.  1.
</event>
<event>
 7    1  0.6508013E-006  0.6423710E+02  0.7818608E-02  0.1490000E+00
          2   -1    0    0  502    0  0.00000000000E+00  0.00000000000E+00  0.34052409607E+03  0.34052409607E+03  0.00000000000E+00 0. -1.
          1   -1    0    0  501    0 -0.00000000000E+00 -0.00000000000E+00 -0.39751862296E+03  0.39751862296E+03  0.00000000000E+00 0. -1.
         25    2    1    2    0    0 -0.71153838315E+02 -0.21586559959E+02 -0.42185417709E+02  0.15143827280E+03  0.12500037090E+03 0.  0.
          2    1    1    2  501    0  0.73518861518E+01  0.27258332148E+02 -0.29643996161E+03  0.29778132537E+03  0.00000000000E+00 0. -1.
          1    1    1    2  502    0  0.63801952163E+02 -0.56717721891E+01  0.28163085243E+03  0.28882312086E+03  0.00000000000E+00 0. -1.
         22    1    3    3    0    0 -0.65359584062E+02 -0.55977323001E+02  0.12114878681E+02  0.86902854985E+02  0.00000000000E+00 0.  1.
         22    1    3    3    0    0 -0.57942542530E+01  0.34390763042E+02 -0.54300296390E+02  0.64535417819E+02  0.00000000000E+00 0.  1.
</event>
<event>
 7    1  0.6508013E-006  0.1196702E+03  0.7818608E-02  0.1384778E+00
          2   -1    0    0  502    0  0.00000000000E+00  0.00000000000E+00  0.32950206189E+04  0.32950206189E+04  0.00000000000E+00 0. -1.
          1   -1    0    0  501    0 -0.00000000000E+00 -0.00000000000E+00 -0.47110338885E+03  0.47110338885E+03  0.00000000000E+00 0. -1.
         25    2    1    2    0    0  0.54607606436E+02 -0.66992469434E+02 -0.30359892284E+03  0.33951008475E+03  0.12499924024E+03 0.  0.
          2    1    1    2  501    0  0.22702944562E+02 -0.24501576502E+02 -0.14657471912E+03  0.15033262862E+03  0.00000000000E+00 0. -1.
          1    1    1    2  502    0 -0.77310550999E+02  0.91494045936E+02  0.32740908720E+04  0.32762812943E+04  0.00000000000E+00 0. -1.
         22    1    3    3    0    0 -0.25041630358E+02 -0.59996991879E+02 -0.86878731455E+02  0.10851099605E+03  0.00000000000E+00 0. -1.
         22    1    3    3    0    0  0.79649236794E+02 -0.69954775553E+01 -0.21672019138E+03  0.23099908870E+03  0.00000000000E+00 0. -1.
</event>
<event>
 7    1  0.6508013E-006  0.2511381E+03  0.7818608E-02  0.1251990E+00
          2   -1    0    0  502    0  0.00000000000E+00  0.00000000000E+00  0.11539371595E+04  0.11539371595E+04  0.00000000000E+00 0. -1.
          1   -1    0    0  501    0 -0.00000000000E+00 -0.00000000000E+00 -0.55687846730E+03  0.55687846730E+03  0.00000000000E+00 0. -1.
         25    2    1    2    0    0  0.13400532992E+03  0.23698614221E+03  0.14916776176E+03  0.33465804671E+03  0.12500050811E+03 0.  0.
          2    1    1    2  501    0  0.24548182033E+02 -0.46346610022E+02 -0.44571400359E+03  0.44878903117E+03  0.00000000000E+00 0. -1.
          1    1    1    2  502    0 -0.15855351196E+03 -0.19063953219E+03  0.89360493401E+03  0.92736854889E+03  0.00000000000E+00 0. -1.
         22    1    3    3    0    0  0.36038867466E+02  0.73078657403E+02  0.11457919868E+03  0.14059759211E+03  0.00000000000E+00 0.  1.
         22    1    3    3    0    0  0.97966462459E+02  0.16390748481E+03  0.34588563078E+02  0.19406045460E+03  0.00000000000E+00 0.  1.
</event>
<event>
 7    1  0.6508013E-006  0.1036749E+03  0.7818608E-02  0.1329079E+00
          2   -1    0    0  502    0  0.00000000000E+00  0.00000000000E+00  0.11755234446E+04  0.11755234446E+04  0.00000000000E+00 0. -1.
          1   -1    0    0  501    0 -0.00000000000E+00 -0.00000000000E+00 -0.32118873427E+03  0.32118873427E+03  0.00000000000E+00 0. -1.
         25    2    1    2    0    0  0.14412677094E+02  0.51603394180E+02  0.17507376045E+03  0.22169386077E+03  0.12500684282E+03 0.  0.
          2    1    1    2  501    0 -0.68534816048E+02 -0.81262948656E+02 -0.28737885903E+03  0.30641033999E+03  0.00000000000E+00 0. -1.
          1    1    1    2  502    0  0.54122138954E+02  0.29659554476E+02  0.96663980896E+03  0.96860797816E+03  0.00000000000E+00 0. -1.
         22    1    3    3    0    0 -0.55258195322E+02  0.26580284877E+02  0.68553356971E+02  0.91975770974E+02  0.00000000000E+00 0. -1.
         22    1    3    3    0    0  0.69670872416E+02  0.25023109303E+02  0.10652040348E+03  0.12971808979E+03  0.00000000000E+00 0. -1.
</event>
<event>
 7    1  0.6508013E-006  0.8927218E+02  0.7818608E-02  0.1377097E+00
          2   -1    0    0  502    0  0.00000000000E+00  0.00000000000E+00  0.12210236668E+04  0.12210236668E+04  0.00000000000E+00 0. -1.
          1   -1    0    0  501    0 -0.00000000000E+00 -0.00000000000E+00 -0.14268558837E+04  0.14268558837E+04  0.00000000000E+00 0. -1.
         25    2    1    2    0    0 -0.44221966331E+02 -0.34476134104E+02  0.57038279607E+02  0.14839959779E+03  0.12499955662E+03 0.  0.
          2    1    1    2  501    0  0.37441685855E+02  0.81658777788E+02 -0.13792053523E+04  0.13821278666E+04  0.00000000000E+00 0. -1.
          1    1    1    2  502    0  0.67802804761E+01 -0.47182643684E+02  0.11163348558E+04  0.11173520861E+04  0.00000000000E+00 0. -1.
         22    1    3    3    0    0  0.33176176450E+02 -0.21014942328E+02 -0.14778215440E+02  0.41960483034E+02  0.00000000000E+00 0. -1.
         22    1    3    3    0    0 -0.77398142781E+02 -0.13461191776E+02  0.71816495046E+02  0.10643911476E+03  0.00000000000E+00 0. -1.
</event>
<event>
 7    1  0.6508013E-006  0.1317555E+03  0.7818608E-02  0.1404331E+00
          2   -1    0    0  502    0  0.00000000000E+00  0.00000000000E+00  0.81227926499E+03  0.81227926499E+03  0.00000000000E+00 0. -1.
          1   -1    0    0  501    0 -0.00000000000E+00 -0.00000000000E+00 -0.76734106850E+03  0.76734106850E+03  0.00000000000E+00 0. -1.
         25    2    1    2    0    0  0.47800087896E+01 -0.14718554941E+03 -0.96208192059E+02  0.21579680946E+03  0.12500324921E+03 0.  0.
          2    1    1    2  501    0 -0.19781453870E+02  0.16803268670E+02 -0.60533579710E+03  0.60589197305E+03  0.00000000000E+00 0. -1.
          1    1    1    2  502    0  0.15001445081E+02  0.13038228074E+03  0.74648218565E+03  0.75793155098E+03  0.00000000000E+00 0. -1.
         22    1    3    3    0    0  0.44569092600E+02 -0.10581194924E+02 -0.34242129927E+01  0.45935726138E+02  0.00000000000E+00 0. -1.
         22    1    3    3    0    0 -0.39789083811E+02 -0.13660435449E+03 -0.92783979066E+02  0.16986108332E+03  0.00000000000E+00 0. -1.
</event>
<event>
 7    1  0.6508013E-006  0.4779964E+02  0.7818608E-02  0.1518292E+00
          2   -1    0    0  502    0  0.00000000000E+00  0.00000000000E+00  0.11604331287E+04  0.11604331287E+04  0.00000000000E+00 0. -1.
          1   -1    0    0  501    0 -0.00000000000E+00 -0.00000000000E+00 -0.26324640855E+04  0.26324640855E+04  0.00000000000E+00 0. -1.
         25    2    1    2    0    0 -0.18651713025E+02  0.34898310627E+01  0.37530563981E+03  0.39602835655E+03  0.12499628232E+03 0.  0.
          2    1    1    2  501    0  0.39760076130E+02 -0.26562804574E+02 -0.26215690598E+04  0.26220051071E+04  0.00000000000E+00 0. -1.
          1    1    1    2  502    0 -0.21108363105E+02  0.23072973512E+02  0.77423246313E+03  0.77486375064E+03  0.00000000000E+00 0. -1.
         22    1    3    3    0    0 -0.64634009841E+02  0.32199524433E+02  0.21668277010E+03  0.22839830880E+03  0.00000000000E+00 0.  1.
         22    1    3    3    0    0  0.45982296816E+02 -0.28709693370E+02  0.15862286971E+03  0.16763004775E+03  0.00000000000E+00 0.  1.
</event>
<event>
 7    1  0.6508013E-006  0.4274821E+02  0.7818608E-02  0.1569182E+00
          2   -1    0    0  502    0  0.00000000000E+00  0.00000000000E+00  0.57644691429E+03  0.57644691429E+03  0.00000000000E+00 0. -1.
          1   -1    0    0  501    0 -0.00000000000E+00 -0.00000000000E+00 -0.58175343313E+02  0.58175343313E+02  0.00000000000E+00 0. -1.
         25    2    1    2    0    0  0.17131561816E+02  0.12016153817E+02  0.14752268595E+03  0.19448861229E+03  0.12499999631E+03 0.  0.
          2    1    1    2  501    0 -0.28338077258E+02 -0.34527447234E+02 -0.19740640900E+02  0.48835275553E+02  0.00000000000E+00 0. -1.
          1    1    1    2  502    0  0.11206515442E+02  0.22511293417E+02  0.39048952593E+03  0.39129836976E+03  0.00000000000E+00 0. -1.
         22    1    3    3    0    0  0.66374034601E+02  0.31674980918E+02  0.80675009616E+02  0.10916626797E+03  0.00000000000E+00 0. -1.
         22    1    3    3    0    0 -0.49242472785E+02 -0.19658827101E+02  0.66847676333E+02  0.85322344319E+02  0.00000000000E+00 0. -1.
</event>
<event>
 7    1  0.6508013E-006  0.1999529E+03  0.7818608E-02  0.1295640E+00
          2   -1    0    0  502    0  0.00000000000E+00  0.00000000000E+00  0.72492946281E+03  0.72492946281E+03  0.00000000000E+00 0. -1.
          1   -1    0    0  501    0 -0.00000000000E+00 -0.00000000000E+00 -0.11169617114E+04  0.11169617114E+04  0.00000000000E+00 0. -1.
         25    2    1    2    0    0 -0.18322144762E+03 -0.21192278649E+02 -0.27377440625E+03  0.35298222683E+03  0.12499926160E+03 0.  0.
          2    1    1    2  501    0  0.20538618197E+03 -0.16001725436E+02 -0.78967140575E+03  0.81610077075E+03  0.00000000000E+00 0. -1.
          1    1    1    2  502    0 -0.22164734351E+02  0.37194004085E+02  0.67141356342E+03  0.67280817662E+03  0.00000000000E+00 0. -1.
         22    1    3    3    0    0 -0.92452901832E+00 -0.23201955656E+02  0.98530272007E+00  0.23241263339E+02  0.00000000000E+00 0. -1.
         22    1    3    3    0    0 -0.18229691860E+03  0.20096770069E+01 -0.27475970897E+03  0.32974096349E+03  0.00000000000E+00 0. -1.
</event>
<event>
 7    1  0.6508013E-006  0.4367984E+02  0.7818608E-02  0.1563039E+00
          2   -1    0    0  502    0  0.00000000000E+00  0.00000000000E+00  0.27940947449E+04  0.27940947449E+04  0.00000000000E+00 0. -1.
          1   -1    0    0  501    0 -0.00000000000E+00 -0.00000000000E+00 -0.12442286096E+03  0.12442286096E+03  0.00000000000E+00 0. -1.
         25    2    1    2    0    0  0.33582948499E+02  0.12285299000E-02 -0.55009509004E+02  0.14063782624E+03  0.12500055062E+03 0.  0.
          2    1    1    2  501    0  0.19101773231E+01  0.25507893796E+02 -0.20235076203E+02  0.32615329712E+02  0.00000000000E+00 0. -1.
          1    1    1    2  502    0 -0.35493125822E+02 -0.25509122326E+02  0.27449164691E+04  0.27452644499E+04  0.00000000000E+00 0. -1.
         22    1    3    3    0    0  0.27269040334E+02 -0.97238834705E+01 -0.94836652015E+02  0.99157173396E+02  0.00000000000E+00 0.  1.
         22    1    3    3    0    0  0.63139081646E+01  0.97251120004E+01  0.39827143011E+02  0.41480652841E+02  0.00000000000E+00 0.  1.
</event>
<event>
 7    1  0.6508013E-006  0.2826954E+02  0.7818608E-02  0.1658151E+00
          2   -1    0    0  502    0  0.00000000000E+00  0.00000000000E+00  0.21205400792E+04  0.21205400792E+04  0.00000000000E+00 0. -1.
          1   -1    0    0  501    0 -0.00000000000E+00 -0.00000000000E+00 -0.32859223147E+03  0.32859223147E+03  0.00000000000E+00 0. -1.
         25    2    1    2    0    0 -0.84586271189E+01 -0.58630055851E+01  0.13316468148E+04  0.13375406496E+04  0.12500330709E+03 0.  0.
          2    1    1    2  501    0  0.27689401910E+02 -0.57458657386E+01 -0.32487043341E+03  0.32609893661E+03  0.00000000000E+00 0. -1.
          1    1    1    2  502    0 -0.19230774791E+02  0.11608871324E+02  0.78517146633E+03  0.78549272443E+03  0.00000000000E+00 0. -1.
         22    1    3    3    0    0  0.37474762291E+00 -0.50190276460E+02  0.11198705840E+04  0.11209947945E+04  0.00000000000E+00 0. -1.
         22    1    3    3    0    0 -0.88333747418E+01  0.44327270874E+02  0.21177623078E+03  0.21654585513E+03  0.00000000000E+00 0. -1.
</event>
<event>
 7    1  0.6508013E-006  0.5993836E+02  0.7818608E-02  0.1461436E+00
          2   -1    0    0  502    0  0.00000000000E+00  0.00000000000E+00  0.85498318733E+02  0.85498318733E+02  0.00000000000E+00 0. -1.
          1   -1    0    0  501    0 -0.00000000000E+00 -0.00000000000E+00 -0.87575199735E+03  0.87575199735E+03  0.00000000000E+00 0. -1.
         25    2    1    2    0    0 -0.79864009035E+01 -0.42274438773E+02 -0.24272435129E+03  0.27638959904E+03  0.12500075591E+03 0.  0.
          2    1    1    2  501    0 -0.37059386433E+02  0.73822100013E+00 -0.60184132847E+03  0.60298169769E+03  0.00000000000E+00 0. -1.
          1    1    1    2  502    0  0.45045787336E+02  0.41536217773E+02  0.54312001135E+02  0.81879019357E+02  0.00000000000E+00 0. -1.
         22    1    3    3    0    0 -0.53394450727E+02 -0.38399112613E+02 -0.21060458796E+03  0.22063488321E+03  0.00000000000E+00 0. -1.
         22    1    3    3    0    0  0.45408049824E+02 -0.38753261602E+01 -0.32119763325E+02  0.55754715834E+02  0.00000000000E+00 0. -1.
</event>
<event>
 7    1  0.6508013E-006  0.8943921E+02  0.7818608E-02  0.1401879E+00
          2   -1    0    0  502    0  0.00000000000E+00  0.00000000000E+00  0.33378811396E+03  0.33378811396E+03  0.00000000000E+00 0. -1.
          1   -1    0    0  501    0 -0.00000000000E+00 -0.00000000000E+00 -0.15712237896E+04  0.15712237896E+04  0.00000000000E+00 0. -1.
         25    2    1    2    0    0  0.58333667691E+02  0.39341494728E+02  0.71625374171E+02  0.16033005414E+03  0.12499984816E+03 0.  0.
          2    1    1    2  501    0 -0.44555327852E+01  0.38725613835E+02 -0.15162820489E+04  0.15167830355E+04  0.00000000000E+00 0. -1.
          1    1    1    2  502    0 -0.53878134905E+02 -0.78067108563E+02  0.20722099916E+03  0.22789881385E+03  0.00000000000E+00 0. -1.
         22    1    3    3    0    0 -0.83522275632E+01  0.22654219830E+02 -0.29457060773E+02  0.38087948366E+02  0.00000000000E+00 0.  1.
         22    1    3    3    0    0  0.66685895254E+02  0.16687274898E+02  0.10108243494E+03  0.12224210577E+03  0.00000000000E+00 0.  1.
</event>
<event>
 7    1  0.8327862E-006  0.8399985E+02  0.7818608E-02  0.1460545E+00
          2   -1    0    0  502    0  0.00000000000E+00  0.00000000000E+00  0.10488910519E+04  0.10488910519E+04  0.00000000000E+00 0. -1.
          1   -1    0    0  501    0 -0.00000000000E+00 -0.00000000000E+00 -0.25554688537E+04  0.25554688537E+04  0.00000000000E+00 0. -1.
         25    2    1    2    0    0 -0.28732596090E+02 -0.83028004692E+02 -0.14308526574E+04  0.14389872171E+04  0.12500268875E+03 0.  0.
          2    1    1    2  501    0  0.26603917825E+02 -0.94518429203E+00 -0.11187019864E+04  0.11190186755E+04  0.00000000000E+00 0. -1.
          1    1    1    2  502    0  0.21286782654E+01  0.83973188984E+02  0.10429768420E+04  0.10463540130E+04  0.00000000000E+00 0. -1.
         22    1    3    3    0    0 -0.56997375678E+02 -0.22270471128E+02 -0.30145214137E+03  0.30760050106E+03  0.00000000000E+00 0. -1.
         22    1    3    3    0    0  0.28264779588E+02 -0.60757533564E+02 -0.11294005160E+04  0.11313867161E+04  0.00000000000E+00 0. -1.
</event>
<event>
 7    1  0.6508013E-006  0.6161531E+02  0.7818608E-02  0.1460607E+00
          2   -1    0    0  502    0  0.00000000000E+00  0.00000000000E+00  0.14170822257E+04  0.14170822257E+04  0.00000000000E+00 0. -1.
          1   -1    0    0  501    0 -0.00000000000E+00 -0.00000000000E+00 -0.63638612485E+03  0.63638612485E+03  0.00000000000E+00 0. -1.
         25    2    1    2    0    0  0.88015778703E+02 -0.21571619410E+02  0.45029669699E+01  0.15445782101E+03  0.12499931878E+03 0.  0.
          2    1    1    2  501    0 -0.61024257683E+02 -0.26639045919E+01 -0.55950024760E+03  0.56282464719E+03  0.00000000000E+00 0. -1.
          1    1    1    2  502    0 -0.26991521020E+02  0.24235524001E+02  0.13356933815E+04  0.13361858823E+04  0.00000000000E+00 0. -1.
         22    1    3    3    0    0 -0.31897042733E+02 -0.35706458996E+01 -0.63439252740E+01  0.32717216189E+02  0.00000000000E+00 0. -1.
         22    1    3    3    0    0  0.11991282144E+03 -0.18000973510E+02  0.10846892244E+02  0.12174060483E+03  0.00000000000E+00 0. -1.
</event>
<event>
 7    1  0.6508013E-006  0.1054663E+03  0.7818608E-02  0.1435073E+00
          2   -1    0    0  502    0  0.00000000000E+00  0.00000000000E+00  0.31014251289E+03  0.31014251289E+03  0.00000000000E+00 0. -1.
          1   -1    0    0  501    0 -0.00000000000E+00 -0.00000000000E+00 -0.55858692816E+03  0.55858692816E+03  0.00000000000E+00 0. -1.
         25    2    1    2    0    0  0.22770256583E+02 -0.12665712201E+03 -0.55373024189E+02  0.18775511828E+03  0.12500120595E+03 0.  0.
          2    1    1    2  501    0 -0.11401256071E+01  0.25568728040E+02 -0.42566950510E+03  0.42643825733E+03  0.00000000000E+00 0. -1.
          1    1    1    2  502    0 -0.21630130976E+02  0.10108839397E+03  0.23259811403E+03  0.25453606544E+03  0.00000000000E+00 0. -1.
         22    1    3    3    0    0  0.50670945879E+02 -0.56825926525E+02 -0.78225966115E+02  0.10916058106E+03  0.00000000000E+00 0. -1.
         22    1    3    3    0    0 -0.27900689296E+02 -0.69831195487E+02  0.22852941926E+02  0.78594537222E+02  0.00000000000E+00 0. -1.
</event>
<event>
 7    1  0.6508013E-006  0.1221966E+03  0.7818608E-02  0.1341687E+00
          2   -1    0    0  502    0  0.00000000000E+00  0.00000000000E+00  0.85751513229E+03  0.85751513229E+03  0.00000000000E+00 0. -1.
          1   -1    0    0  501    0 -0.00000000000E+00 -0.00000000000E+00 -0.20540624052E+03  0.20540624052E+03  0.00000000000E+00 0. -1.
         25    2    1    2    0    0  0.71155736331E+02  0.49393575401E+02  0.14311993690E+03  0.20883128514E+03  0.12499730082E+03 0.  0.
          2    1    1    2  501    0 -0.11802552771E+03 -0.47505206100E+02 -0.14814814128E+03  0.19528092985E+03  0.00000000000E+00 0. -1.
          1    1    1    2  502    0  0.46869791380E+02 -0.18883693001E+01  0.65713709615E+03  0.65880915782E+03  0.00000000000E+00 0. -1.
         22    1    3    3    0    0  0.79121018395E+02 -0.19423639351E+02  0.90978749622E+02  0.12212512518E+03  0.00000000000E+00 0. -1.
         22    1    3    3    0    0 -0.79652820641E+01  0.68817214751E+02  0.52141187274E+02  0.86706159959E+02  0.00000000000E+00 0. -1.
</event>
<event>
 7    1  0.6508013E-006  0.9069856E+02  0.7818608E-02  0.1383515E+00
          2   -1    0    0  502    0  0.00000000000E+00  0.00000000000E+00  0.66711763190E+03  0.66711763190E+03  0.00000000000E+00 0. -1.
          1   -1    0    0  501    0 -0.00000000000E+00 -0.00000000000E+00 -0.25288687860E+03  0.25288687860E+03  0.00000000000E+00 0. -1.
         25    2    1    2    0    0  0.49650839084E+02  0.26162514540E+01  0.11764566684E+03  0.17871149109E+03  0.12500097411E+03 0.  0.
          2    1    1    2  501    0 -0.93218649359E+02  0.65719584433E+01 -0.21151847165E+03  0.23124223462E+03  0.00000000000E+00 0. -1.
          1    1    1    2  502    0  0.43567810274E+02 -0.91882098973E+01  0.50810355810E+03  0.51005078478E+03  0.00000000000E+00 0. -1.
         22    1    3    3    0    0 -0.19516116522E+02  0.46484935965E+02  0.29614707936E+02  0.58470154797E+02  0.00000000000E+00 0.  1.
         22    1    3    3    0    0  0.69166955606E+02 -0.43868684511E+02  0.88030958904E+02  0.12024133630E+03  0.00000000000E+00 0.  1.
</event>
<event>
 7    1  0.6508013E-006  0.1103747E+03  0.7818608E-02  0.1366709E+00
          2   -1    0    0  502    0  0.00000000000E+00  0.00000000000E+00  0.15689131453E+03  0.15689131453E+03  0.00000000000E+00 0. -1.
          1   -1    0    0  501    0 -0.00000000000E+00 -0.00000000000E+00 -0.26604196788E+04  0.26604196788E+04  0.00000000000E+00 0. -1.
         25    2    1    2    0    0  0.11952363464E+02  0.10851429216E+03 -0.22673781260E+03  0.28098319343E+03  0.12499323476E+03 0.  0.
          2    1    1    2  501    0 -0.41979491033E+02 -0.14755965126E+01 -0.23825305169E+04  0.23829007782E+04  0.00000000000E+00 0. -1.
          1    1    1    2  502    0  0.30027127569E+02 -0.10703869565E+03  0.10573996517E+03  0.15342702170E+03  0.00000000000E+00 0. -1.
         22    1    3    3    0    0 -0.17289340360E+02  0.94198330634E+02 -0.22912731159E+03  0.24833761636E+03  0.00000000000E+00 0.  1.
         22    1    3    3    0    0  0.29241703825E+02  0.14315961524E+02  0.23894989897E+01  0.32645577072E+02  0.00000000000E+00 0.  1.
</event>
<event>
 7    1  0.6508013E-006  0.6336180E+02  0.7818608E-02  0.1437407E+00
          2   -1    0    0  502    0  0.00000000000E+00  0.00000000000E+00  0.28520272262E+02  0.28520272262E+02  0.00000000000E+00 0. -1.
          1   -1    0    0  501    0 -0.00000000000E+00 -0.00000000000E+00 -0.20082510563E+04  0.20082510563E+04  0.00000000000E+00 0. -1.
         25    2    1    2    0    0 -0.15898606676E+02  0.84626117880E+02 -0.27176514101E+03  0.31128065501E+03  0.12500003517E+03 0.  0.
          2    1    1    2  501    0 -0.17763143913E+02 -0.37905679741E+02 -0.16188381570E+04  0.16193793096E+04  0.00000000000E+00 0. -1.
          1    1    1    2  502    0  0.33661750588E+02 -0.46720438139E+02 -0.89127486028E+02  0.10611136395E+03  0.00000000000E+00 0. -1.
         22    1    3    3    0    0  0.14632698578E+02  0.10316229819E+03 -0.13853070047E+03  0.17334165860E+03  0.00000000000E+00 0. -1.
         22    1    3    3    0    0 -0.30531305254E+02 -0.18536180314E+02 -0.13323444054E+03  0.13793899640E+03  0.00000000000E+00 0. -1.
</event>
<event>
 7    1  0.6508013E-006  0.4342161E+02  0.7818608E-02  0.1484922E+00
          2   -1    0    0  502    0  0.00000000000E+00  0.00000000000E+00  0.66731036860E+03  0.66731036860E+03  0.00000000000E+00 0. -1.
          1   -1    0    0  501    0 -0.00000000000E+00 -0.00000000000E+00 -0.31280508398E+03  0.31280508398E+03  0.00000000000E+00 0. -1.
         25    2    1    2    0    0  0.19013963595E+02  0.19956080586E+01  0.47925328331E+03  0.49565620348E+03  0.12500339684E+03 0.  0.
          2    1    1    2  501    0  0.35592731955E+02 -0.24616187681E+02 -0.29814278068E+03  0.30126718529E+03  0.00000000000E+00 0. -1.
          1    1    1    2  502    0 -0.54606695550E+02  0.22620579622E+02  0.17339478199E+03  0.18319206381E+03  0.00000000000E+00 0. -1.
         22    1    3    3    0    0 -0.23338989689E+02 -0.51452985207E+02  0.25883864883E+03  0.26493313166E+03  0.00000000000E+00 0. -1.
         22    1    3    3    0    0  0.42352953284E+02  0.53448593266E+02  0.22041463448E+03  0.23072307181E+03  0.00000000000E+00 0. -1.
</event>
<event>
 7    1  0.6508013E-006  0.9858240E+02  0.7818608E-02  0.1324059E+00
          2   -1    0    0  502    0  0.00000000000E+00  0.00000000000E+00  0.22676691908E+04  0.22676691908E+04  0.00000000000E+00 0. -1.
          1   -1    0    0  501    0 -0.00000000000E+00 -0.00000000000E+00 -0.16036975839E+03  0.16036975839E+03  0.00000000000E+00 0. -1.
         25    2    1    2    0    0  0.21407101325E-01 -0.14130051385E+03  0.17897304398E+04  0.17996440054E+04  0.12497064990E+03 0.  0.
          2    1    1    2  501    0 -0.28172044563E+01  0.67792122421E+02 -0.14495964826E+03  0.16005314157E+03  0.00000000000E+00 0. -1.
          1    1    1    2  502    0  0.27957973549E+01  0.73508391429E+02  0.46252864084E+03  0.46834180220E+03  0.00000000000E+00 0. -1.
         22    1    3    3    0    0 -0.53072333956E+02 -0.62348029883E+02  0.11458909344E+04  0.11488124229E+04  0.00000000000E+00 0.  1.
         22    1    3    3    0    0  0.53093741058E+02 -0.78952483967E+02  0.64383950539E+03  0.65083158249E+03  0.00000000000E+00 0.  1.
</event>
<event>
 7    1  0.6508013E-006  0.2934874E+02  0.7818608E-02  0.1640383E+00
          2   -1    0    0  502    0  0.00000000000E+00  0.00000000000E+00  0.34275466678E+03  0.34275466678E+03  0.00000000000E+00 0. -1.
          1   -1    0    0  501    0 -0.00000000000E+00 -0.00000000000E+00 -0.60075178709E+03  0.60075178709E+03  0.00000000000E+00 0. -1.
         25    2    1    2    0    0  0.43288695481E+02  0.26771571245E+02 -0.25436664569E+03  0.28795431812E+03  0.12499868278E+03 0.  0.
          2    1    1    2  501    0 -0.27087093214E+02 -0.91700896696E+01 -0.32853038756E+03  0.32977267430E+03  0.00000000000E+00 0. -1.
          1    1    1    2  502    0 -0.16201602267E+02 -0.17601481575E+02  0.32489991295E+03  0.32577946145E+03  0.00000000000E+00 0. -1.
         22    1    3    3    0    0  0.25337302539E+02 -0.49412269003E+02 -0.12453815402E+03  0.13635726250E+03  0.00000000000E+00 0.  1.
         22    1    3    3    0    0  0.17951392942E+02  0.76183840247E+02 -0.12982849167E+03  0.15159705562E+03  0.00000000000E+00 0.  1.
</event>
<event>
 7    1  0.6508013E-006  0.7110045E+02  0.7818608E-02  0.1369787E+00
          2   -1    0    0  502    0  0.00000000000E+00  0.00000000000E+00  0.16950388267E+04  0.16950388267E+04  0.00000000000E+00 0. -1.
          1   -1    0    0  501    0 -0.00000000000E+00 -0.00000000000E+00 -0.14943207308E+04  0.14943207308E+04  0.00000000000E+00 0. -1.
         25    2    1    2    0    0  0.12958277319E+03 -0.33336504292E+02  0.24969050859E+02  0.18480066309E+03  0.12499925580E+03 0.  0.
          2    1    1    2  501    0 -0.60411989514E+02  0.19765875424E+02 -0.14129088689E+04  0.14143379265E+04  0.00000000000E+00 0. -1.
          1    1    1    2  502    0 -0.69170783674E+02  0.13570628868E+02  0.15886579140E+04  0.15902209680E+04  0.00000000000E+00 0. -1.
         22    1    3    3    0    0  0.13759333804E+03  0.11647416445E+01  0.44167466840E+02  0.14451314273E+03  0.00000000000E+00 0. -1.
         22    1    3    3    0    0 -0.80105648480E+01 -0.34501245937E+02 -0.19198415981E+02  0.40287520357E+02  0.00000000000E+00 0. -1.
</event>
<event>
 7    1  0.6508013E-006  0.1362936E+03  0.7818608E-02  0.1396131E+00
          2   -1    0    0  502    0  0.00000000000E+00  0.00000000000E+00  0.32095380592E+04  0.32095380592E+04  0.00000000000E+00 0. -1.
          1   -1    0    0  501    0 -0.00000000000E+00 -0.00000000000E+00 -0.12034946044E+04  0.12034946044E+04  0.00000000000E+00 0. -1.
         25    2    1    2    0    0  0.11254370556E+02 -0.10941955960E+03 -0.42416202161E+03  0.45567383884E+03  0.12500370372E+03 0.  0.
          2    1    1    2  501    0  0.77277756621E+01 -0.25633807474E+02 -0.76188549689E+03  0.76235577060E+03  0.00000000000E+00 0. -1.
          1    1    1    2  502    0 -0.18982146218E+02  0.13505336707E+03  0.31920909734E+04  0.31950030542E+04  0.00000000000E+00 0. -1.
         22    1    3    3    0    0  0.49210772034E+02 -0.26589423029E+02 -0.68035869446E+02  0.88077108448E+02  0.00000000000E+00 0. -1.
         22    1    3    3    0    0 -0.37956401479E+02 -0.82830136570E+02 -0.35612615217E+03  0.36759673039E+03  0.00000000000E+00 0. -1.
</event>
<event>
 7    1  0.6508013E-006  0.4580808E+02  0.7818608E-02  0.1548656E+00
          2   -1    0    0  502    0  0.00000000000E+00  0.00000000000E+00  0.45732895489E+02  0.45732895489E+02  0.00000000000E+00 0. -1.
          1   -1    0    0  501    0 -0.00000000000E+00 -0.00000000000E+00 -0.14166247179E+04  0.14166247179E+04  0.00000000000E+00 0. -1.
         25    2    1    2    0    0  0.56053367691E+02  0.25728921803E+02 -0.16368532816E+03  0.21499302053E+03  0.12500061910E+03 0.  0.
          2    1    1    2  501    0 -0.30585961235E+02 -0.33855307094E+02 -0.12177672438E+04  0.12186216570E+04  0.00000000000E+00 0. -1.
          1    1    1    2  502    0 -0.25467406455E+02  0.81263852909E+01  0.10560749563E+02  0.28742935841E+02  0.00000000000E+00 0. -1.
         22    1    3    3    0    0  0.65685294496E+02  0.64798988301E+02 -0.14182834960E+03  0.16920031781E+03  0.00000000000E+00 0. -1.
         22    1    3    3    0    0 -0.96319268059E+01 -0.39070066498E+02 -0.21856978556E+02  0.45792702712E+02  0.00000000000E+00 0. -1.
</event>
<event>
 7    1  0.6508013E-006  0.6158914E+02  0.7818608E-02  0.1431348E+00
          2   -1    0    0  502    0  0.00000000000E+00  0.00000000000E+00  0.71473278930E+03  0.71473278930E+03  0.00000000000E+00 0. -1.
          1   -1    0    0  501    0 -0.00000000000E+00 -0.00000000000E+00 -0.36473699650E+03  0.36473699650E+03  0.00000000000E+00 0. -1.
         25    2    1    2    0    0 -0.76761904840E+02  0.69459273048E+02 -0.48832731584E+02  0.16948869715E+03  0.12499920856E+03 0.  0.
          2    1    1    2  501    0  0.47902984330E+02 -0.34830762738E+02 -0.25135406021E+03  0.25823776162E+03  0.00000000000E+00 0. -1.
          1    1    1    2  502    0  0.28858920510E+02 -0.34628510310E+02  0.65018258460E+03  0.65174332704E+03  0.00000000000E+00 0. -1.
         22    1    3    3    0    0 -0.87005345572E+02  0.66731046892E+02  0.96312579289E+01  0.11007144910E+03  0.00000000000E+00 0.  1.
         22    1    3    3    0    0  0.10243440732E+02  0.27282261555E+01 -0.58463989513E+02  0.59417248050E+02  0.00000000000E+00 0.  1.
</event>
<event>
 7    1  0.6508013E-006  0.1208149E+03  0.7818608E-02  0.1287014E+00
          2   -1    0    0  502    0  0.00000000000E+00  0.00000000000E+00  0.88292281732E+02  0.88292281732E+02  0.00000000000E+00 0. -1.
          1   -1    0    0  501    0 -0.00000000000E+00 -0.00000000000E+00 -0.95722298841E+03  0.95722298841E+03  0.00000000000E+00 0. -1.
         25    2    1    2    0    0  0.78287474881E+02  0.88942692727E+02 -0.13446355380E+03  0.21850752215E+03  0.12500143448E+03 0.  0.
          2    1    1    2  501    0 -0.12137438807E+03 -0.24314143771E+02 -0.73890943965E+03  0.74920629981E+03  0.00000000000E+00 0. -1.
          1    1    1    2  502    0  0.43086913188E+02 -0.64628548956E+02  0.44422867716E+01  0.77801448187E+02  0.00000000000E+00 0. -1.
         22    1    3    3    0    0  0.73997266808E+02  0.93357777632E+02 -0.42716583795E+02  0.12655424399E+03  0.00000000000E+00 0. -1.
         22    1    3    3    0    0  0.42902080723E+01 -0.44150849055E+01 -0.91746970006E+02  0.91953278165E+02  0.00000000000E+00 0. -1.
</event>
<event>
 7    1  0.6508013E-006  0.1635682E+03  0.7818608E-02  0.1194827E+00
          2   -1    0    0  502    0  0.00000000000E+00  0.00000000000E+00  0.19371400231E+04  0.19371400231E+04  0.00000000000E+00 0. -1.
          1   -1    0    0  501    0 -0.00000000000E+00 -0.00000000000E+00 -0.40758934755E+03  0.40758934755E+03  0.00000000000E+00 0. -1.
         25    2    1    2    0    0  0.12301057381E+03 -0.17293365805E+03 -0.85747834987E+02  0.26079719707E+03  0.12499934175E+03 0.  0.
          2    1    1    2  501    0  0.37657958073E+02  0.14136144005E+03 -0.20745001437E+03  0.25384382404E+03  0.00000000000E+00 0. -1.
          1    1    1    2  502    0 -0.16066853189E+03  0.31572218001E+02  0.18227485249E+04  0.18300883496E+04  0.00000000000E+00 0. -1.
         22    1    3    3    0    0  0.11719928985E+03 -0.12904724586E+03 -0.11399120090E+03  0.20828552299E+03  0.00000000000E+00 0. -1.
         22    1    3    3    0    0  0.58112839603E+01 -0.43886412195E+02  0.28243365912E+02  0.52511674079E+02  0.00000000000E+00 0. -1.
</event>
<event>
 7    1  0.6508013E-006  0.5247671E+02  0.7818608E-02  0.1498248E+00
          2   -1    0    0  502    0  0.00000000000E+00  0.00000000000E+00  0.25701073476E+03  0.25701073476E+03  0.00000000000E+00 0. -1.
          1   -1    0    0  501    0 -0.00000000000E+00 -0.00000000000E+00 -0.66078590820E+02  0.66078590820E+02  0.00000000000E+00 0. -1.
         25    2    1    2    0    0  0.10524295427E+00 -0.22904562788E+02  0.16878453336E+03  0.21128070420E+03  0.12500674858E+03 0.  0.
          2    1    1    2  501    0  0.78931811911E+00  0.55532670601E+02 -0.19528825657E+02  0.58871687242E+02  0.00000000000E+00 0. -1.
          1    1    1    2  502    0 -0.89456107338E+00 -0.32628107812E+02  0.41676436229E+02  0.52936934136E+02  0.00000000000E+00 0. -1.
         22    1    3    3    0    0 -0.47000980292E+01  0.16207354903E+02  0.17098270954E+03  0.17181343439E+03  0.00000000000E+00 0.  1.
         22    1    3    3    0    0  0.48053409835E+01 -0.39111917691E+02 -0.21981761812E+01  0.39467269806E+02  0.00000000000E+00 0.  1.
</event>
<event>
 7    1  0.6508013E-006  0.8420397E+02  0.7818608E-02  0.1389977E+00
          2   -1    0    0  502    0  0.00000000000E+00  0.00000000000E+00  0.49523785852E+03  0.49523785852E+03  0.00000000000E+00 0. -1.
          1   -1    0    0  501    0 -0.00000000000E+00 -0.00000000000E+00 -0.64211312497E+03  0.64211312497E+03  0.00000000000E+00 0. -1.
         25    2    1    2    0    0 -0.42687030637E+02 -0.11808912167E+03  0.96446096563E+01  0.17743764345E+03  0.12499550222E+03 0.  0.
          2    1    1    2  501    0  0.15777257382E+02  0.81372273349E+02 -0.55383282760E+03  0.56000104433E+03  0.00000000000E+00 0. -1.
          1    1    1    2  502    0  0.26909773255E+02  0.36716848321E+02  0.39731295149E+03  0.39991229572E+03  0.00000000000E+00 0. -1.
         22    1    3    3    0    0 -0.47343163406E+02 -0.55065290354E+02 -0.51873621596E+02  0.89243677314E+02  0.00000000000E+00 0.  1.
         22    1    3    3    0    0  0.46561327697E+01 -0.63023831315E+02  0.61518231252E+02  0.88193966133E+02  0.00000000000E+00 0.  1.
</event>
<event>
 7    1  0.6508013E-006  0.6203584E+02  0.7818608E-02  0.1504670E+00
          2   -1    0    0  502    0  0.00000000000E+00  0.00000000000E+00  0.19417299478E+03  0.19417299478E+03  0.00000000000E+00 0. -1.
          1   -1    0    0  501    0 -0.00000000000E+00 -0.00000000000E+00 -0.61169543784E+03  0.61169543784E+03  0.00000000000E+00 0. -1.
         25    2    1    2    0    0 -0.34762238661E+02 -0.18556588272E+02 -0.51121360066E+02  0.14067474753E+03  0.12499292353E+03 0.  0.
          2    1    1    2  501    0  0.61041484502E+02  0.15820622595E+02 -0.51268218861E+03  0.51654562378E+03  0.00000000000E+00 0. -1.
          1    1    1    2  502    0 -0.26279245841E+02  0.27359656772E+01  0.14628110562E+03  0.14864806131E+03  0.00000000000E+00 0. -1.
         22    1    3    3    0    0  0.45586061603E+02 -0.11720419610E+02 -0.39064232472E+01  0.47230471000E+02  0.00000000000E+00 0. -1.
         22    1    3    3    0    0 -0.80348300264E+02 -0.68361686628E+01 -0.47214936819E+02  0.93444276529E+02  0.00000000000E+00 0. -1.
</event>
<event>
 7    1  0.6508013E-006  0.5398790E+02  0.7818608E-02  0.1522497E+00
          2   -1    0    0  502    0  0.00000000000E+00  0.00000000000E+00  0.28592511328E+02  0.28592511328E+02  0.00000000000E+00 0. -1.
          1   -1    0    0  501    0 -0.00000000000E+00 -0.00000000000E+00 -0.19524084601E+04  0.19524084601E+04  0.00000000000E+00 0. -1.
         25    2    1    2    0    0  0.54763954797E+02  0.46719656948E+02 -0.46553017269E+03  0.48736767414E+03  0.12500836379E+03 0.  0.
          2    1    1    2  501    0 -0.27872657372E+02 -0.45473943983E+02 -0.14649338013E+04  0.14659044330E+04  0.00000000000E+00 0. -1.
          1    1    1    2  502    0 -0.26891297425E+02 -0.12457129650E+01  0.66480251524E+01  0.27728864319E+02  0.00000000000E+00 0. -1.
         22    1    3    3    0    0 -0.16131957890E+02  0.41236758058E+01 -0.22964391353E+01  0.16808283679E+02  0.00000000000E+00 0. -1.
         22    1    3    3    0    0  0.70895912688E+02  0.42595981142E+02 -0.46323373356E+03  0.47055939046E+03  0.00000000000E+00 0. -1.
</event>
<event>
 7    1  0.6508013E-006  0.7058130E+02  0.7818608E-02  0.1456407E+00
          2   -1    0    0  502    0  0.00000000000E+00  0.00000000000E+00  0.90531237642E+03  0.90531237642E+03  0.00000000000E+00 0. -1.
          1   -1    0    0  501    0 -0.00000000000E+00 -0.00000000000E+00 -0.14852124793E+04  0.14852124793E+04  0.00000000000E+00 0. -1.
         25    2    1    2    0    0  0.76781616261E+02  0.55589657299E+02 -0.11435828199E+03  0.19413130739E+03  0.12499408487E+03 0.  0.
          2    1    1    2  501    0 -0.65503642514E+02 -0.24948860737E+02 -0.13297363291E+04  0.13315824712E+04  0.00000000000E+00 0. -1.
          1    1    1    2  502    0 -0.11277973747E+02 -0.30640796562E+02  0.86419450819E+03  0.86481107711E+03  0.00000000000E+00 0. -1.
         22    1    3    3    0    0  0.35177498842E+02 -0.16578380455E+02 -0.10295289793E+03  0.11005270699E+03  0.00000000000E+00 0. -1.
         22    1    3    3    0    0  0.41604117419E+02  0.72168037754E+02 -0.11405384063E+02  0.84078600399E+02  0.00000000000E+00 0. -1.
</event>
<event>
 7    1  0.6508013E-006  0.6898438E+02  0.7818608E-02  0.1437940E+00
          2   -1    0    0  502    0  0.00000000000E+00  0.00000000000E+00  0.90725231796E+03  0.90725231796E+03  0.00000000000E+00 0. -1.
          1   -1    0    0  501    0 -0.00000000000E+00 -0.00000000000E+00 -0.14110422520E+03  0.14110422520E+03  0.00000000000E+00 0. -1.
         25    2    1    2    0    0  0.87509492208E+02 -0.52424123961E+02  0.44075619550E+03  0.46935720469E+03  0.12499584684E+03 0.  0.
          2    1    1    2  501    0 -0.33607401877E+02  0.18361319198E+02 -0.12159723422E+03  0.12748522610E+03  0.00000000000E+00 0. -1.
          1    1    1    2  502    0 -0.53902090331E+02  0.34062804764E+02  0.44698913147E+03  0.45151411237E+03  0.00000000000E+00 0. -1.
         22    1    3    3    0    0  0.41750476437E+02  0.33872484186E+02  0.24194958356E+03  0.24785085930E+03  0.00000000000E+00 0. -1.
         22    1    3    3    0    0  0.45759015771E+02 -0.86296608147E+02  0.19880661194E+03  0.22150634540E+03  0.00000000000E+00 0. -1.
</event>
<event>
 7    1  0.6508013E-006  0.9793632E+02  0.7818608E-02  0.1421769E+00
          2   -1    0    0  502    0  0.00000000000E+00  0.00000000000E+00  0.19640804754E+03  0.19640804754E+03  0.00000000000E+00 0. -1.
          1   -1    0    0  501    0 -0.00000000000E+00 -0.00000000000E+00 -0.31146281658E+03  0.31146281658E+03  0.00000000000E+00 0. -1.
         25    2    1    2    0    0 -0.51408659198E+02  0.77093723678E+02  0.23321283560E+02  0.15733874422E+03  0.12500122278E+03 0.  0.
          2    1    1    2  501    0  0.26913068553E+02 -0.95255014096E+02 -0.23191108041E+03  0.25215189903E+03  0.00000000000E+00 0. -1.
          1    1    1    2  502    0  0.24495590646E+02  0.18161290418E+02  0.93535027812E+02  0.98380220871E+02  0.00000000000E+00 0. -1.
         22    1    3    3    0    0 -0.50019821790E+02  0.41901273516E+02  0.72055822126E+02  0.97209777268E+02  0.00000000000E+00 0. -1.
         22    1    3    3    0    0 -0.13888374083E+01  0.35192450162E+02 -0.48734538567E+02  0.60128966955E+02  0.00000000000E+00 0. -1.
</event>
<event>
 7    1  0.6508013E-006  0.4934143E+02  0.7818608E-02  0.1565967E+00
          2   -1    0    0  502    0  0.00000000000E+00  0.00000000000E+00  0.36693492017E+03  0.36693492017E+03  0.00000000000E+00 0. -1.
          1   -1    0    0  501    0 -0.00000000000E+00 -0.00000000000E+00 -0.10930648546E+04  0.10930648546E+04  0.00000000000E+00 0. -1.
         25    2    1    2    0    0 -0.33868828806E+02  0.57099994558E+01 -0.50350940660E+03  0.51992901343E+03  0.12499901925E+03 0.  0.
          2    1    1    2  501    0  0.50980449462E+02  0.84808503804E+01 -0.57985085044E+03  0.58214941364E+03  0.00000000000E+00 0. -1.
          1    1    1    2  502    0 -0.17111620656E+02 -0.14190849836E+02  0.35723032258E+03  0.35792134772E+03  0.00000000000E+00 0. -1.
         22    1    3    3    0    0 -0.24587177742E+02  0.12268438787E+02 -0.50722756240E+03  0.50797130230E+03  0.00000000000E+00 0.  1.
         22    1    3    3    0    0 -0.92816510644E+01 -0.65584393309E+01  0.37181558013E+01  0.11957711131E+02  0.00000000000E+00 0.  1.
</event>
<event>
 7    1  0.6508013E-006  0.1675519E+03  0.7818608E-02  0.1191454E+00
          2   -1    0    0  502    0  0.00000000000E+00  0.00000000000E+00  0.43970151535E+03  0.43970151535E+03  0.00000000000E+00 0. -1.
          1   -1    0    0  501    0 -0.00000000000E+00 -0.00000000000E+00 -0.55915874969E+03  0.55915874969E+03  0.00000000000E+00 0. -1.
         25    2    1    2    0    0 -0.17861670631E+03  0.94891534259E+02 -0.72155017336E+02  0.24847539217E+03  0.12500137176E+03 0.  0.
          2    1    1    2  501    0  0.13139001405E+03  0.68567142282E+02 -0.36281598204E+03  0.39191864668E+03  0.00000000000E+00 0. -1.
          1    1    1    2  502    0  0.47226692254E+02 -0.16345867654E+03  0.31551376503E+03  0.35846622619E+03  0.00000000000E+00 0. -1.
         22    1    3    3    0    0 -0.76019084709E+02  0.10367210278E+03 -0.67966656183E+02  0.14541757970E+03  0.00000000000E+00 0.  1.
         22    1    3    3    0    0 -0.10259762160E+03 -0.87805685191E+01 -0.41883611522E+01  0.10305781247E+03  0.00000000000E+00 0.  1.
</event>
<event>
 7    1  0.6508013E-006  0.4391545E+02  0.7818608E-02  0.1566402E+00
          2   -1    0    0  502    0  0.00000000000E+00  0.00000000000E+00  0.19796060339E+03  0.19796060339E+03  0.00000000000E+00 0. -1.
          1   -1    0    0  501    0 -0.00000000000E+00 -0.00000000000E+00 -0.21066335253E+03  0.21066335253E+03  0.00000000000E+00 0. -1.
         25    2    1    2    0    0 -0.64098568421E+02  0.23150047359E+02  0.11166970707E+03  0.18093183915E+03  0.12498662239E+03 0.  0.
          2    1    1    2  501    0  0.39902761272E+02 -0.17233358125E+02 -0.17012980439E+03  0.17559433172E+03  0.00000000000E+00 0. -1.
          1    1    1    2  502    0  0.24195807149E+02 -0.59166892334E+01  0.45757348181E+02  0.52097785055E+02  0.00000000000E+00 0. -1.
         22    1    3    3    0    0 -0.95459434658E+01 -0.31727355936E+02  0.96566892995E+02  0.10209267836E+03  0.00000000000E+00 0. -1.
         22    1    3    3    0    0 -0.54552624955E+02  0.54877403295E+02  0.15102814072E+02  0.78839160794E+02  0.00000000000E+00 0. -1.
</event>
<event>
 7    1  0.6508013E-006  0.1426362E+03  0.7818608E-02  0.1296118E+00
          2   -1    0    0  502    0  0.00000000000E+00  0.00000000000E+00  0.10513849320E+04  0.10513849320E+04  0.00000000000E+00 0. -1.
          1   -1    0    0  501    0 -0.00000000000E+00 -0.00000000000E+00 -0.11133611139E+04  0.11133611139E+04  0.00000000000E+00 0. -1.
         25    2    1    2    0    0 -0.15331331562E+03  0.76700949979E+02  0.78489253197E+02  0.22621313846E+03  0.12499525059E+03 0.  0.
          2    1    1    2  501    0  0.98555629321E+02 -0.10225673887E+03 -0.10336226821E+04  0.10433338400E+04  0.00000000000E+00 0. -1.
          1    1    1    2  502    0  0.54757686301E+02  0.25555788888E+02  0.89315724702E+03  0.89519906750E+03  0.00000000000E+00 0. -1.
         22    1    3    3    0    0 -0.17473772438E+03  0.72187667714E+02  0.77399219404E+02  0.20429138713E+03  0.00000000000E+00 0.  1.
         22    1    3    3    0    0  0.21424408760E+02  0.45132822641E+01  0.10900337925E+01  0.21921751326E+02  0.00000000000E+00 0.  1.
</event>
<event>
 7    1  0.6508013E-006  0.1147153E+03  0.7818608E-02  0.1403813E+00
          2   -1    0    0  502    0  0.00000000000E+00  0.00000000000E+00  0.69876353631E+03  0.69876353631E+03  0.00000000000E+00 0. -1.
          1   -1    0    0  501    0 -0.00000000000E+00 -0.00000000000E+00 -0.73866125645E+02  0.73866125645E+02  0.00000000000E+00 0. -1.
         25    2    1    2    0    0 -0.84626587673E+02 -0.73985743084E+02  0.73021537766E+02  0.18328502198E+03  0.12500281910E+03 0.  0.
          2    1    1    2  501    0  0.20448643529E+02 -0.21858450269E+02  0.48900302433E+01  0.30329049872E+02  0.00000000000E+00 0. -1.
          1    1    1    2  502    0  0.64177944144E+02  0.95844193353E+02  0.54698584265E+03  0.55901559010E+03  0.00000000000E+00 0. -1.
         22    1    3    3    0    0 -0.20385504713E+02 -0.68376141022E+02 -0.16231981093E+02  0.73173374076E+02  0.00000000000E+00 0.  1.
         22    1    3    3    0    0 -0.64241082960E+02 -0.56096020620E+01  0.89253518860E+02  0.11011164790E+03  0.00000000000E+00 0.  1.
</event>
<event>
 7    1  0.6508013E-006  0.6995427E+02  0.7818608E-02  0.1364346E+00
          2   -1    0    0  502    0  0.00000000000E+00  0.00000000000E+00  0.21458297731E+04  0.21458297731E+04  0.00000000000E+00 0. -1.
          1   -1    0    0  501    0 -0.00000000000E+00 -0.00000000000E+00 -0.90604699694E+02  0.90604699694E+02  0.00000000000E+00 0. -1.
         25    2    1    2    0    0 -0.10042380557E+02 -0.26028172069E+02  0.22174146941E+03  0.25607109570E+03  0.12499924658E+03 0.  0.
          2    1    1    2  501    0  0.71714528623E+02 -0.69891864150E+01 -0.54961321481E+02  0.90623226611E+02  0.00000000000E+00 0. -1.
          1    1    1    2  502    0 -0.61672148066E+02  0.33017358484E+02  0.18884449254E+04  0.18897401504E+04  0.00000000000E+00 0. -1.
         22    1    3    3    0    0 -0.19089982309E+01 -0.18994793173E+02  0.23679962112E+03  0.23756789977E+03  0.00000000000E+00 0. -1.
         22    1    3    3    0    0 -0.81333823266E+01 -0.70333788967E+01 -0.15058151703E+02  0.18503195926E+02  0.00000000000E+00 0. -1.
</event>
<event>
 7    1  0.6508013E-006  0.9171952E+02  0.7818608E-02  0.1362323E+00
          2   -1    0    0  502    0  0.00000000000E+00  0.00000000000E+00  0.44306091087E+03  0.44306091087E+03  0.00000000000E+00 0. -1.
          1   -1    0    0  501    0 -0.00000000000E+00 -0.00000000000E+00 -0.16502725469E+03  0.16502725469E+03  0.00000000000E+00 0. -1.
         25    2    1    2    0    0 -0.35937545543E+02 -0.21049231446E+02  0.30998489494E+03  0.33682332212E+03  0.12499895163E+03 0.  0.
          2    1    1    2  501    0  0.81135954820E+02  0.47627363579E+02 -0.12976589372E+03  0.16028286277E+03  0.00000000000E+00 0. -1.
          1    1    1    2  502    0 -0.45198409277E+02 -0.26578132133E+02  0.97814654957E+02  0.11098198067E+03  0.00000000000E+00 0. -1.
         22    1    3    3    0    0 -0.38522575782E+02  0.81508140787E+01  0.17869132895E+02  0.43240380728E+02  0.00000000000E+00 0. -1.
         22    1    3    3    0    0  0.25850302395E+01 -0.29200045525E+02  0.29211576205E+03  0.29358294139E+03  0.00000000000E+00 0. -1.
</event>
<event>
 7    1  0.6508013E-006  0.9280608E+02  0.7818608E-02  0.1416523E+00
          2   -1    0    0  502    0  0.00000000000E+00  0.00000000000E+00  0.84923977691E+03  0.84923977691E+03  0.00000000000E+00 0. -1.
          1   -1    0    0  501    0 -0.00000000000E+00 -0.00000000000E+00 -0.83897957164E+02  0.83897957164E+02  0.00000000000E+00 0. -1.
         25    2    1    2    0    0 -0.17721718497E+02 -0.60565229282E+02  0.42586710768E+03  0.44829524516E+03  0.12499450836E+03 0.  0.
          2    1    1    2  501    0  0.14284006233E+02  0.93894223771E+02 -0.40603778539E+02  0.10329000398E+03  0.00000000000E+00 0. -1.
          1    1    1    2  502    0  0.34377122642E+01 -0.33328994489E+02  0.38007849060E+03  0.38155248493E+03  0.00000000000E+00 0. -1.
         22    1    3    3    0    0 -0.92856750049E+01 -0.65324892491E+01 -0.60944818247E+01  0.12885646464E+02  0.00000000000E+00 0. -1.
         22    1    3    3    0    0 -0.84360434925E+01 -0.54032740033E+02  0.43196158951E+03  0.43540959869E+03  0.00000000000E+00 0. -1.
</event>
<event>
 7    1  0.6508013E-006  0.5199730E+02  0.7818608E-02  0.1453582E+00
          2   -1    0    0  502    0  0.00000000000E+00  0.00000000000E+00  0.16569679850E+03  0.16569679850E+03  0.00000000000E+00 0. -1.
          1   -1    0    0  501    0 -0.00000000000E+00 -0.00000000000E+00 -0.29240040554E+03  0.29240040554E+03  0.00000000000E+00 0. -1.
         25    2    1    2    0    0 -0.52478581010E+02 -0.25274509194E+02 -0.23101533290E+02  0.13982665244E+03  0.12500003845E+03 0.  0.
          2    1    1    2  501    0  0.37395953797E+02 -0.25469102518E+02 -0.20174738986E+03  0.20675865606E+03  0.00000000000E+00 0. -1.
          1    1    1    2  502    0  0.15082627213E+02  0.50743611712E+02  0.98145316097E+02  0.11151189553E+03  0.00000000000E+00 0. -1.
         22    1    3    3    0    0 -0.11440004542E+02 -0.44615367926E+02 -0.63929015356E+02  0.78792916963E+02  0.00000000000E+00 0. -1.
         22    1    3    3    0    0 -0.41038576469E+02  0.19340858732E+02  0.40827482065E+02  0.61033735482E+02  0.00000000000E+00 0. -1.
</event>
<event>
 7    1  0.6508013E-006  0.8008797E+02  0.7818608E-02  0.1483217E+00
          2   -1    0    0  502    0  0.00000000000E+00  0.00000000000E+00  0.29866788202E+04  0.29866788202E+04  0.00000000000E+00 0. -1.
          1   -1    0    0  501    0 -0.00000000000E+00 -0.00000000000E+00 -0.78243240682E+03  0.78243240682E+03  0.00000000000E+00 0. -1.
         25    2    1    2    0    0 -0.82615756105E+02 -0.47508846040E+02 -0.12455146104E+03  0.20055051516E+03  0.12499995631E+03 0.  0.
          2    1    1    2  501    0  0.22999839781E+02 -0.59045073625E+01 -0.61911055959E+03  0.61956576796E+03  0.00000000000E+00 0. -1.
          1    1    1    2  502    0  0.59615916325E+02  0.53413353402E+02  0.29479084340E+04  0.29489949439E+04  0.00000000000E+00 0. -1.
         22    1    3    3    0    0 -0.10394043915E+03 -0.70472016805E+02 -0.10425084172E+03  0.16321200337E+03  0.00000000000E+00 0.  1.
         22    1    3    3    0    0  0.21324683045E+02  0.22963170766E+02 -0.20300619315E+02  0.37338511796E+02  0.00000000000E+00 0.  1.
</event>
<event>
 7    1  0.6508013E-006  0.3821688E+02  0.7818608E-02  0.1548547E+00
          2   -1    0    0  502    0  0.00000000000E+00  0.00000000000E+00  0.20433147782E+03  0.20433147782E+03  0.00000000000E+00 0. -1.
          1   -1    0    0  501    0 -0.00000000000E+00 -0.00000000000E+00 -0.18100858834E+03  0.18100858834E+03  0.00000000000E+00 0. -1.
         25    2    1    2    0    0 -0.30775859370E+02  0.28654100172E+02 -0.75449842696E+00  0.13188348834E+03  0.12499789699E+03 0.  0.
          2    1    1    2  501    0  0.31088708831E+00 -0.38656620169E+02 -0.10947961526E+03  0.11610433709E+03  0.00000000000E+00 0. -1.
          1    1    1    2  502    0  0.30464972282E+02  0.10002519997E+02  0.13355700316E+03  0.13735224074E+03  0.00000000000E+00 0. -1.
         22    1    3    3    0    0  0.16023332782E+02  0.44155697076E+02  0.44688574477E+02  0.64834724234E+02  0.00000000000E+00 0.  1.
         22    1    3    3    0    0 -0.46799192152E+02 -0.15501596904E+02 -0.45443072904E+02  0.67048764102E+02  0.00000000000E+00 0.  1.
</event>
<event>
 7    1  0.6508013E-006  0.1125157E+03  0.7818608E-02  0.1265087E+00
          2   -1    0    0  502    0  0.00000000000E+00  0.00000000000E+00  0.12735974356E+04  0.12735974356E+04  0.00000000000E+00 0. -1.
          1   -1    0    0  501    0 -0.00000000000E+00 -0.00000000000E+00 -0.99016352960E+02  0.99016352960E+02  0.00000000000E+00 0. -1.
         25    2    1    2    0    0  0.26047031895E+02 -0.11978945820E+03  0.11051000709E+03  0.20704006606E+03  0.12500066048E+03 0.  0.
          2    1    1    2  501    0 -0.10800071932E+03  0.57577590011E+02  0.29495235045E+02  0.12589401549E+03  0.00000000000E+00 0. -1.
          1    1    1    2  502    0  0.81953687425E+02  0.62211868188E+02  0.10345758405E+04  0.10396797070E+04  0.00000000000E+00 0. -1.
         22    1    3    3    0    0 -0.80985307545E+01 -0.13661198127E+03  0.82705669041E+02  0.15990199285E+03  0.00000000000E+00 0.  1.
         22    1    3    3    0    0  0.34145562650E+02  0.16822523071E+02  0.27804338051E+02  0.47138073206E+02  0.00000000000E+00 0.  1.
</event>
<event>
 7    1  0.6508013E-006  0.4343266E+02  0.7818608E-02  0.1508026E+00
          2   -1    0    0  502    0  0.00000000000E+00  0.00000000000E+00  0.10208445348E+03  0.10208445348E+03  0.00000000000E+00 0. -1.
          1   -1    0    0  501    0 -0.00000000000E+00 -0.00000000000E+00 -0.22336505689E+04  0.22336505689E+04  0.00000000000E+00 0. -1.
         25    2    1    2    0    0  0.19865779377E+02 -0.99256528612E+01 -0.18788422831E+03  0.22677125302E+03  0.12502619795E+03 0.  0.
          2    1    1    2  501    0 -0.37670245745E+02 -0.22377723811E+02 -0.20219579139E+04  0.20224325985E+04  0.00000000000E+00 0. -1.
          1    1    1    2  502    0  0.17804466367E+02  0.32303376673E+02  0.78276026770E+02  0.86531170881E+02  0.00000000000E+00 0. -1.
         22    1    3    3    0    0  0.55701014659E+02 -0.11635744096E+02 -0.28961695004E+02  0.63849615130E+02  0.00000000000E+00 0.  1.
         22    1    3    3    0    0 -0.35835235281E+02  0.17100912350E+01 -0.15892253331E+03  0.16292163789E+03  0.00000000000E+00 0.  1.
</event>
<event>
 7    1  0.6508013E-006  0.1999564E+03  0.7818608E-02  0.1278113E+00
          2   -1    0    0  502    0  0.00000000000E+00  0.00000000000E+00  0.22609014588E+04  0.22609014588E+04  0.00000000000E+00 0. -1.
          1   -1    0    0  501    0 -0.00000000000E+00 -0.00000000000E+00 -0.26430847883E+03  0.26430847883E+03  0.00000000000E+00 0. -1.
         25    2    1    2    0    0  0.10409579243E+03  0.11551223310E+03  0.10010721059E+04  0.10207590753E+04  0.12499887443E+03 0.  0.
          2    1    1    2  501    0 -0.11581942333E+03 -0.16521015344E+03 -0.21384715704E+03  0.29400534042E+03  0.00000000000E+00 0. -1.
          1    1    1    2  502    0  0.11723630895E+02  0.49697920340E+02  0.12093680311E+04  0.12104455219E+04  0.00000000000E+00 0. -1.
         22    1    3    3    0    0  0.42518982178E+02  0.57404874242E+02  0.15743506776E+03  0.17288430811E+03  0.00000000000E+00 0. -1.
         22    1    3    3    0    0  0.61576810256E+02  0.58107358854E+02  0.84363703812E+03  0.84787476717E+03  0.00000000000E+00 0. -1.
</event>
<event>
 7    1  0.6508013E-006  0.1054803E+03  0.7818608E-02  0.1353266E+00
          2   -1    0    0  502    0  0.00000000000E+00  0.00000000000E+00  0.13351273437E+04  0.13351273437E+04  0.00000000000E+00 0. -1.
          1   -1    0    0  501    0 -0.00000000000E+00 -0.00000000000E+00 -0.31385278227E+03  0.31385278227E+03  0.00000000000E+00 0. -1.
         25    2    1    2    0    0 -0.13564321423E+03  0.62520672526E+02  0.38739981810E+03  0.43360330139E+03  0.12500115141E+03 0.  0.
          2    1    1    2  501    0  0.45963733748E+02 -0.17581482951E+02 -0.28592224128E+03  0.29012635423E+03  0.00000000000E+00 0. -1.
          1    1    1    2  502    0  0.89679480481E+02 -0.44939189576E+02  0.91979698465E+03  0.92525047038E+03  0.00000000000E+00 0. -1.
         22    1    3    3    0    0 -0.10350538228E+03  0.10064940262E+03  0.30134533250E+03  0.33414469295E+03  0.00000000000E+00 0. -1.
         22    1    3    3    0    0 -0.32137831948E+02 -0.38128730092E+02  0.86054485593E+02  0.99458608433E+02  0.00000000000E+00 0. -1.
</event>
<event>
 7    1  0.6508013E-006  0.8404184E+02  0.7818608E-02  0.1434275E+00
          2   -1    0    0  502    0  0.00000000000E+00  0.00000000000E+00  0.93454056205E+02  0.93454056205E+02  0.00000000000E+00 0. -1.
          1   -1    0    0  501    0 -0.00000000000E+00 -0.00000000000E+00 -0.55770670421E+04  0.55770670421E+04  0.00000000000E+00 0. -1.
         25    2    1    2    0    0 -0.18142472948E+02 -0.10970001395E+03 -0.25302231954E+04  0.25357478027E+04  0.12499703019E+03 0.  0.
          2    1    1    2  501    0  0.15282196809E+02  0.77514429340E+02 -0.30406739048E+04  0.30417001542E+04  0.00000000000E+00 0. -1.
          1    1    1    2  502    0  0.28602761389E+01  0.32185584613E+02  0.87284114396E+02  0.93073141466E+02  0.00000000000E+00 0. -1.
         22    1    3    3    0    0 -0.18174586261E+02  0.10715786256E+02 -0.11739513367E+04  0.11741409134E+04  0.00000000000E+00 0. -1.
         22    1    3    3    0    0  0.32113312691E-01 -0.12041580021E+03 -0.13562718588E+04  0.13616068893E+04  0.00000000000E+00 0. -1.
</event>
<event>
 7    1  0.6508013E-006  0.1142826E+03  0.7818608E-02  0.1353444E+00
          2   -1    0    0  502    0  0.00000000000E+00  0.00000000000E+00  0.52916045497E+03  0.52916045497E+03  0.00000000000E+00 0. -1.
          1   -1    0    0  501    0 -0.00000000000E+00 -0.00000000000E+00 -0.49219338272E+03  0.49219338272E+03  0.00000000000E+00 0. -1.
         25    2    1    2    0    0  0.28803810306E+02 -0.76338152171E+02  0.52839407148E+02  0.15834964445E+03  0.12500173593E+03 0.  0.
          2    1    1    2  501    0 -0.80503377938E+01  0.11666332153E+03 -0.43039963405E+03  0.44600334474E+03  0.00000000000E+00 0. -1.
          1    1    1    2  502    0 -0.20753472512E+02 -0.40325169357E+02  0.41452729915E+03  0.41700084850E+03  0.00000000000E+00 0. -1.
         22    1    3    3    0    0 -0.79848700813E+01 -0.79130063721E+01  0.76357062079E+02  0.77180144787E+02  0.00000000000E+00 0. -1.
         22    1    3    3    0    0  0.36788680387E+02 -0.68425145799E+02 -0.23517654932E+02  0.81169499664E+02  0.00000000000E+00 0. -1.
</event>
<event>
 7    1  0.6508013E-006  0.4629081E+02  0.7818608E-02  0.1503071E+00
          2   -1    0    0  502    0  0.00000000000E+00  0.00000000000E+00  0.34410430591E+03  0.34410430591E+03  0.00000000000E+00 0. -1.
          1   -1    0    0  501    0 -0.00000000000E+00 -0.00000000000E+00 -0.77718763256E+03  0.77718763256E+03  0.00000000000E+00 0. -1.
         25    2    1    2    0    0 -0.40963510669E+00 -0.30398879127E+02  0.17091172807E+03  0.21391690734E+03  0.12500145919E+03 0.  0.
          2    1    1    2  501    0 -0.35289689743E+02 -0.60059795248E+01 -0.75096195819E+03  0.75181466907E+03  0.00000000000E+00 0. -1.
          1    1    1    2  502    0  0.35699324850E+02  0.36404858652E+02  0.14696690346E+03  0.15556036205E+03  0.00000000000E+00 0. -1.
         22    1    3    3    0    0  0.48267224673E+02  0.23672240159E+02  0.92226231234E+02  0.10675100777E+03  0.00000000000E+00 0. -1.
         22    1    3    3    0    0 -0.48676859780E+02 -0.54071119286E+02  0.78685496837E+02  0.10716589957E+03  0.00000000000E+00 0. -1.
</event>
<event>
 7    1  0.6508013E-006  0.9167116E+02  0.7818608E-02  0.1312690E+00
          2   -1    0    0  502    0  0.00000000000E+00  0.00000000000E+00  0.11834305765E+04  0.11834305765E+04  0.00000000000E+00 0. -1.
          1   -1    0    0  501    0 -0.00000000000E+00 -0.00000000000E+00 -0.34072656115E+03  0.34072656115E+03  0.00000000000E+00 0. -1.
         25    2    1    2    0    0  0.13161907618E+03  0.92205055470E+02  0.25291966304E+03  0.32467562517E+03  0.12498220736E+03 0.  0.
          2    1    1    2  501    0 -0.53161457489E+02 -0.72941342330E+02 -0.29628957024E+03  0.30973228669E+03  0.00000000000E+00 0. -1.
          1    1    1    2  502    0 -0.78457618693E+02 -0.19263713140E+02  0.88607392259E+03  0.88974922583E+03  0.00000000000E+00 0. -1.
         22    1    3    3    0    0  0.96080694917E+02  0.15358377285E+02  0.60819192458E+02  0.11474473347E+03  0.00000000000E+00 0.  1.
         22    1    3    3    0    0  0.35538381265E+02  0.76846678185E+02  0.19210047058E+03  0.20993089169E+03  0.00000000000E+00 0.  1.
</event>
<event>
 7    1  0.6508013E-006  0.1641077E+03  0.7818608E-02  0.1386164E+00
          2   -1    0    0  502    0  0.00000000000E+00  0.00000000000E+00  0.16723337713E+04  0.16723337713E+04  0.00000000000E+00 0. -1.
          1   -1    0    0  501    0 -0.00000000000E+00 -0.00000000000E+00 -0.37115319760E+03  0.37115319760E+03  0.00000000000E+00 0. -1.
         25    2    1    2    0    0  0.11773774703E+03 -0.13203256986E+03  0.47847704399E+03  0.52522489442E+03  0.12500452598E+03 0.  0.
          2    1    1    2  501    0  0.19922570163E+01  0.24003860258E+02 -0.34179901355E+03  0.34264664023E+03  0.00000000000E+00 0. -1.
          1    1    1    2  502    0 -0.11973000405E+03  0.10802870960E+03  0.11645025433E+04  0.11756154342E+04  0.00000000000E+00 0. -1.
         22    1    3    3    0    0  0.51735778311E+02 -0.66047207838E+02  0.79865088121E+02  0.11583288273E+03  0.00000000000E+00 0.  1.
         22    1    3    3    0    0  0.66001968720E+02 -0.65985362022E+02  0.39861195587E+03  0.40939201170E+03  0.00000000000E+00 0.  1.
</event>
<event>
 7    1  0.6508013E-006  0.1360304E+03  0.7818608E-02  0.1251942E+00
          2   -1    0    0  502    0  0.00000000000E+00  0.00000000000E+00  0.99556959190E+02  0.99556959190E+02  0.00000000000E+00 0. -1.
          1   -1    0    0  501    0 -0.00000000000E+00 -0.00000000000E+00 -0.46785527592E+03  0.46785527592E+03  0.00000000000E+00 0. -1.
         25    2    1    2    0    0  0.28116351311E+02  0.12430010150E+01 -0.52021086742E+02  0.13828744782E+03  0.12500060198E+03 0.  0.
          2    1    1    2  501    0 -0.98335878481E+02 -0.11774835024E+03 -0.15395791989E+03  0.21734226482E+03  0.00000000000E+00 0. -1.
          1    1    1    2  502    0  0.70219527171E+02  0.11650534922E+03 -0.16231931010E+03  0.21178252247E+03  0.00000000000E+00 0. -1.
         22    1    3    3    0    0  0.28647782707E+02  0.60821541284E+02 -0.37422475813E+02  0.76944116307E+02  0.00000000000E+00 0.  1.
         22    1    3    3    0    0 -0.53143139642E+00 -0.59578540269E+02 -0.14598610929E+02  0.61343331512E+02  0.00000000000E+00 0.  1.
</event>
<event>
 7    1  0.6508013E-006  0.1456040E+03  0.7818608E-02  0.1329800E+00
          2   -1    0    0  502    0  0.00000000000E+00  0.00000000000E+00  0.22666593037E+03  0.22666593037E+03  0.00000000000E+00 0. -1.
          1   -1    0    0  501    0 -0.00000000000E+00 -0.00000000000E+00 -0.14398563631E+04  0.14398563631E+04  0.00000000000E+00 0. -1.
         25    2    1    2    0    0 -0.46078621286E+02  0.17261720386E+03 -0.34327439869E+03  0.40667455970E+03  0.12500778496E+03 0.  0.
          2    1    1    2  501    0 -0.12682818332E+02 -0.41783757622E+02 -0.10379838016E+04  0.10389018763E+04  0.00000000000E+00 0. -1.
          1    1    1    2  502    0  0.58761439618E+02 -0.13083344624E+03  0.16806776753E+03  0.22094585745E+03  0.00000000000E+00 0. -1.
         22    1    3    3    0    0 -0.56742467827E+02  0.10097126135E+03 -0.30167244436E+03  0.32314264182E+03  0.00000000000E+00 0. -1.
         22    1    3    3    0    0  0.10663846541E+02  0.71645942507E+02 -0.41601954333E+02  0.83531917882E+02  0.00000000000E+00 0. -1.
</event>
<event>
 7    1  0.6508013E-006  0.1368499E+03  0.7818608E-02  0.1305457E+00
          2   -1    0    0  502    0  0.00000000000E+00  0.00000000000E+00  0.15327711359E+04  0.15327711359E+04  0.00000000000E+00 0. -1.
          1   -1    0    0  501    0 -0.00000000000E+00 -0.00000000000E+00 -0.14098516610E+04  0.14098516610E+04  0.00000000000E+00 0. -1.
         25    2    1    2    0    0 -0.23523941995E+02  0.15447554967E+03  0.12944608851E+04  0.13098363982E+04  0.12500534243E+03 0.  0.
          2    1    1    2  501    0 -0.17259983910E+02 -0.55155980544E+02 -0.13890340732E+04  0.13902358598E+04  0.00000000000E+00 0. -1.
          1    1    1    2  502    0  0.40783925905E+02 -0.99319569128E+02  0.21749266310E+03  0.24255053891E+03  0.00000000000E+00 0. -1.
         22    1    3    3    0    0 -0.50459789132E+01  0.14798248542E+03  0.72129759661E+03  0.73633857754E+03  0.00000000000E+00 0. -1.
         22    1    3    3    0    0 -0.18477963082E+02  0.64930642524E+01  0.57316328849E+03  0.57349782064E+03  0.00000000000E+00 0. -1.
</event>
<event>
 7    1  0.6508013E-006  0.1243798E+03  0.7818608E-02  0.1309608E+00
          2   -1    0    0  502    0  0.00000000000E+00  0.00000000000E+00  0.17242448444E+04  0.17242448444E+04  0.00000000000E+00 0. -1.
          1   -1    0    0  501    0 -0.00000000000E+00 -0.00000000000E+00 -0.77972750772E+03  0.77972750772E+03  0.00000000000E+00 0. -1.
         25    2    1    2    0    0  0.14955696430E+03  0.91720300201E+02  0.10186095614E+04  0.10411394144E+04  0.12500377058E+03 0.  0.
          2    1    1    2  501    0 -0.88505819765E+02 -0.87066436683E+02 -0.76207960240E+03  0.77212639180E+03  0.00000000000E+00 0. -1.
          1    1    1    2  502    0 -0.61051144534E+02 -0.46538635175E+01  0.68798737771E+03  0.69070654593E+03  0.00000000000E+00 0. -1.
         22    1    3    3    0    0  0.11526584625E+03 -0.37585915127E+00  0.61755386722E+03  0.62821901873E+03  0.00000000000E+00 0.  1.
         22    1    3    3    0    0  0.34291118052E+02  0.92096159352E+02  0.40105569419E+03  0.41292039570E+03  0.00000000000E+00 0.  1.
</event>
<event>
 7    1  0.6508013E-006  0.3116794E+03  0.7818608E-02  0.1186428E+00
          2   -1    0    0  502    0  0.00000000000E+00  0.00000000000E+00  0.18763829552E+04  0.18763829552E+04  0.00000000000E+00 0. -1.
          1   -1    0    0  501    0 -0.00000000000E+00 -0.00000000000E+00 -0.21676817706E+04  0.21676817706E+04  0.00000000000E+00 0. -1.
         25    2    1    2    0    0  0.30928503749E+03  0.49737980719E+01 -0.27576156165E+02  0.33476424192E+03  0.12499872080E+03 0.  0.
          2    1    1    2  501    0 -0.67369228350E+01 -0.83959701758E+02 -0.19714165356E+04  0.19732150857E+04  0.00000000000E+00 0. -1.
          1    1    1    2  502    0 -0.30254811465E+03  0.78985903686E+02  0.17076938764E+04  0.17360853982E+04  0.00000000000E+00 0. -1.
         22    1    3    3    0    0  0.19013833022E+03  0.55485608459E+02  0.14722596884E+02  0.19861518629E+03  0.00000000000E+00 0.  1.
         22    1    3    3    0    0  0.11914670726E+03 -0.50511810387E+02 -0.42298753050E+02  0.13614905563E+03  0.00000000000E+00 0.  1.
</event>
<event>
 7    1  0.6508013E-006  0.5826651E+02  0.7818608E-02  0.1543402E+00
          2   -1    0    0  502    0  0.00000000000E+00  0.00000000000E+00  0.14852153171E+02  0.14852153171E+02  0.00000000000E+00 0. -1.
          1   -1    0    0  501    0 -0.00000000000E+00 -0.00000000000E+00 -0.19659371983E+04  0.19659371983E+04  0.00000000000E+00 0. -1.
         25    2    1    2    0    0 -0.31585882051E+02 -0.35642710096E+02 -0.64179209112E+03  0.65558389213E+03  0.12500032266E+03 0.  0.
          2    1    1    2  501    0  0.80722648187E+01 -0.20187760992E+02 -0.12003901572E+04  0.12005870383E+04  0.00000000000E+00 0. -1.
          1    1    1    2  502    0  0.23513617232E+02  0.55830471088E+02 -0.10890279678E+03  0.12461842097E+03  0.00000000000E+00 0. -1.
         22    1    3    3    0    0 -0.18109743630E+02 -0.57991584300E+02 -0.61566582936E+03  0.61865612428E+03  0.00000000000E+00 0. -1.
         22    1    3    3    0    0 -0.13476138421E+02  0.22348874204E+02 -0.26126261764E+02  0.36927767854E+02  0.00000000000E+00 0. -1.
</event>
<event>
 7    1  0.6508013E-006  0.6530547E+02  0.7818608E-02  0.1411866E+00
          2   -1    0    0  502    0  0.00000000000E+00  0.00000000000E+00  0.14689163330E+03  0.14689163330E+03  0.00000000000E+00 0. -1.
          1   -1    0    0  501    0 -0.00000000000E+00 -0.00000000000E+00 -0.86853931464E+03  0.86853931464E+03  0.00000000000E+00 0. -1.
         25    2    1    2    0    0  0.22250369876E+01 -0.11271986950E+03 -0.18665722258E+03  0.25134809300E+03  0.12499690133E+03 0.  0.
          2    1    1    2  501    0 -0.57960253220E-01  0.49366535517E+02 -0.63974216089E+03  0.64164405289E+03  0.00000000000E+00 0. -1.
          1    1    1    2  502    0 -0.21670767344E+01  0.63353333983E+02  0.10475170214E+03  0.12243880206E+03  0.00000000000E+00 0. -1.
         22    1    3    3    0    0  0.37117866538E+02 -0.12518426471E+03 -0.15452463008E+03  0.20230347859E+03  0.00000000000E+00 0. -1.
         22    1    3    3    0    0 -0.34892829551E+02  0.12464395207E+02 -0.32132592500E+02  0.49044614411E+02  0.00000000000E+00 0. -1.
</event>
<event>
 7    1  0.6508013E-006  0.8294981E+02  0.7818608E-02  0.1420768E+00
          2   -1    0    0  502    0  0.00000000000E+00  0.00000000000E+00  0.15786708826E+03  0.15786708826E+03  0.00000000000E+00 0. -1.
          1   -1    0    0  501    0 -0.00000000000E+00 -0.00000000000E+00 -0.33673569206E+04  0.33673569206E+04  0.00000000000E+00 0. -1.
         25    2    1    2    0    0 -0.11035275387E+03 -0.89939723145E+01 -0.90210220810E+03  0.91742696063E+03  0.12500084961E+03 0.  0.
          2    1    1    2  501    0  0.80006788152E+02 -0.10891240353E+02 -0.24547279536E+04  0.24560555840E+04  0.00000000000E+00 0. -1.
          1    1    1    2  502    0  0.30345965718E+02  0.19885212668E+02  0.14734032937E+03  0.15174146427E+03  0.00000000000E+00 0. -1.
         22    1    3    3    0    0 -0.78028894091E+02  0.54877366971E+02 -0.51910040921E+03  0.52779282731E+03  0.00000000000E+00 0.  1.
         22    1    3    3    0    0 -0.32323859779E+02 -0.63871339285E+02 -0.38300179889E+03  0.38963413332E+03  0.00000000000E+00 0.  1.
</event>
<event>
 7    1  0.6508013E-006  0.7742522E+02  0.7818608E-02  0.1429867E+00
          2   -1    0    0  502    0  0.00000000000E+00  0.00000000000E+00  0.13200278956E+04  0.13200278956E+04  0.00000000000E+00 0. -1.
          1   -1    0    0  501    0 -0.00000000000E+00 -0.00000000000E+00 -0.35221059059E+02  0.35221059059E+02  0.00000000000E+00 0. -1.
         25    2    1    2    0    0  0.10710809380E+03 -0.69229570922E+01  0.49216369913E+03  0.51900893450E+03  0.12500038501E+03 0.  0.
          2    1    1    2  501    0 -0.72020262702E+02  0.16076130992E+02  0.42370982443E+02  0.85092070021E+02  0.00000000000E+00 0. -1.
          1    1    1    2  502    0 -0.35087831102E+02 -0.91531738999E+01  0.75027215494E+03  0.75114795012E+03  0.00000000000E+00 0. -1.
         22    1    3    3    0    0  0.92883786970E+02 -0.59181369346E+02  0.34773102249E+03  0.36475566666E+03  0.00000000000E+00 0.  1.
         22    1    3    3    0    0  0.14224306834E+02  0.52258412254E+02  0.14443267665E+03  0.15425326784E+03  0.00000000000E+00 0.  1.
</event>
<event>
 7    1  0.6508013E-006  0.4507803E+02  0.7818608E-02  0.1524289E+00
          2   -1    0    0  502    0  0.00000000000E+00  0.00000000000E+00  0.99007831245E+03  0.99007831245E+03  0.00000000000E+00 0. -1.
          1   -1    0    0  501    0 -0.00000000000E+00 -0.00000000000E+00 -0.70012514889E+03  0.70012514889E+03  0.00000000000E+00 0. -1.
         25    2    1    2    0    0  0.65840766056E+02 -0.10037142326E+02  0.29121700331E+03  0.32383281672E+03  0.12499839785E+03 0.  0.
          2    1    1    2  501    0 -0.28586788134E+02 -0.14063258256E+02 -0.68272431159E+03  0.68346723793E+03  0.00000000000E+00 0. -1.
          1    1    1    2  502    0 -0.37253977922E+02  0.24100400582E+02  0.68146047185E+03  0.68290340669E+03  0.00000000000E+00 0. -1.
         22    1    3    3    0    0 -0.12763909173E+01 -0.32466005168E+02  0.22362657024E+03  0.22597458614E+03  0.00000000000E+00 0.  1.
         22    1    3    3    0    0  0.67117156973E+02  0.22428862842E+02  0.67590433069E+02  0.97858230573E+02  0.00000000000E+00 0.  1.
</event>
<event>
 7    1  0.6508013E-006  0.9229284E+02  0.7818608E-02  0.1373604E+00
          2   -1    0    0  502    0  0.00000000000E+00  0.00000000000E+00  0.43825346260E+03  0.43825346260E+03  0.00000000000E+00 0. -1.
          1   -1    0    0  501    0 -0.00000000000E+00 -0.00000000000E+00 -0.24541753260E+03  0.24541753260E+03  0.00000000000E+00 0. -1.
         25    2    1    2    0    0  0.80287966556E+00 -0.12081945985E+03  0.29874775603E+03  0.34564836139E+03  0.12499832602E+03 0.  0.
          2    1    1    2  501    0 -0.14800792109E+02  0.45081153604E+02 -0.20619008452E+03  0.21157912187E+03  0.00000000000E+00 0. -1.
          1    1    1    2  502    0  0.13997912443E+02  0.75738306247E+02  0.10027825849E+03  0.12644351194E+03  0.00000000000E+00 0. -1.
         22    1    3    3    0    0  0.21844999286E+02 -0.45436587181E+02  0.24636716305E+03  0.25147259588E+03  0.00000000000E+00 0.  1.
         22    1    3    3    0    0 -0.21042119620E+02 -0.75382872670E+02  0.52380592979E+02  0.94175765518E+02  0.00000000000E+00 0.  1.
</event>
<event>
 7    1  0.6508013E-006  0.1448182E+03  0.7818608E-02  0.1340106E+00
          2   -1    0    0  502    0  0.00000000000E+00  0.00000000000E+00  0.36108531776E+03  0.36108531776E+03  0.00000000000E+00 0. -1.
          1   -1    0    0  501    0 -0.00000000000E+00 -0.00000000000E+00 -0.91108085568E+03  0.91108085568E+03  0.00000000000E+00 0. -1.
         25    2    1    2    0    0  0.15465246472E+03  0.72078139063E+02 -0.18806620922E+03  0.28302998607E+03  0.12499772393E+03 0.  0.
          2    1    1    2  501    0 -0.15831581043E+02 -0.36870242522E+02 -0.65853926941E+03  0.65976058013E+03  0.00000000000E+00 0. -1.
          1    1    1    2  502    0 -0.13882088368E+03 -0.35207896541E+02  0.29660994071E+03  0.32937560725E+03  0.00000000000E+00 0. -1.
         22    1    3    3    0    0  0.85663298612E+02  0.12036151340E+02 -0.16863906908E+03  0.18953154167E+03  0.00000000000E+00 0. -1.
         22    1    3    3    0    0  0.68989166110E+02  0.60041987723E+02 -0.19427140142E+02  0.93498444395E+02  0.00000000000E+00 0. -1.
</event>
<event>
 7    1  0.6508013E-006  0.1403451E+03  0.7818608E-02  0.1396720E+00
          2   -1    0    0  502    0  0.00000000000E+00  0.00000000000E+00  0.23425710560E+03  0.23425710560E+03  0.00000000000E+00 0. -1.
          1   -1    0    0  501    0 -0.00000000000E+00 -0.00000000000E+00 -0.12436715149E+04  0.12436715149E+04  0.00000000000E+00 0. -1.
         25    2    1    2    0    0 -0.14420671013E+03 -0.71352211215E+02 -0.36617054528E+02  0.20703298698E+03  0.12504053632E+03 0.  0.
          2    1    1    2  501    0  0.24246469172E+02  0.90453352598E+01 -0.10910128440E+04  0.10913197217E+04  0.00000000000E+00 0. -1.
          1    1    1    2  502    0  0.11996024096E+03  0.62306875955E+02  0.11821548921E+03  0.17957591178E+03  0.00000000000E+00 0. -1.
         22    1    3    3    0    0  0.41192258412E+01 -0.53824856675E+02 -0.38248289809E+01  0.54117580641E+02  0.00000000000E+00 0.  1.
         22    1    3    3    0    0 -0.14832593597E+03 -0.17527354539E+02 -0.32792225547E+02  0.15291540634E+03  0.00000000000E+00 0.  1.
</event>
<event>
 7    1  0.6508013E-006  0.8971592E+02  0.7818608E-02  0.1391363E+00
          2   -1    0    0  502    0  0.00000000000E+00  0.00000000000E+00  0.27846283818E+03  0.27846283818E+03  0.00000000000E+00 0. -1.
          1   -1    0    0  501    0 -0.00000000000E+00 -0.00000000000E+00 -0.24272547575E+03  0.24272547575E+03  0.00000000000E+00 0. -1.
         25    2    1    2    0    0  0.50398890622E+02  0.17518115291E+02 -0.46786525423E+02  0.14373339417E+03  0.12499350823E+03 0.  0.
          2    1    1    2  501    0  0.30625670845E+02  0.29109266648E+02 -0.13459222087E+03  0.14106858984E+03  0.00000000000E+00 0. -1.
          1    1    1    2  502    0 -0.81024561467E+02 -0.46627381939E+02  0.21711610872E+03  0.23638632992E+03  0.00000000000E+00 0. -1.
         22    1    3    3    0    0 -0.12326239163E+02 -0.40439968534E+02 -0.39770435122E+02  0.58043214390E+02  0.00000000000E+00 0. -1.
         22    1    3    3    0    0  0.62725129785E+02  0.57958083826E+02 -0.70160903013E+01  0.85690179778E+02  0.00000000000E+00 0. -1.
</event>
<event>
 7    1  0.6508013E-006  0.2077441E+03  0.7818608E-02  0.1295460E+00
          2   -1    0    0  502    0  0.00000000000E+00  0.00000000000E+00  0.68217537694E+03  0.68217537694E+03  0.00000000000E+00 0. -1.
          1   -1    0    0  501    0 -0.00000000000E+00 -0.00000000000E+00 -0.15609919543E+03  0.15609919543E+03  0.00000000000E+00 0. -1.
         25    2    1    2    0    0  0.19921430096E+03 -0.81360922457E+02  0.47836026829E+03  0.53921816465E+03  0.12498698090E+03 0.  0.
          2    1    1    2  501    0 -0.20317977292E+03  0.39806559342E+02 -0.31586987254E+02  0.20943810554E+03  0.00000000000E+00 0. -1.
          1    1    1    2  502    0  0.39654719528E+01  0.41554363115E+02  0.79302900469E+02  0.89618302174E+02  0.00000000000E+00 0. -1.
         22    1    3    3    0    0  0.10741673331E+03 -0.10390957738E+03  0.23913826239E+03  0.28199763014E+03  0.00000000000E+00 0.  1.
         22    1    3    3    0    0  0.91797567654E+02  0.22548654918E+02  0.23922200590E+03  0.25722053451E+03  0.00000000000E+00 0.  1.
</event>
<event>
 7    1  0.6508013E-006  0.3516871E+02  0.7818608E-02  0.1551959E+00
          2   -1    0    0  502    0  0.00000000000E+00  0.00000000000E+00  0.36678510983E+03  0.36678510983E+03  0.00000000000E+00 0. -1.
          1   -1    0    0  501    0 -0.00000000000E+00 -0.00000000000E+00 -0.50352350357E+02  0.50352350357E+02  0.00000000000E+00 0. -1.
         25    2    1    2    0    0  0.88758811485E+01 -0.12346522159E+02  0.41983806215E+02  0.13273434614E+03  0.12499819512E+03 0.  0.
          2    1    1    2  501    0  0.23523137025E+02  0.26143832928E+02  0.90090606791E+02  0.96711712877E+02  0.00000000000E+00 0. -1.
          1    1    1    2  502    0 -0.32399018174E+02 -0.13797310769E+02  0.18435834646E+03  0.18769140117E+03  0.00000000000E+00 0. -1.
         22    1    3    3    0    0 -0.50212867462E+02  0.15148324735E+02  0.42584428186E+02  0.67559139463E+02  0.00000000000E+00 0.  1.
         22    1    3    3    0    0  0.59088748611E+02 -0.27494846894E+02 -0.60062197037E+00  0.65175206673E+02  0.00000000000E+00 0.  1.
</event>
<event>
 7    1  0.6508013E-006  0.8945173E+02  0.7818608E-02  0.1381104E+00
          2   -1    0    0  502    0  0.00000000000E+00  0.00000000000E+00  0.30818754999E+04  0.30818754999E+04  0.00000000000E+00 0. -1.
          1   -1    0    0  501    0 -0.00000000000E+00 -0.00000000000E+00 -0.46645913962E+03  0.46645913962E+03  0.00000000000E+00 0. -1.
         25    2    1    2    0    0 -0.31556234661E+02  0.31636053663E+02 -0.21061549055E+01  0.13276403584E+03  0.12500086994E+03 0.  0.
          2    1    1    2  501    0 -0.40022874262E+02  0.22756706309E+02 -0.39702364566E+03  0.39968421705E+03  0.00000000000E+00 0. -1.
          1    1    1    2  502    0  0.71579108923E+02 -0.54392759971E+02  0.30145461609E+04  0.30158863866E+04  0.00000000000E+00 0. -1.
         22    1    3    3    0    0 -0.73234403389E+01 -0.46212366690E+02  0.15618163627E+02  0.49326895793E+02  0.00000000000E+00 0. -1.
         22    1    3    3    0    0 -0.24232794322E+02  0.77848420352E+02 -0.17724318532E+02  0.83437140048E+02  0.00000000000E+00 0. -1.
</event>
<event>
 7    1  0.6508013E-006  0.9378765E+02  0.7818608E-02  0.1298006E+00
          2   -1    0    0  502    0  0.00000000000E+00  0.00000000000E+00  0.22298599994E+03  0.22298599994E+03  0.00000000000E+00 0. -1.
          1   -1    0    0  501    0 -0.00000000000E+00 -0.00000000000E+00 -0.15939717846E+04  0.15939717846E+04  0.00000000000E+00 0. -1.
         25    2    1    2    0    0 -0.52065142192E+02 -0.16643335744E+03 -0.27877930779E+03  0.35179161112E+03  0.12501437399E+03 0.  0.
          2    1    1    2  501    0  0.19836981761E+01  0.90285791055E+02 -0.12658447355E+04  0.12690619976E+04  0.00000000000E+00 0. -1.
          1    1    1    2  502    0  0.50081444016E+02  0.76147566382E+02  0.17363825870E+03  0.19610417585E+03  0.00000000000E+00 0. -1.
         22    1    3    3    0    0  0.24022015838E+02 -0.99319027147E+02 -0.84418757607E+02  0.13254377780E+03  0.00000000000E+00 0.  1.
         22    1    3    3    0    0 -0.76087158030E+02 -0.67114330290E+02 -0.19436055018E+03  0.21924783332E+03  0.00000000000E+00 0.  1.
</event>
<event>
 7    1  0.6508013E-006  0.1187319E+03  0.7818608E-02  0.1270395E+00
          2   -1    0    0  502    0  0.00000000000E+00  0.00000000000E+00  0.18289339837E+03  0.18289339837E+03  0.00000000000E+00 0. -1.
          1   -1    0    0  501    0 -0.00000000000E+00 -0.00000000000E+00 -0.12702830015E+04  0.12702830015E+04  0.00000000000E+00 0. -1.
         25    2    1    2    0    0  0.77146740180E+02  0.17789954344E+03 -0.19400629551E+03  0.30144135812E+03  0.12501432962E+03 0.  0.
          2    1    1    2  501    0 -0.47711818759E+01 -0.92486275058E+02 -0.99574327794E+03  0.10000405746E+04  0.00000000000E+00 0. -1.
          1    1    1    2  502    0 -0.72375558304E+02 -0.85413268383E+02  0.10235997030E+03  0.15169446719E+03  0.00000000000E+00 0. -1.
         22    1    3    3    0    0  0.94717381802E+02  0.67927521688E+02 -0.75799821415E+02  0.13903648278E+03  0.00000000000E+00 0.  1.
         22    1    3    3    0    0 -0.17570641622E+02  0.10997202175E+03 -0.11820647410E+03  0.16240487534E+03  0.00000000000E+00 0.  1.
</event>
<event>
 7    1  0.6508013E-006  0.6669679E+02  0.7818608E-02  0.1505743E+00
          2   -1    0    0  502    0  0.00000000000E+00  0.00000000000E+00  0.16805669692E+03  0.16805669692E+03  0.00000000000E+00 0. -1.
          1   -1    0    0  501    0 -0.00000000000E+00 -0.00000000000E+00 -0.16856073316E+03  0.16856073316E+03  0.00000000000E+00 0. -1.
         25    2    1    2    0    0  0.76227693583E+02 -0.19412866781E+01 -0.49163188053E+02  0.15445849433E+03  0.12500391014E+03 0.  0.
          2    1    1    2  501    0 -0.12848660008E+02  0.20737846803E+02 -0.54456932001E+02  0.59671633101E+02  0.00000000000E+00 0. -1.
          1    1    1    2  502    0 -0.63379033575E+02 -0.18796560124E+02  0.10311608382E+03  0.12248730265E+03  0.00000000000E+00 0. -1.
         22    1    3    3    0    0  0.24409870633E+02 -0.53536127460E+02 -0.55727870862E+02  0.81040448657E+02  0.00000000000E+00 0.  1.
         22    1    3    3    0    0  0.51817822950E+02  0.51594840782E+02  0.65646828093E+01  0.73418045676E+02  0.00000000000E+00 0.  1.
</event>
<event>
 7    1  0.6508013E-006  0.1828867E+03  0.7818608E-02  0.1214693E+00
          2   -1    0    0  502    0  0.00000000000E+00  0.00000000000E+00  0.15258260805E+04  0.15258260805E+04  0.00000000000E+00 0. -1.
          1   -1    0    0  501    0 -0.00000000000E+00 -0.00000000000E+00 -0.27790789680E+03  0.27790789680E+03  0.00000000000E+00 0. -1.
         25    2    1    2    0    0  0.16364612584E+03  0.17761290965E+03  0.20668483535E+03  0.34157082749E+03  0.12500243538E+03 0.  0.
          2    1    1    2  501    0  0.23253231923E+00 -0.10563057043E+03 -0.19032121209E+03  0.21766955518E+03  0.00000000000E+00 0. -1.
          1    1    1    2  502    0 -0.16387865816E+03 -0.71982339223E+02  0.12315545604E+04  0.12444935946E+04  0.00000000000E+00 0. -1.
         22    1    3    3    0    0  0.15479990989E+01  0.17788936583E+02  0.78121601569E+02  0.80136303868E+02  0.00000000000E+00 0. -1.
         22    1    3    3    0    0  0.16209812675E+03  0.15982397307E+03  0.12856323378E+03  0.26143452362E+03  0.00000000000E+00 0. -1.
</event>
<event>
 7    1  0.6508013E-006  0.1439965E+03  0.7818608E-02  0.1235692E+00
          2   -1    0    0  502    0  0.00000000000E+00  0.00000000000E+00  0.17566254549E+04  0.17566254549E+04  0.00000000000E+00 0. -1.
          1   -1    0    0  501    0 -0.00000000000E+00 -0.00000000000E+00 -0.75946282006E+03  0.75946282006E+03  0.00000000000E+00 0. -1.
         25    2    1    2    0    0 -0.95070013580E+02  0.15334881250E+03  0.17242794428E+03  0.27912477768E+03  0.12500031906E+03 0.  0.
          2    1    1    2  501    0  0.10734903571E+03 -0.10073327688E+02 -0.69859249775E+03  0.70686403595E+03  0.00000000000E+00 0. -1.
          1    1    1    2  502    0 -0.12279022133E+02 -0.14327548481E+03  0.15233271883E+04  0.15300994613E+04  0.00000000000E+00 0. -1.
         22    1    3    3    0    0 -0.70708806975E+02  0.14932206767E+03  0.80210294966E+02  0.18365866899E+03  0.00000000000E+00 0. -1.
         22    1    3    3    0    0 -0.24361206605E+02  0.40267448275E+01  0.92217649318E+02  0.95466108682E+02  0.00000000000E+00 0. -1.
</event>
<event>
 7    1  0.6508013E-006  0.1051849E+03  0.7818608E-02  0.1424975E+00
          2   -1    0    0  502    0  0.00000000000E+00  0.00000000000E+00  0.12743907744E+04  0.12743907744E+04  0.00000000000E+00 0. -1.
          1   -1    0    0  501    0 -0.00000000000E+00 -0.00000000000E+00 -0.27529479206E+03  0.27529479206E+03  0.00000000000E+00 0. -1.
         25    2    1    2    0    0  0.82343737446E+02 -0.81871362938E+02  0.42883977930E+02  0.17591919277E+03  0.12500046262E+03 0.  0.
          2    1    1    2  501    0  0.69500472060E+01  0.26818204417E+02 -0.20548426628E+03  0.20734344199E+03  0.00000000000E+00 0. -1.
          1    1    1    2  502    0 -0.89293784652E+02  0.55053158521E+02  0.11616962707E+04  0.11664229317E+04  0.00000000000E+00 0. -1.
         22    1    3    3    0    0 -0.28075784254E+02  0.61018261268E+01  0.13767723616E+01  0.28764169477E+02  0.00000000000E+00 0.  1.
         22    1    3    3    0    0  0.11041952170E+03 -0.87973189064E+02  0.41507205568E+02  0.14715502329E+03  0.00000000000E+00 0.  1.
</event>
<event>
 7    1  0.6508013E-006  0.3911190E+02  0.7818608E-02  0.1578297E+00
          2   -1    0    0  502    0  0.00000000000E+00  0.00000000000E+00  0.86322625796E+03  0.86322625796E+03  0.00000000000E+00 0. -1.
          1   -1    0    0  501    0 -0.00000000000E+00 -0.00000000000E+00 -0.17543158556E+03  0.17543158556E+03  0.00000000000E+00 0. -1.
         25    2    1    2    0    0 -0.50317238357E+02  0.32341776424E+02  0.87537102490E+02  0.16390596167E+03  0.12499841991E+03 0.  0.
          2    1    1    2  501    0  0.12665986068E+02 -0.22669977516E+02 -0.13550107511E+03  0.13796701214E+03  0.00000000000E+00 0. -1.
          1    1    1    2  502    0  0.37651252289E+02 -0.96717989077E+01  0.73575864502E+03  0.73678486970E+03  0.00000000000E+00 0. -1.
         22    1    3    3    0    0 -0.35110198739E+02 -0.19658885335E+02 -0.18912466846E+02  0.44462110052E+02  0.00000000000E+00 0. -1.
         22    1    3    3    0    0 -0.15207039618E+02  0.52000661758E+02  0.10644956934E+03  0.11944385162E+03  0.00000000000E+00 0. -1.
</event>
<event>
 7    1  0.6508013E-006  0.1539064E+03  0.7818608E-02  0.1246873E+00
          2   -1    0    0  502    0  0.00000000000E+00  0.00000000000E+00  0.10256333964E+04  0.10256333964E+04  0.00000000000E+00 0. -1.
          1   -1    0    0  501    0 -0.00000000000E+00 -0.00000000000E+00 -0.12045259046E+04  0.12045259046E+04  0.00000000000E+00 0. -1.
         25    2    1    2    0    0 -0.70889513239E+02  0.75460923369E+01 -0.92025612349E+03  0.93143910052E+03  0.12500079424E+03 0.  0.
          2    1    1    2  501    0 -0.69040697377E+02  0.57847823618E+02 -0.26535309683E+03  0.28022357965E+03  0.00000000000E+00 0. -1.
          1    1    1    2  502    0  0.13993021062E+03 -0.65393915955E+02  0.10067167121E+04  0.10184966208E+04  0.00000000000E+00 0. -1.
         22    1    3    3    0    0  0.23637399658E+02 -0.20160598622E+02 -0.44494496982E+03  0.44602825310E+03  0.00000000000E+00 0. -1.
         22    1    3    3    0    0 -0.94526912897E+02  0.27706690959E+02 -0.47531115367E+03  0.48541084742E+03  0.00000000000E+00 0. -1.
</event>
<event>
 7    1  0.6508013E-006  0.1809611E+03  0.7818608E-02  0.1283135E+00
          2   -1    0    0  502    0  0.00000000000E+00  0.00000000000E+00  0.12407075885E+04  0.12407075885E+04  0.00000000000E+00 0. -1.
          1   -1    0    0  501    0 -0.00000000000E+00 -0.00000000000E+00 -0.82895659151E+03  0.82895659151E+03  0.00000000000E+00 0. -1.
         25    2    1    2    0    0 -0.17119612001E+03  0.12229416072E+03  0.17714027377E+03  0.30210703660E+03  0.12500404682E+03 0.  0.
          2    1    1    2  501    0  0.73252928769E+01 -0.53290513197E+02 -0.75761683645E+03  0.75952406781E+03  0.00000000000E+00 0. -1.
          1    1    1    2  502    0  0.16387082713E+03 -0.69003647524E+02  0.99222755961E+03  0.10080330756E+04  0.00000000000E+00 0. -1.
         22    1    3    3    0    0 -0.36057391098E+02  0.87385542897E+02  0.29717603663E+02  0.99093413139E+02  0.00000000000E+00 0. -1.
         22    1    3    3    0    0 -0.13513872891E+03  0.34908617825E+02  0.14742267011E+03  0.20301362346E+03  0.00000000000E+00 0. -1.
</event>
<event>
 7    1  0.6508013E-006  0.1806853E+03  0.7818608E-02  0.1397264E+00
          2   -1    0    0  502    0  0.00000000000E+00  0.00000000000E+00  0.16420114352E+04  0.16420114352E+04  0.00000000000E+00 0. -1.
          1   -1    0    0  501    0 -0.00000000000E+00 -0.00000000000E+00 -0.18115626630E+03  0.18115626630E+03  0.00000000000E+00 0. -1.
         25    2    1    2    0    0 -0.84490660360E+02  0.17516152764E+03  0.75004626641E+03  0.78486622189E+03  0.12500140817E+03 0.  0.
          2    1    1    2  501    0  0.89726850911E+02 -0.15584437407E+03 -0.11421561803E+03  0.21303423224E+03  0.00000000000E+00 0. -1.
          1    1    1    2  502    0 -0.52361905507E+01 -0.19317153574E+02  0.82502452057E+03  0.82526724742E+03  0.00000000000E+00 0. -1.
         22    1    3    3    0    0 -0.42843735726E+02  0.57762311751E+02  0.50378387201E+03  0.50889120649E+03  0.00000000000E+00 0.  1.
         22    1    3    3    0    0 -0.41646924635E+02  0.11739921589E+03  0.24626239441E+03  0.27597501540E+03  0.00000000000E+00 0.  1.
</event>
<event>
 7    1  0.6508013E-006  0.2341791E+03  0.7818608E-02  0.1350217E+00
          2   -1    0    0  502    0  0.00000000000E+00  0.00000000000E+00  0.13045177134E+04  0.13045177134E+04  0.00000000000E+00 0. -1.
          1   -1    0    0  501    0 -0.00000000000E+00 -0.00000000000E+00 -0.11858290658E+03  0.11858290658E+03  0.00000000000E+00 0. -1.
         25    2    1    2    0    0  0.73925298903E+02 -0.22831545126E+03  0.64179797632E+03  0.69650685798E+03  0.12499706279E+03 0.  0.
          2    1    1    2  501    0 -0.91789225041E+02  0.21423063316E+03  0.58330388420E+02  0.24025499002E+03  0.00000000000E+00 0. -1.
          1    1    1    2  502    0  0.17863926138E+02  0.14084818108E+02  0.48580644212E+03  0.48633877201E+03  0.00000000000E+00 0. -1.
         22    1    3    3    0    0  0.51284495832E+02 -0.50140063565E+02  0.32038423010E+03  0.32831414893E+03  0.00000000000E+00 0.  1.
         22    1    3    3    0    0  0.22640803071E+02 -0.17817538770E+03  0.32141374621E+03  0.36819270905E+03  0.00000000000E+00 0.  1.
</event>
<event>
 7    1  0.6508013E-006  0.5142951E+02  0.7818608E-02  0.1450464E+00
          2   -1    0    0  502    0  0.00000000000E+00  0.00000000000E+00  0.13972331355E+03  0.13972331355E+03  0.00000000000E+00 0. -1.
          1   -1    0    0  501    0 -0.00000000000E+00 -0.00000000000E+00 -0.44065977708E+03  0.44065977708E+03  0.00000000000E+00 0. -1.
         25    2    1    2    0    0 -0.27263033544E+02  0.12451157882E+02 -0.18270324099E+03  0.22339197100E+03  0.12500077643E+03 0.  0.
          2    1    1    2  501    0 -0.14276880511E+02 -0.44573974923E+02 -0.22935750800E+03  0.23408446133E+03  0.00000000000E+00 0. -1.
          1    1    1    2  502    0  0.41539914055E+02  0.32122817041E+02  0.11112428547E+03  0.12290665830E+03  0.00000000000E+00 0. -1.
         22    1    3    3    0    0 -0.12468994923E+01 -0.41546737729E+02 -0.13212130159E+02  0.43614751605E+02  0.00000000000E+00 0. -1.
         22    1    3    3    0    0 -0.26016134052E+02  0.53997895611E+02 -0.16949111083E+03  0.17977721939E+03  0.00000000000E+00 0. -1.
</event>
<event>
 7    1  0.6508013E-006  0.3363861E+02  0.7818608E-02  0.1607655E+00
          2   -1    0    0  502    0  0.00000000000E+00  0.00000000000E+00  0.75419435331E+03  0.75419435331E+03  0.00000000000E+00 0. -1.
          1   -1    0    0  501    0 -0.00000000000E+00 -0.00000000000E+00 -0.22509883886E+02  0.22509883886E+02  0.00000000000E+00 0. -1.
         25    2    1    2    0    0  0.44569809258E+02 -0.26285219914E+02  0.27342062170E+03  0.30505883702E+03  0.12499870797E+03 0.  0.
          2    1    1    2  501    0 -0.19340409089E+02  0.24963675435E+02  0.33158458536E+02  0.45789954001E+02  0.00000000000E+00 0. -1.
          1    1    1    2  502    0 -0.25229400169E+02  0.13215444791E+01  0.42510538919E+03  0.42585544617E+03  0.00000000000E+00 0. -1.
         22    1    3    3    0    0  0.45038756152E+02 -0.58120711639E+02  0.78512288516E+02  0.10756712381E+03  0.00000000000E+00 0. -1.
         22    1    3    3    0    0 -0.46894689350E+00  0.31835491724E+02  0.19490833318E+03  0.19749171321E+03  0.00000000000E+00 0. -1.
</event>
<event>
 7    1  0.6508013E-006  0.6348375E+02  0.7818608E-02  0.1451016E+00
          2   -1    0    0  502    0  0.00000000000E+00  0.00000000000E+00  0.87091667518E+03  0.87091667518E+03  0.00000000000E+00 0. -1.
          1   -1    0    0  501    0 -0.00000000000E+00 -0.00000000000E+00 -0.17261771205E+03  0.17261771205E+03  0.00000000000E+00 0. -1.
         25    2    1    2    0    0 -0.60604785869E+02 -0.36837009189E+02  0.17688578134E+03  0.22791181043E+03  0.12500123351E+03 0.  0.
          2    1    1    2  501    0  0.28556633712E+02  0.56812247481E+02 -0.13966942339E+03  0.15346224494E+03  0.00000000000E+00 0. -1.
          1    1    1    2  502    0  0.32048152157E+02 -0.19975238292E+02  0.66108260518E+03  0.66216033185E+03  0.00000000000E+00 0. -1.
         22    1    3    3    0    0  0.39835542899E+01 -0.61197939555E+01 -0.18477759960E+02  0.19868271086E+02  0.00000000000E+00 0. -1.
         22    1    3    3    0    0 -0.64588340158E+02 -0.30717215233E+02  0.19536354129E+03  0.20804353935E+03  0.00000000000E+00 0. -1.
</event>
<event>
 7    1  0.6508013E-006  0.4053775E+02  0.7818608E-02  0.1585107E+00
          2   -1    0    0  502    0  0.00000000000E+00  0.00000000000E+00  0.31763840474E+03  0.31763840474E+03  0.00000000000E+00 0. -1.
          1   -1    0    0  501    0 -0.00000000000E+00 -0.00000000000E+00 -0.73947866357E+03  0.73947866357E+03  0.00000000000E+00 0. -1.
         25    2    1    2    0    0  0.47366431356E+02  0.32185171843E+02 -0.63848261989E+02  0.15159211922E+03  0.12499642373E+03 0.  0.
          2    1    1    2  501    0 -0.81670410908E+01 -0.22594756757E+02 -0.63004108187E+03  0.63049899955E+03  0.00000000000E+00 0. -1.
          1    1    1    2  502    0 -0.39199390266E+02 -0.95904150865E+01  0.27204908502E+03  0.27502594954E+03  0.00000000000E+00 0. -1.
         22    1    3    3    0    0 -0.15104824286E+02  0.45088990247E+02  0.15286292201E+02  0.49948408258E+02  0.00000000000E+00 0. -1.
         22    1    3    3    0    0  0.62471255643E+02 -0.12903818404E+02 -0.79134554190E+02  0.10164371096E+03  0.00000000000E+00 0. -1.
</event>
<event>
 7    1  0.6508013E-006  0.7667219E+02  0.7818608E-02  0.1449825E+00
          2   -1    0    0  502    0  0.00000000000E+00  0.00000000000E+00  0.10999714125E+04  0.10999714125E+04  0.00000000000E+00 0. -1.
          1   -1    0    0  501    0 -0.00000000000E+00 -0.00000000000E+00 -0.16105760496E+03  0.16105760496E+03  0.00000000000E+00 0. -1.
         25    2    1    2    0    0 -0.52854016809E+02 -0.34007149075E+02  0.21120713463E+03  0.25335075995E+03  0.12501248164E+03 0.  0.
          2    1    1    2  501    0  0.43554412407E+02  0.64148398065E+02 -0.12893639889E+03  0.15045464025E+03  0.00000000000E+00 0. -1.
          1    1    1    2  502    0  0.92996044024E+01 -0.30141248990E+02  0.85664307177E+03  0.85722361723E+03  0.00000000000E+00 0. -1.
         22    1    3    3    0    0  0.16968625614E+02  0.19332092997E+02  0.13380547540E+03  0.13625552951E+03  0.00000000000E+00 0. -1.
         22    1    3    3    0    0 -0.69822642424E+02 -0.53339242072E+02  0.77401659235E+02  0.11709523044E+03  0.00000000000E+00 0. -1.
</event>
<event>
 7    1  0.6508013E-006  0.1203864E+03  0.7818608E-02  0.1277740E+00
          2   -1    0    0  502    0  0.00000000000E+00  0.00000000000E+00  0.22639383764E+04  0.22639383764E+04  0.00000000000E+00 0. -1.
          1   -1    0    0  501    0 -0.00000000000E+00 -0.00000000000E+00 -0.64322144307E+03  0.64322144307E+03  0.00000000000E+00 0. -1.
         25    2    1    2    0    0  0.42998504998E+02 -0.15545018363E+03  0.12016297100E+03  0.23680765852E+03  0.12500038603E+03 0.  0.
          2    1    1    2  501    0  0.43891298978E+02  0.72924543673E+02 -0.58006944450E+03  0.58628064580E+03  0.00000000000E+00 0. -1.
          1    1    1    2  502    0 -0.86889803976E+02  0.82525639959E+02  0.20806234068E+04  0.20840715152E+04  0.00000000000E+00 0. -1.
         22    1    3    3    0    0 -0.36402817909E+02 -0.11173097058E+02  0.33481661041E+02  0.50705274633E+02  0.00000000000E+00 0. -1.
         22    1    3    3    0    0  0.79401322907E+02 -0.14427708657E+03  0.86681309963E+02  0.18610238388E+03  0.00000000000E+00 0. -1.
</event>
<event>
 7    1  0.6508013E-006  0.4787552E+02  0.7818608E-02  0.1521500E+00
          2   -1    0    0  502    0  0.00000000000E+00  0.00000000000E+00  0.18190599023E+04  0.18190599023E+04  0.00000000000E+00 0. -1.
          1   -1    0    0  501    0 -0.00000000000E+00 -0.00000000000E+00 -0.69259326023E+03  0.69259326023E+03  0.00000000000E+00 0. -1.
         25    2    1    2    0    0  0.30167087360E+02 -0.77831024926E+01  0.47312668202E+03  0.49035156424E+03  0.12500067787E+03 0.  0.
          2    1    1    2  501    0 -0.28779427377E+02  0.38311055033E+02 -0.68296671236E+03  0.68464554521E+03  0.00000000000E+00 0. -1.
          1    1    1    2  502    0 -0.13876599831E+01 -0.30527952541E+02  0.13363066724E+04  0.13366560530E+04  0.00000000000E+00 0. -1.
         22    1    3    3    0    0 -0.47877298859E+02  0.77398627503E+01  0.20551672206E+03  0.21116170171E+03  0.00000000000E+00 0.  1.
         22    1    3    3    0    0  0.78044386220E+02 -0.15522965243E+02  0.26760995996E+03  0.27918986253E+03  0.00000000000E+00 0.  1.
</event>
<event>
 7    1  0.6508013E-006  0.1020080E+03  0.7818608E-02  0.1346953E+00
          2   -1    0    0  502    0  0.00000000000E+00  0.00000000000E+00  0.17630069676E+04  0.17630069676E+04  0.00000000000E+00 0. -1.
          1   -1    0    0  501    0 -0.00000000000E+00 -0.00000000000E+00 -0.14988761130E+03  0.14988761130E+03  0.00000000000E+00 0. -1.
         25    2    1    2    0    0  0.12492441495E+03 -0.85806570344E+02  0.21791961901E+03  0.29340099330E+03  0.12500522212E+03 0.  0.
          2    1    1    2  501    0 -0.80728756916E+02  0.55300384372E+02 -0.90223609021E+02  0.13309982844E+03  0.00000000000E+00 0. -1.
          1    1    1    2  502    0 -0.44195658029E+02  0.30506185971E+02  0.14854233463E+04  0.14863937571E+04  0.00000000000E+00 0. -1.
         22    1    3    3    0    0  0.10947017000E+03 -0.93526975913E+02  0.10261000552E+03  0.17680448687E+03  0.00000000000E+00 0. -1.
         22    1    3    3    0    0  0.15454244944E+02  0.77204055692E+01  0.11530961349E+03  0.11659650644E+03  0.00000000000E+00 0. -1.
</event>
<event>
 7    1  0.6508013E-006  0.2688646E+02  0.7818608E-02  0.1646312E+00
          2   -1    0    0  502    0  0.00000000000E+00  0.00000000000E+00  0.15847317788E+04  0.15847317788E+04  0.00000000000E+00 0. -1.
          1   -1    0    0  501    0 -0.00000000000E+00 -0.00000000000E+00 -0.17897296358E+02  0.17897296358E+02  0.00000000000E+00 0. -1.
         25    2    1    2    0    0 -0.10916984321E+02  0.77867509145E+01  0.34300236264E+03  0.36531466488E+03  0.12499747823E+03 0.  0.
          2    1    1    2  501    0  0.25722951693E+02  0.12662878426E+02  0.24489695771E+02  0.37706285057E+02  0.00000000000E+00 0. -1.
          1    1    1    2  502    0 -0.14805967372E+02 -0.20449629340E+02  0.11993424241E+04  0.11996081253E+04  0.00000000000E+00 0. -1.
         22    1    3    3    0    0 -0.52261778306E+02  0.23964918335E+02  0.79575348210E+02  0.98172536003E+02  0.00000000000E+00 0. -1.
         22    1    3    3    0    0  0.41344793985E+02 -0.16178167421E+02  0.26342701443E+03  0.26714212888E+03  0.00000000000E+00 0. -1.
</event>
<event>
 7    1  0.6508013E-006  0.1430676E+03  0.7818608E-02  0.1297080E+00
          2   -1    0    0  502    0  0.00000000000E+00  0.00000000000E+00  0.88695386790E+03  0.88695386790E+03  0.00000000000E+00 0. -1.
          1   -1    0    0  501    0 -0.00000000000E+00 -0.00000000000E+00 -0.39790879222E+03  0.39790879222E+03  0.00000000000E+00 0. -1.
         25    2    1    2    0    0 -0.72591303050E+02 -0.80962349331E+02 -0.15005886521E+02  0.16636406997E+03  0.12500971105E+03 0.  0.
          2    1    1    2  501    0 -0.57779587023E+02  0.15062849479E+02 -0.29765885803E+03  0.30358881053E+03  0.00000000000E+00 0. -1.
          1    1    1    2  502    0  0.13037089007E+03  0.65899499851E+02  0.80170982024E+03  0.81490977962E+03  0.00000000000E+00 0. -1.
         22    1    3    3    0    0 -0.19710996992E+02 -0.54651547341E+02  0.51343554936E+02  0.77533706622E+02  0.00000000000E+00 0.  1.
         22    1    3    3    0    0 -0.52880306058E+02 -0.26310801990E+02 -0.66349441457E+02  0.88830363343E+02  0.00000000000E+00 0.  1.
</event>
<event>
 7    1  0.6508013E-006  0.3847461E+02  0.7818608E-02  0.1523374E+00
          2   -1    0    0  502    0  0.00000000000E+00  0.00000000000E+00  0.60585541747E+03  0.60585541747E+03  0.00000000000E+00 0. -1.
          1   -1    0    0  501    0 -0.00000000000E+00 -0.00000000000E+00 -0.37006491261E+03  0.37006491261E+03  0.00000000000E+00 0. -1.
         25    2    1    2    0    0 -0.28573214439E+02 -0.29960657658E+02 -0.14395497753E+03  0.19509601583E+03  0.12500140098E+03 0.  0.
          2    1    1    2  501    0 -0.91593383502E+01  0.37480633143E+02 -0.19803781939E+03  0.20176141665E+03  0.00000000000E+00 0. -1.
          1    1    1    2  502    0  0.37732552790E+02 -0.75199754848E+01  0.57778330178E+03  0.57906289761E+03  0.00000000000E+00 0. -1.
         22    1    3    3    0    0 -0.13517195170E+02 -0.35886471331E+02  0.10529022989E+02  0.39766992783E+02  0.00000000000E+00 0. -1.
         22    1    3    3    0    0 -0.15056019269E+02  0.59258136736E+01 -0.15448400052E+03  0.15532902305E+03  0.00000000000E+00 0. -1.
</event>
<event>
 7    1  0.6508013E-006  0.5961475E+02  0.7818608E-02  0.1441727E+00
          2   -1    0    0  502    0  0.00000000000E+00  0.00000000000E+00  0.47383581272E+03  0.47383581272E+03  0.00000000000E+00 0. -1.
          1   -1    0    0  501    0 -0.00000000000E+00 -0.00000000000E+00 -0.28373088922E+03  0.28373088922E+03  0.00000000000E+00 0. -1.
         25    2    1    2    0    0 -0.59416824618E+02  0.37190389975E+02  0.18765275501E+02  0.14450891875E+03  0.12496882763E+03 0.  0.
          2    1    1    2  501    0  0.59494435477E+02  0.58876976135E+01 -0.21559590194E+03  0.22373163783E+03  0.00000000000E+00 0. -1.
          1    1    1    2  502    0 -0.77610858487E-01 -0.43078087588E+02  0.38693554994E+03  0.38932614536E+03  0.00000000000E+00 0. -1.
         22    1    3    3    0    0 -0.92955365783E+02  0.47685651276E+01 -0.27952791713E+01  0.93119561999E+02  0.00000000000E+00 0. -1.
         22    1    3    3    0    0  0.33538541164E+02  0.32421824847E+02  0.21560554672E+02  0.51389356754E+02  0.00000000000E+00 0. -1.
</event>
<event>
 7    1  0.6508013E-006  0.3006533E+03  0.7818608E-02  0.1206663E+00
          2   -1    0    0  502    0  0.00000000000E+00  0.00000000000E+00  0.11738293688E+04  0.11738293688E+04  0.00000000000E+00 0. -1.
          1   -1    0    0  501    0 -0.00000000000E+00 -0.00000000000E+00 -0.63215260751E+03  0.63215260751E+03  0.00000000000E+00 0. -1.
         25    2    1    2    0    0  0.31010067559E+03 -0.17590576238E+03 -0.16659079333E+03  0.41289533809E+03  0.12499920623E+03 0.  0.
          2    1    1    2  501    0 -0.69983208641E+02  0.15412086479E+01 -0.31756853586E+03  0.32519194299E+03  0.00000000000E+00 0. -1.
          1    1    1    2  502    0 -0.24011746695E+03  0.17436455374E+03  0.10258360905E+04  0.10678946952E+04  0.00000000000E+00 0. -1.
         22    1    3    3    0    0  0.16454978724E+03 -0.11779332979E+03 -0.15654969858E+03  0.25585095104E+03  0.00000000000E+00 0.  1.
         22    1    3    3    0    0  0.14555088834E+03 -0.58112432596E+02 -0.10041094748E+02  0.15704438705E+03  0.00000000000E+00 0.  1.
</event>
<event>
 7    1  0.6508013E-006  0.2001624E+03  0.7818608E-02  0.1260505E+00
          2   -1    0    0  502    0  0.00000000000E+00  0.00000000000E+00  0.20980425397E+04  0.20980425397E+04  0.00000000000E+00 0. -1.
          1   -1    0    0  501    0 -0.00000000000E+00 -0.00000000000E+00 -0.61722281750E+03  0.61722281750E+03  0.00000000000E+00 0. -1.
         25    2    1    2    0    0 -0.20171454856E+03 -0.15706541967E+03  0.67530237303E+03  0.73281099327E+03  0.12498140532E+03 0.  0.
          2    1    1    2  501    0  0.14496326447E+03  0.13613151071E+03 -0.57098486112E+03  0.60462372421E+03  0.00000000000E+00 0. -1.
          1    1    1    2  502    0  0.56751284093E+02  0.20933908967E+02  0.13765022103E+04  0.13778306397E+04  0.00000000000E+00 0. -1.
         22    1    3    3    0    0 -0.18328773543E+03 -0.11599729960E+03  0.63953416490E+03  0.67531749240E+03  0.00000000000E+00 0. -1.
         22    1    3    3    0    0 -0.18426813133E+02 -0.41068120075E+02  0.35768208129E+02  0.57493500863E+02  0.00000000000E+00 0. -1.
</event>
<event>
 7    1  0.6508013E-006  0.8229246E+02  0.7818608E-02  0.1425838E+00
          2   -1    0    0  502    0  0.00000000000E+00  0.00000000000E+00  0.22962661430E+04  0.22962661430E+04  0.00000000000E+00 0. -1.
          1   -1    0    0  501    0 -0.00000000000E+00 -0.00000000000E+00 -0.10424106809E+03  0.10424106809E+03  0.00000000000E+00 0. -1.
         25    2    1    2    0    0 -0.57465663617E+02 -0.14362180322E+02  0.33315719148E+03  0.36073221371E+03  0.12500176422E+03 0.  0.
          2    1    1    2  501    0 -0.26065630560E+02  0.23624551483E+02 -0.86091059209E+02  0.93001112923E+02  0.00000000000E+00 0. -1.
          1    1    1    2  502    0  0.83531294177E+02 -0.92623711607E+01  0.19449589427E+04  0.19467738845E+04  0.00000000000E+00 0. -1.
         22    1    3    3    0    0  0.32475891822E+02 -0.25442318735E+02  0.59054655008E+02  0.72037819306E+02  0.00000000000E+00 0.  1.
         22    1    3    3    0    0 -0.89941555439E+02  0.11080138413E+02  0.27410253647E+03  0.28869439440E+03  0.00000000000E+00 0.  1.
</event>
<event>
 7    1  0.6508013E-006  0.1314569E+03  0.7818608E-02  0.1334266E+00
          2   -1    0    0  502    0  0.00000000000E+00  0.00000000000E+00  0.12746463497E+03  0.12746463497E+03  0.00000000000E+00 0. -1.
          1   -1    0    0  501    0 -0.00000000000E+00 -0.00000000000E+00 -0.49449011140E+03  0.49449011140E+03  0.00000000000E+00 0. -1.
         25    2    1    2    0    0 -0.85764478638E+02  0.85881601401E+02 -0.13337249067E+03  0.21941849357E+03  0.12500023520E+03 0.  0.
          2    1    1    2  501    0  0.27488479608E+02  0.37514667251E+02 -0.25950880299E+03  0.26364329234E+03  0.00000000000E+00 0. -1.
          1    1    1    2  502    0  0.58275999030E+02 -0.12339626865E+03  0.25855817221E+02  0.13889296046E+03  0.00000000000E+00 0. -1.
         22    1    3    3    0    0 -0.77123438446E+02  0.11316392245E+03 -0.79322618216E+02  0.15825983654E+03  0.00000000000E+00 0. -1.
         22    1    3    3    0    0 -0.86410401923E+01 -0.27282321051E+02 -0.54049872452E+02  0.61158657029E+02  0.00000000000E+00 0. -1.
</event>
<event>
 7    1  0.6508013E-006  0.1033276E+03  0.7818608E-02  0.1385809E+00
          2   -1    0    0  502    0  0.00000000000E+00  0.00000000000E+00  0.61441168315E+03  0.61441168315E+03  0.00000000000E+00 0. -1.
          1   -1    0    0  501    0 -0.00000000000E+00 -0.00000000000E+00 -0.18047634696E+03  0.18047634696E+03  0.00000000000E+00 0. -1.
         25    2    1    2    0    0  0.78440977508E+02 -0.16854703155E+02  0.61565656675E+02  0.16078356852E+03  0.12499583134E+03 0.  0.
          2    1    1    2  501    0  0.14005484788E+02 -0.35716737932E+02 -0.12227710548E+03  0.12815431907E+03  0.00000000000E+00 0. -1.
          1    1    1    2  502    0 -0.92446462297E+02  0.52571441087E+02  0.49464678500E+03  0.50595014252E+03  0.00000000000E+00 0. -1.
         22    1    3    3    0    0  0.40306744829E+02  0.54404068797E+02  0.27977061011E+02  0.73260851231E+02  0.00000000000E+00 0. -1.
         22    1    3    3    0    0  0.38134232679E+02 -0.71258771952E+02  0.33588595665E+02  0.87522717284E+02  0.00000000000E+00 0. -1.
</event>
<event>
 7    1  0.6508013E-006  0.7065831E+02  0.7818608E-02  0.1405866E+00
          2   -1    0    0  502    0  0.00000000000E+00  0.00000000000E+00  0.73610932628E+03  0.73610932628E+03  0.00000000000E+00 0. -1.
          1   -1    0    0  501    0 -0.00000000000E+00 -0.00000000000E+00 -0.96325013525E+03  0.96325013525E+03  0.00000000000E+00 0. -1.
         25    2    1    2    0    0  0.85443900307E+01  0.23284983428E+02  0.78651051539E+02  0.14975398424E+03  0.12500028333E+03 0.  0.
          2    1    1    2  501    0 -0.55048905330E+01 -0.71005680554E+02 -0.92540928042E+03  0.92814570342E+03  0.00000000000E+00 0. -1.
          1    1    1    2  502    0 -0.30394994977E+01  0.47720697127E+02  0.61961741991E+03  0.62145977387E+03  0.00000000000E+00 0. -1.
         22    1    3    3    0    0  0.58046704450E+02  0.40468936647E+02  0.63834299578E+02  0.95299383699E+02  0.00000000000E+00 0.  1.
         22    1    3    3    0    0 -0.49502314419E+02 -0.17183953220E+02  0.14816751962E+02  0.54454600538E+02  0.00000000000E+00 0.  1.
</event>
<event>
 7    1  0.6508013E-006  0.1269329E+03  0.7818608E-02  0.1429040E+00
          2   -1    0    0  502    0  0.00000000000E+00  0.00000000000E+00  0.16270860261E+03  0.16270860261E+03  0.00000000000E+00 0. -1.
          1   -1    0    0  501    0 -0.00000000000E+00 -0.00000000000E+00 -0.16997482864E+04  0.16997482864E+04  0.00000000000E+00 0. -1.
         25    2    1    2    0    0 -0.11722769376E+03 -0.49156310571E+02 -0.72223538095E+02  0.19235580935E+03  0.12500337148E+03 0.  0.
          2    1    1    2  501    0  0.12389798340E+03  0.27921465207E+02 -0.15636462031E+04  0.15687956422E+04  0.00000000000E+00 0. -1.
          1    1    1    2  502    0 -0.66702896361E+01  0.21234845363E+02  0.98830057389E+02  0.10130543749E+03  0.00000000000E+00 0. -1.
         22    1    3    3    0    0 -0.27534440700E+02 -0.56429191226E+02  0.17601511247E+02  0.65208988991E+02  0.00000000000E+00 0. -1.
         22    1    3    3    0    0 -0.89693253062E+02  0.72728806550E+01 -0.89825049341E+02  0.12714682036E+03  0.00000000000E+00 0. -1.
</event>
<event>
 7    1  0.6508013E-006  0.3560662E+02  0.7818608E-02  0.1613057E+00
          2   -1    0    0  502    0  0.00000000000E+00  0.00000000000E+00  0.20703838507E+03  0.20703838507E+03  0.00000000000E+00 0. -1.
          1   -1    0    0  501    0 -0.00000000000E+00 -0.00000000000E+00 -0.15031194350E+04  0.15031194350E+04  0.00000000000E+00 0. -1.
         25    2    1    2    0    0 -0.42366676969E+02 -0.18258231420E+02 -0.33339691308E+03  0.35903668384E+03  0.12500216141E+03 0.  0.
          2    1    1    2  501    0  0.21519458623E+02  0.28241317021E+02 -0.11559413708E+04  0.11564865376E+04  0.00000000000E+00 0. -1.
          1    1    1    2  502    0  0.20847218345E+02 -0.99830856010E+01  0.19325723392E+03  0.19463459860E+03  0.00000000000E+00 0. -1.
         22    1    3    3    0    0  0.30183482017E+01  0.24102951438E+02 -0.49711879015E+01  0.24794664810E+02  0.00000000000E+00 0. -1.
         22    1    3    3    0    0 -0.45385025170E+02 -0.42361182859E+02 -0.32842572518E+03  0.33424201903E+03  0.00000000000E+00 0. -1.
</event>
<event>
 7    1  0.6508013E-006  0.4317097E+02  0.7818608E-02  0.1497561E+00
          2   -1    0    0  502    0  0.00000000000E+00  0.00000000000E+00  0.19098728178E+04  0.19098728178E+04  0.00000000000E+00 0. -1.
          1   -1    0    0  501    0 -0.00000000000E+00 -0.00000000000E+00 -0.60247353549E+02  0.60247353549E+02  0.00000000000E+00 0. -1.
         25    2    1    2    0    0  0.41254072679E+02  0.52752208293E+02  0.11369287500E+04  0.11457377594E+04  0.12499334739E+03 0.  0.
          2    1    1    2  501    0 -0.38162627058E+02 -0.11523583765E+02 -0.48094809172E+02  0.62468310014E+02  0.00000000000E+00 0. -1.
          1    1    1    2  502    0 -0.30914456213E+01 -0.41228624528E+02  0.76079152343E+03  0.76191410188E+03  0.00000000000E+00 0. -1.
         22    1    3    3    0    0  0.80091466817E+01  0.61722148771E+02  0.23348943036E+03  0.24164247179E+03  0.00000000000E+00 0. -1.
         22    1    3    3    0    0  0.33244925997E+02 -0.89699404778E+01  0.90343931960E+03  0.90409528764E+03  0.00000000000E+00 0. -1.
</event>
<event>
 7    1  0.6508013E-006  0.1186666E+03  0.7818608E-02  0.1274335E+00
          2   -1    0    0  502    0  0.00000000000E+00  0.00000000000E+00  0.93346509489E+03  0.93346509489E+03  0.00000000000E+00 0. -1.
          1   -1    0    0  501    0 -0.00000000000E+00 -0.00000000000E+00 -0.90289509352E+03  0.90289509352E+03  0.00000000000E+00 0. -1.
         25    2    1    2    0    0  0.91935080502E+02 -0.15841595460E+03  0.10220569865E+03  0.24416933141E+03  0.12499993547E+03 0.  0.
          2    1    1    2  501    0 -0.13053891798E+02  0.11674936934E+03 -0.82512148391E+03  0.83344242905E+03  0.00000000000E+00 0. -1.
          1    1    1    2  502    0 -0.78881188704E+02  0.41666585254E+02  0.75348578663E+03  0.75874842795E+03  0.00000000000E+00 0. -1.
         22    1    3    3    0    0  0.10044025491E+03 -0.55990715193E+02  0.76856327057E+02  0.13831160473E+03  0.00000000000E+00 0. -1.
         22    1    3    3    0    0 -0.85051744051E+01 -0.10242523940E+03  0.25349371594E+02  0.10585772669E+03  0.00000000000E+00 0. -1.
</event>
<event>
 7    1  0.6508013E-006  0.4895111E+02  0.7818608E-02  0.1510693E+00
          2   -1    0    0  502    0  0.00000000000E+00  0.00000000000E+00  0.10500037048E+04  0.10500037048E+04  0.00000000000E+00 0. -1.
          1   -1    0    0  501    0 -0.00000000000E+00 -0.00000000000E+00 -0.17338246401E+03  0.17338246401E+03  0.00000000000E+00 0. -1.
         25    2    1    2    0    0  0.68122670261E+02  0.38710615833E+02  0.40746844775E+03  0.43335300146E+03  0.12500031193E+03 0.  0.
          2    1    1    2  501    0 -0.30220652287E+02 -0.10940995554E+02 -0.15794279436E+03  0.16117977385E+03  0.00000000000E+00 0. -1.
          1    1    1    2  502    0 -0.37902017974E+02 -0.27769620279E+02  0.62709558739E+03  0.62885339348E+03  0.00000000000E+00 0. -1.
         22    1    3    3    0    0 -0.33047665088E+02 -0.83928924509E+01  0.12700112145E+03  0.13149856904E+03  0.00000000000E+00 0.  1.
         22    1    3    3    0    0  0.10117033535E+03  0.47103508284E+02  0.28046732630E+03  0.30185443242E+03  0.00000000000E+00 0.  1.
</event>
<event>
 7    1  0.6508013E-006  0.6282919E+02  0.7818608E-02  0.1528918E+00
          2   -1    0    0  502    0  0.00000000000E+00  0.00000000000E+00  0.13928127682E+04  0.13928127682E+04  0.00000000000E+00 0. -1.
          1   -1    0    0  501    0 -0.00000000000E+00 -0.00000000000E+00 -0.12339457616E+04  0.12339457616E+04  0.00000000000E+00 0. -1.
         25    2    1    2    0    0 -0.62516590795E+02  0.23742757869E+02  0.10204962707E+03  0.17467551330E+03  0.12500146353E+03 0.  0.
          2    1    1    2  501    0  0.48020544660E+02 -0.40513199404E+02 -0.11967107808E+04  0.11983588715E+04  0.00000000000E+00 0. -1.
          1    1    1    2  502    0  0.14496046135E+02  0.16770441535E+02  0.12535281603E+04  0.12537241450E+04  0.00000000000E+00 0. -1.
         22    1    3    3    0    0 -0.18215316340E+02  0.68302386970E+02  0.24388341842E+02  0.74778372762E+02  0.00000000000E+00 0.  1.
         22    1    3    3    0    0 -0.44301274455E+02 -0.44559629101E+02  0.77661285225E+02  0.99897140534E+02  0.00000000000E+00 0.  1.
</event>
<event>
 7    1  0.6508013E-006  0.6971536E+02  0.7818608E-02  0.1501703E+00
          2   -1    0    0  502    0  0.00000000000E+00  0.00000000000E+00  0.89563721966E+03  0.89563721966E+03  0.00000000000E+00 0. -1.
          1   -1    0    0  501    0 -0.00000000000E+00 -0.00000000000E+00 -0.14892649943E+04  0.14892649943E+04  0.00000000000E+00 0. -1.
         25    2    1    2    0    0 -0.65467965382E+01  0.77139617659E+02  0.21811284859E+02  0.14864028166E+03  0.12499928011E+03 0.  0.
          2    1    1    2  501    0 -0.20241796434E+02 -0.12881198804E+02 -0.14242541134E+04  0.14244561892E+04  0.00000000000E+00 0. -1.
          1    1    1    2  502    0  0.26788592972E+02 -0.64258418855E+02  0.80881505387E+03  0.81180574306E+03  0.00000000000E+00 0. -1.
         22    1    3    3    0    0 -0.21194539072E+02 -0.23672160818E+02  0.33416278142E+02  0.46111032619E+02  0.00000000000E+00 0.  1.
         22    1    3    3    0    0  0.14647742534E+02  0.10081177848E+03 -0.11604993283E+02  0.10252924905E+03  0.00000000000E+00 0.  1.
</event>
<event>
 7    1  0.6508013E-006  0.2344029E+03  0.7818608E-02  0.1316324E+00
          2   -1    0    0  502    0  0.00000000000E+00  0.00000000000E+00  0.22456172003E+04  0.22456172003E+04  0.00000000000E+00 0. -1.
          1   -1    0    0  501    0 -0.00000000000E+00 -0.00000000000E+00 -0.17685867286E+04  0.17685867286E+04  0.00000000000E+00 0. -1.
         25    2    1    2    0    0  0.54333857681E+02  0.23305337831E+03  0.42040518465E+02  0.27323683151E+03  0.12499966267E+03 0.  0.
          2    1    1    2  501    0 -0.81749727176E+02 -0.21951363962E+03 -0.16445771232E+04  0.16611752376E+04  0.00000000000E+00 0. -1.
          1    1    1    2  502    0  0.27415869495E+02 -0.13539738694E+02  0.20795670765E+04  0.20797918598E+04  0.00000000000E+00 0. -1.
         22    1    3    3    0    0  0.43057357582E+02  0.16409525563E+02  0.31937909083E+02  0.56064593174E+02  0.00000000000E+00 0.  1.
         22    1    3    3    0    0  0.11276500099E+02  0.21664385275E+03  0.10102609382E+02  0.21717223834E+03  0.00000000000E+00 0.  1.
</event>
<event>
 7    1  0.6508013E-006  0.1053924E+03  0.7818608E-02  0.1337060E+00
          2   -1    0    0  502    0  0.00000000000E+00  0.00000000000E+00  0.22553398389E+04  0.22553398389E+04  0.00000000000E+00 0. -1.
          1   -1    0    0  501    0 -0.00000000000E+00 -0.00000000000E+00 -0.30067714472E+03  0.30067714472E+03  0.00000000000E+00 0. -1.
         25    2    1    2    0    0 -0.67354388457E+02 -0.55351672848E+01  0.83117108777E+02  0.16462544312E+03  0.12500332408E+03 0.  0.
          2    1    1    2  501    0 -0.22859589879E+02 -0.51793158187E+02 -0.25548224491E+03  0.26167970795E+03  0.00000000000E+00 0. -1.
          1    1    1    2  502    0  0.90213978335E+02  0.57328325472E+02  0.21270278303E+04  0.21297118325E+04  0.00000000000E+00 0. -1.
         22    1    3    3    0    0 -0.11365782369E+02  0.27139041795E+02 -0.24969240662E+02  0.38589785924E+02  0.00000000000E+00 0.  1.
         22    1    3    3    0    0 -0.55988606088E+02 -0.32674209080E+02  0.10808634944E+03  0.12603565720E+03  0.00000000000E+00 0.  1.
</event>
<event>
 7    1  0.6508013E-006  0.5079166E+02  0.7818608E-02  0.1484729E+00
          2   -1    0    0  502    0  0.00000000000E+00  0.00000000000E+00  0.93696357325E+03  0.93696357325E+03  0.00000000000E+00 0. -1.
          1   -1    0    0  501    0 -0.00000000000E+00 -0.00000000000E+00 -0.44548198892E+02  0.44548198892E+02  0.00000000000E+00 0. -1.
         25    2    1    2    0    0  0.33952883881E+02 -0.76597562384E+02  0.48447914679E+03  0.50731276738E+03  0.12500486144E+03 0.  0.
          2    1    1    2  501    0 -0.11427565911E+02  0.35239974924E+02 -0.21067670713E+02  0.42617975604E+02  0.00000000000E+00 0. -1.
          1    1    1    2  502    0 -0.22525317970E+02  0.41357587460E+02  0.42900389829E+03  0.43158102917E+03  0.00000000000E+00 0. -1.
         22    1    3    3    0    0  0.67666125241E+02 -0.12553636356E+02  0.32459059488E+03  0.33180619732E+03  0.00000000000E+00 0. -1.
         22    1    3    3    0    0 -0.33713241360E+02 -0.64043926028E+02  0.15988855190E+03  0.17550657006E+03  0.00000000000E+00 0. -1.
</event>
<event>
 7    1  0.6508013E-006  0.1004820E+03  0.7818608E-02  0.1300067E+00
          2   -1    0    0  502    0  0.00000000000E+00  0.00000000000E+00  0.35656191696E+03  0.35656191696E+03  0.00000000000E+00 0. -1.
          1   -1    0    0  501    0 -0.00000000000E+00 -0.00000000000E+00 -0.76152178146E+03  0.76152178146E+03  0.00000000000E+00 0. -1.
         25    2    1    2    0    0 -0.49529669340E+01  0.32479555677E+02  0.22647770811E+02  0.13121650594E+03  0.12500158595E+03 0.  0.
          2    1    1    2  501    0 -0.19141862845E+02  0.80457011625E+02 -0.69274980062E+03  0.69766899594E+03  0.00000000000E+00 0. -1.
          1    1    1    2  502    0  0.24094829779E+02 -0.11293656730E+03  0.26514216531E+03  0.28919819654E+03  0.00000000000E+00 0. -1.
         22    1    3    3    0    0 -0.30288416088E+02 -0.39536396024E+02  0.23033266726E+02  0.54873000062E+02  0.00000000000E+00 0. -1.
         22    1    3    3    0    0  0.25335449154E+02  0.72015951701E+02 -0.38549591474E+00  0.76343505882E+02  0.00000000000E+00 0. -1.
</event>
<event>
 7    1  0.6508013E-006  0.1846810E+03  0.7818608E-02  0.1328806E+00
          2   -1    0    0  502    0  0.00000000000E+00  0.00000000000E+00  0.10235074707E+04  0.10235074707E+04  0.00000000000E+00 0. -1.
          1   -1    0    0  501    0 -0.00000000000E+00 -0.00000000000E+00 -0.39066052513E+03  0.39066052513E+03  0.00000000000E+00 0. -1.
         25    2    1    2    0    0  0.82672856150E+02 -0.17687178439E+03 -0.32522133068E+02  0.23410432582E+03  0.12501486699E+03 0.  0.
          2    1    1    2  501    0 -0.10391392072E+03  0.14939552716E+03 -0.22479467227E+03  0.28922270162E+03  0.00000000000E+00 0. -1.
          1    1    1    2  502    0  0.21241064573E+02  0.27476257226E+02  0.89016375091E+03  0.89084096839E+03  0.00000000000E+00 0. -1.
         22    1    3    3    0    0  0.82649402213E+02 -0.41251905436E+02 -0.34127285688E+02  0.98474946137E+02  0.00000000000E+00 0.  1.
         22    1    3    3    0    0  0.23453937141E-01 -0.13561987895E+03  0.16051526203E+01  0.13562937968E+03  0.00000000000E+00 0.  1.
</event>
<event>
 7    1  0.6508013E-006  0.5147108E+02  0.7818608E-02  0.1508262E+00
          2   -1    0    0  502    0  0.00000000000E+00  0.00000000000E+00  0.15941962717E+04  0.15941962717E+04  0.00000000000E+00 0. -1.
          1   -1    0    0  501    0 -0.00000000000E+00 -0.00000000000E+00 -0.51098018686E+03  0.51098018686E+03  0.00000000000E+00 0. -1.
         25    2    1    2    0    0 -0.44630621522E+02 -0.61946683695E+02  0.11537627061E+03  0.18645557150E+03  0.12499884930E+03 0.  0.
          2    1    1    2  501    0  0.40752497152E+02  0.31114877456E+02 -0.47389027384E+03  0.47665594853E+03  0.00000000000E+00 0. -1.
          1    1    1    2  502    0  0.38781243707E+01  0.30831806238E+02  0.14417300880E+04  0.14420649385E+04  0.00000000000E+00 0. -1.
         22    1    3    3    0    0  0.24013151019E+02 -0.59881884459E+02  0.17426065381E+02  0.66829179726E+02  0.00000000000E+00 0. -1.
         22    1    3    3    0    0 -0.68643772541E+02 -0.20647992360E+01  0.97950205231E+02  0.11962639178E+03  0.00000000000E+00 0. -1.
</event>
<event>
 7    1  0.6508013E-006  0.8365249E+02  0.7818608E-02  0.1431745E+00
          2   -1    0    0  502    0  0.00000000000E+00  0.00000000000E+00  0.18687174857E+04  0.18687174857E+04  0.00000000000E+00 0. -1.
          1   -1    0    0  501    0 -0.00000000000E+00 -0.00000000000E+00 -0.10046982197E+03  0.10046982197E+03  0.00000000000E+00 0. -1.
         25    2    1    2    0    0 -0.72527652065E+02  0.47923057183E+01  0.23137871430E+02  0.14639634202E+03  0.12495319665E+03 0.  0.
          2    1    1    2  501    0  0.89361975410E+02  0.23694051004E+02  0.16556071933E+02  0.93920573998E+02  0.00000000000E+00 0. -1.
          1    1    1    2  502    0 -0.16834323345E+02 -0.28486356722E+02  0.17285537204E+04  0.17288703917E+04  0.00000000000E+00 0. -1.
         22    1    3    3    0    0 -0.31692591986E+02  0.29009832222E+02  0.68417603205E+02  0.80789598221E+02  0.00000000000E+00 0. -1.
         22    1    3    3    0    0 -0.40835060079E+02 -0.24217526504E+02 -0.45279731775E+02  0.65606743794E+02  0.00000000000E+00 0. -1.
</event>
<event>
 7    1  0.6508013E-006  0.1119126E+03  0.7818608E-02  0.1451015E+00
          2   -1    0    0  502    0  0.00000000000E+00  0.00000000000E+00  0.77356003109E+03  0.77356003109E+03  0.00000000000E+00 0. -1.
          1   -1    0    0  501    0 -0.00000000000E+00 -0.00000000000E+00 -0.91692403388E+03  0.91692403388E+03  0.00000000000E+00 0. -1.
         25    2    1    2    0    0 -0.89910902450E+02  0.89271146702E+02 -0.18501986183E+03  0.25672909594E+03  0.12499668563E+03 0.  0.
          2    1    1    2  501    0  0.68716561886E+02 -0.86155864626E+02 -0.69153008605E+03  0.70025613799E+03  0.00000000000E+00 0. -1.
          1    1    1    2  502    0  0.21194340564E+02 -0.31152820753E+01  0.73318594509E+03  0.73349883104E+03  0.00000000000E+00 0. -1.
         22    1    3    3    0    0 -0.18456037706E+02  0.44644671021E+02 -0.16249527812E+03  0.16952429735E+03  0.00000000000E+00 0.  1.
         22    1    3    3    0    0 -0.71454864744E+02  0.44626475680E+02 -0.22524583711E+02  0.87204798598E+02  0.00000000000E+00 0.  1.
</event>
<event>
 7    1  0.6508013E-006  0.2714212E+03  0.7818608E-02  0.1250817E+00
          2   -1    0    0  502    0  0.00000000000E+00  0.00000000000E+00  0.10275102283E+04  0.10275102283E+04  0.00000000000E+00 0. -1.
          1   -1    0    0  501    0 -0.00000000000E+00 -0.00000000000E+00 -0.11920163519E+03  0.11920163519E+03  0.00000000000E+00 0. -1.
         25    2    1    2    0    0 -0.22944548441E+03 -0.99639669856E+02  0.22431873708E+03  0.35848599931E+03  0.12498008549E+03 0.  0.
          2    1    1    2  501    0 -0.95534089328E+01 -0.48159398720E+02  0.36478615568E+00  0.49099168794E+02  0.00000000000E+00 0. -1.
          1    1    1    2  502    0  0.23899889334E+03  0.14779906858E+03  0.68362506989E+03  0.73912669541E+03  0.00000000000E+00 0. -1.
         22    1    3    3    0    0 -0.12742865319E+03 -0.11275752713E+03  0.17614491197E+03  0.24490682226E+03  0.00000000000E+00 0.  1.
         22    1    3    3    0    0 -0.10201683122E+03  0.13117857278E+02  0.48173825113E+02  0.11357917705E+03  0.00000000000E+00 0.  1.
</event>
<event>
 7    1  0.6508013E-006  0.4434293E+02  0.7818608E-02  0.1538138E+00
          2   -1    0    0  502    0  0.00000000000E+00  0.00000000000E+00  0.69646072656E+03  0.69646072656E+03  0.00000000000E+00 0. -1.
          1   -1    0    0  501    0 -0.00000000000E+00 -0.00000000000E+00 -0.23905598573E+04  0.23905598573E+04  0.00000000000E+00 0. -1.
         25    2    1    2    0    0  0.51566332452E+02  0.24351533259E+02 -0.48010779052E+03  0.49937958637E+03  0.12499758779E+03 0.  0.
          2    1    1    2  501    0 -0.74354949563E+01 -0.28613090898E+02 -0.18999855561E+04  0.19002155427E+04  0.00000000000E+00 0. -1.
          1    1    1    2  502    0 -0.44130837496E+02  0.42615576392E+01  0.68599421584E+03  0.68742545476E+03  0.00000000000E+00 0. -1.
         22    1    3    3    0    0  0.74345859615E+02 -0.24928029680E+02 -0.34443048806E+03  0.35324364766E+03  0.00000000000E+00 0.  1.
         22    1    3    3    0    0 -0.22779527163E+02  0.49279562939E+02 -0.13567730246E+03  0.14613593871E+03  0.00000000000E+00 0.  1.
</event>
<event>
 7    1  0.6508013E-006  0.4677959E+02  0.7818608E-02  0.1521878E+00
          2   -1    0    0  502    0  0.00000000000E+00  0.00000000000E+00  0.19787093480E+04  0.19787093480E+04  0.00000000000E+00 0. -1.
          1   -1    0    0  501    0 -0.00000000000E+00 -0.00000000000E+00 -0.93037736279E+03  0.93037736279E+03  0.00000000000E+00 0. -1.
         25    2    1    2    0    0  0.55851633857E+02 -0.45508846516E+02 -0.19396226461E+02  0.14557391387E+03  0.12500036273E+03 0.  0.
          2    1    1    2  501    0 -0.43376990225E+02  0.16914790797E+02 -0.84712600534E+03  0.84840446861E+03  0.00000000000E+00 0. -1.
          1    1    1    2  502    0 -0.12474643631E+02  0.28594055719E+02  0.19148542170E+04  0.19151083283E+04  0.00000000000E+00 0. -1.
         22    1    3    3    0    0  0.27943107709E+02  0.70437631968E+01  0.47802551809E+02  0.55816805963E+02  0.00000000000E+00 0.  1.
         22    1    3    3    0    0  0.27908526147E+02 -0.52552609713E+02 -0.67198778270E+02  0.89757107910E+02  0.00000000000E+00 0.  1.
</event>
<event>
 7    1  0.6508013E-006  0.4178086E+02  0.7818608E-02  0.1541038E+00
          2   -1    0    0  502    0  0.00000000000E+00  0.00000000000E+00  0.88924869310E+03  0.88924869310E+03  0.00000000000E+00 0. -1.
          1   -1    0    0  501    0 -0.00000000000E+00 -0.00000000000E+00 -0.44883301475E+02  0.44883301475E+02  0.00000000000E+00 0. -1.
         25    2    1    2    0    0 -0.41869597369E+02  0.48040946740E+02  0.20493361432E+03  0.24836321835E+03  0.12500202480E+03 0.  0.
          2    1    1    2  501    0  0.29550336041E+02 -0.86466211044E+01 -0.11989309685E+02  0.33041337191E+02  0.00000000000E+00 0. -1.
          1    1    1    2  502    0  0.12319261328E+02 -0.39394325636E+02  0.65142108699E+03  0.65272743903E+03  0.00000000000E+00 0. -1.
         22    1    3    3    0    0  0.19657463268E+02  0.21646508116E+02 -0.34928880400E+01  0.29448046499E+02  0.00000000000E+00 0. -1.
         22    1    3    3    0    0 -0.61527060637E+02  0.26394438624E+02  0.20842650236E+03  0.21891517186E+03  0.00000000000E+00 0. -1.
</event>
<event>
 7    1  0.6508013E-006  0.7914230E+02  0.7818608E-02  0.1351680E+00
          2   -1    0    0  502    0  0.00000000000E+00  0.00000000000E+00  0.17803425526E+04  0.17803425526E+04  0.00000000000E+00 0. -1.
          1   -1    0    0  501    0 -0.00000000000E+00 -0.00000000000E+00 -0.30048262013E+02  0.30048262013E+02  0.00000000000E+00 0. -1.
         25    2    1    2    0    0  0.23541749529E+02  0.13848253602E+03  0.93620401056E+03  0.95490039945E+03  0.12500078693E+03 0.  0.
          2    1    1    2  501    0 -0.18325142772E+02 -0.72208922074E+02  0.52820026771E+02  0.91323022907E+02  0.00000000000E+00 0. -1.
          1    1    1    2  502    0 -0.52166067563E+01 -0.66273613943E+02  0.76127025328E+03  0.76416739227E+03  0.00000000000E+00 0. -1.
         22    1    3    3    0    0  0.16714992488E+02  0.62506911759E+02  0.13116899601E+03  0.14625939459E+03  0.00000000000E+00 0.  1.
         22    1    3    3    0    0  0.68267570410E+01  0.75975624259E+02  0.80503501455E+03  0.80864100486E+03  0.00000000000E+00 0.  1.
</event>
<event>
 7    1  0.6508013E-006  0.8999737E+02  0.7818608E-02  0.1406060E+00
          2   -1    0    0  502    0  0.00000000000E+00  0.00000000000E+00  0.10598100355E+04  0.10598100355E+04  0.00000000000E+00 0. -1.
          1   -1    0    0  501    0 -0.00000000000E+00 -0.00000000000E+00 -0.43349119292E+03  0.43349119292E+03  0.00000000000E+00 0. -1.
         25    2    1    2    0    0  0.80293344018E+02  0.36875739560E+02 -0.24499960802E+02  0.15502352493E+03  0.12500081576E+03 0.  0.
          2    1    1    2  501    0 -0.59842815539E+02 -0.68290867170E+02 -0.33737130988E+03  0.34937688223E+03  0.00000000000E+00 0. -1.
          1    1    1    2  502    0 -0.20450528479E+02  0.31415127610E+02  0.98819011322E+03  0.98890082123E+03  0.00000000000E+00 0. -1.
         22    1    3    3    0    0  0.11061889139E+03  0.26102371304E+02 -0.38398840660E+02  0.11996809527E+03  0.00000000000E+00 0.  1.
         22    1    3    3    0    0 -0.30325547371E+02  0.10773368256E+02  0.13898879858E+02  0.35055429654E+02  0.00000000000E+00 0.  1.
</event>
<event>
 7    1  0.6508013E-006  0.1156281E+03  0.7818608E-02  0.1394673E+00
          2   -1    0    0  502    0  0.00000000000E+00  0.00000000000E+00  0.23315541108E+03  0.23315541108E+03  0.00000000000E+00 0. -1.
          1   -1    0    0  501    0 -0.00000000000E+00 -0.00000000000E+00 -0.35861358361E+04  0.35861358361E+04  0.00000000000E+00 0. -1.
         25    2    1    2    0    0 -0.14391928186E+03 -0.29200372517E+02 -0.10400080665E+03  0.21910093697E+03  0.12499452528E+03 0.  0.
          2    1    1    2  501    0  0.11336214876E+03  0.19948289019E+02 -0.34221581411E+04  0.34240933477E+04  0.00000000000E+00 0. -1.
          1    1    1    2  502    0  0.30557133104E+02  0.92520834979E+01  0.17317852279E+03  0.17609696247E+03  0.00000000000E+00 0. -1.
         22    1    3    3    0    0 -0.38800442408E+02  0.23968277074E+02 -0.89450088061E+02  0.10040553217E+03  0.00000000000E+00 0.  1.
         22    1    3    3    0    0 -0.10511883945E+03 -0.53168649591E+02 -0.14550718589E+02  0.11869540479E+03  0.00000000000E+00 0.  1.
</event>
<event>
 7    1  0.6508013E-006  0.6711182E+02  0.7818608E-02  0.1497092E+00
          2   -1    0    0  502    0  0.00000000000E+00  0.00000000000E+00  0.99172995197E+03  0.99172995197E+03  0.00000000000E+00 0. -1.
          1   -1    0    0  501    0 -0.00000000000E+00 -0.00000000000E+00 -0.10646154751E+04  0.10646154751E+04  0.00000000000E+00 0. -1.
         25    2    1    2    0    0 -0.64363614075E+02  0.43336691628E+02 -0.58184448713E+03  0.60015869030E+03  0.12500681050E+03 0.  0.
          2    1    1    2  501    0  0.39998218721E+02 -0.51594145854E+02 -0.47119467420E+03  0.47569552698E+03  0.00000000000E+00 0. -1.
          1    1    1    2  502    0  0.24365395354E+02  0.82574542257E+01  0.98015363820E+03  0.98049120981E+03  0.00000000000E+00 0. -1.
         22    1    3    3    0    0 -0.58866941744E+02  0.22534920986E+02 -0.57370109270E+03  0.57715343130E+03  0.00000000000E+00 0.  1.
         22    1    3    3    0    0 -0.54966723306E+01  0.20801770642E+02 -0.81433944314E+01  0.23005258995E+02  0.00000000000E+00 0.  1.
</event>
<event>
 7    1  0.6508013E-006  0.4810937E+02  0.7818608E-02  0.1479456E+00
          2   -1    0    0  502    0  0.00000000000E+00  0.00000000000E+00  0.12111643412E+04  0.12111643412E+04  0.00000000000E+00 0. -1.
          1   -1    0    0  501    0 -0.00000000000E+00 -0.00000000000E+00 -0.13590581648E+04  0.13590581648E+04  0.00000000000E+00 0. -1.
         25    2    1    2    0    0  0.17466885848E+02 -0.61998158957E+02  0.47398698539E+03  0.49440479528E+03  0.12499430172E+03 0.  0.
          2    1    1    2  501    0 -0.39284438960E+02  0.27768280170E+02 -0.13478531662E+04  0.13487114229E+04  0.00000000000E+00 0. -1.
          1    1    1    2  502    0  0.21817553112E+02  0.34229878787E+02  0.72597235730E+03  0.72710628782E+03  0.00000000000E+00 0. -1.
         22    1    3    3    0    0  0.43538379839E+02  0.19636993510E+02  0.25127575741E+03  0.25577472176E+03  0.00000000000E+00 0. -1.
         22    1    3    3    0    0 -0.26071493992E+02 -0.81635152467E+02  0.22271122798E+03  0.23863007352E+03  0.00000000000E+00 0. -1.
</event>
<event>
 7    1  0.6508013E-006  0.6483104E+02  0.7818608E-02  0.1451797E+00
          2   -1    0    0  502    0  0.00000000000E+00  0.00000000000E+00  0.93039323136E+02  0.93039323136E+02  0.00000000000E+00 0. -1.
          1   -1    0    0  501    0 -0.00000000000E+00 -0.00000000000E+00 -0.88683746209E+03  0.88683746209E+03  0.00000000000E+00 0. -1.
         25    2    1    2    0    0  0.17606377879E+02 -0.41082325738E+02 -0.49071509908E+03  0.50835989689E+03  0.12502293499E+03 0.  0.
          2    1    1    2  501    0 -0.13758716709E+01  0.74073065683E+02 -0.37952711880E+03  0.38669050413E+03  0.00000000000E+00 0. -1.
          1    1    1    2  502    0 -0.16230506208E+02 -0.32990739946E+02  0.76444078925E+02  0.84826384201E+02  0.00000000000E+00 0. -1.
         22    1    3    3    0    0  0.18079711459E+02 -0.85535931907E+02 -0.35203642214E+03  0.36272980871E+03  0.00000000000E+00 0.  1.
         22    1    3    3    0    0 -0.47333357968E+00  0.44453606170E+02 -0.13867867693E+03  0.14563008818E+03  0.00000000000E+00 0.  1.
</event>
<event>
 7    1  0.6508013E-006  0.3952625E+02  0.7818608E-02  0.1592279E+00
          2   -1    0    0  502    0  0.00000000000E+00  0.00000000000E+00  0.34440295397E+03  0.34440295397E+03  0.00000000000E+00 0. -1.
          1   -1    0    0  501    0 -0.00000000000E+00 -0.00000000000E+00 -0.17929344936E+03  0.17929344936E+03  0.00000000000E+00 0. -1.
         25    2    1    2    0    0 -0.43345108182E+02  0.44775060129E+02  0.22786539087E+01  0.13969212769E+03  0.12500037545E+03 0.  0.
          2    1    1    2  501    0  0.18499491615E+02 -0.14629107932E+02 -0.10791117943E+03  0.11045842944E+03  0.00000000000E+00 0. -1.
          1    1    1    2  502    0  0.24845616566E+02 -0.30145952197E+02  0.27074203012E+03  0.27354584620E+03  0.00000000000E+00 0. -1.
         22    1    3    3    0    0 -0.37729995499E+02  0.87696123433E+02 -0.58562010281E+01  0.95647570361E+02  0.00000000000E+00 0.  1.
         22    1    3    3    0    0 -0.56151126830E+01 -0.42921063304E+02  0.81348549368E+01  0.44044557330E+02  0.00000000000E+00 0.  1.
</event>
<event>
 7    1  0.6508013E-006  0.3847070E+02  0.7818608E-02  0.1560596E+00
          2   -1    0    0  502    0  0.00000000000E+00  0.00000000000E+00  0.18161092394E+04  0.18161092394E+04  0.00000000000E+00 0. -1.
          1   -1    0    0  501    0 -0.00000000000E+00 -0.00000000000E+00 -0.38603163624E+03  0.38603163624E+03  0.00000000000E+00 0. -1.
         25    2    1    2    0    0  0.24663277496E+02  0.61351270642E+02  0.78613182542E+02  0.16179456763E+03  0.12500077591E+03 0.  0.
          2    1    1    2  501    0 -0.72533780034E+01 -0.37542723475E+02 -0.34325103608E+03  0.34537420481E+03  0.00000000000E+00 0. -1.
          1    1    1    2  502    0 -0.17409899493E+02 -0.23808547167E+02  0.16947154567E+04  0.16949721033E+04  0.00000000000E+00 0. -1.
         22    1    3    3    0    0  0.34481144142E+02 -0.32071077069E+02  0.20691098471E+02  0.51435637856E+02  0.00000000000E+00 0.  1.
         22    1    3    3    0    0 -0.98178666463E+01  0.93422347711E+02  0.57922084071E+02  0.11035892977E+03  0.00000000000E+00 0.  1.
</event>
<event>
 7    1  0.6508013E-006  0.1478391E+03  0.7818608E-02  0.1369765E+00
          2   -1    0    0  502    0  0.00000000000E+00  0.00000000000E+00  0.42252021304E+03  0.42252021304E+03  0.00000000000E+00 0. -1.
          1   -1    0    0  501    0 -0.00000000000E+00 -0.00000000000E+00 -0.17651610896E+04  0.17651610896E+04  0.00000000000E+00 0. -1.
         25    2    1    2    0    0  0.16474681345E+03  0.63414370868E+02 -0.52958534421E+03  0.57205666237E+03  0.12500117273E+03 0.  0.
          2    1    1    2  501    0 -0.30380624816E+02 -0.34436914407E+01 -0.12006505144E+04  0.12010397575E+04  0.00000000000E+00 0. -1.
          1    1    1    2  502    0 -0.13436618864E+03 -0.59970679428E+02  0.38759498196E+03  0.41458488284E+03  0.00000000000E+00 0. -1.
         22    1    3    3    0    0  0.17234276047E+03  0.73656070284E+02 -0.52660289137E+03  0.55896140205E+03  0.00000000000E+00 0.  1.
         22    1    3    3    0    0 -0.75959470157E+01 -0.10241699416E+02 -0.29824528350E+01  0.13095260322E+02  0.00000000000E+00 0.  1.
</event>
<event>
 7    1  0.6508013E-006  0.1018896E+03  0.7818608E-02  0.1291393E+00
          2   -1    0    0  502    0  0.00000000000E+00  0.00000000000E+00  0.84768524035E+03  0.84768524035E+03  0.00000000000E+00 0. -1.
          1   -1    0    0  501    0 -0.00000000000E+00 -0.00000000000E+00 -0.69362997488E+03  0.69362997488E+03  0.00000000000E+00 0. -1.
         25    2    1    2    0    0  0.37386545769E+02  0.31502261899E+02 -0.13062471166E+02  0.13486119464E+03  0.12500706923E+03 0.  0.
          2    1    1    2  501    0  0.63820523302E+02 -0.61162956765E+02 -0.61294900743E+03  0.61929028104E+03  0.00000000000E+00 0. -1.
          1    1    1    2  502    0 -0.10120706907E+03  0.29660694866E+02  0.78006674407E+03  0.78716373954E+03  0.00000000000E+00 0. -1.
         22    1    3    3    0    0  0.73512269145E+02 -0.50828986156E+01 -0.31638790086E+02  0.80192908735E+02  0.00000000000E+00 0.  1.
         22    1    3    3    0    0 -0.36125723377E+02  0.36585160514E+02  0.18576318920E+02  0.54668285906E+02  0.00000000000E+00 0.  1.
</event>
<event>
 7    1  0.6508013E-006  0.8513110E+02  0.7818608E-02  0.1319019E+00
          2   -1    0    0  502    0  0.00000000000E+00  0.00000000000E+00  0.13843341998E+04  0.13843341998E+04  0.00000000000E+00 0. -1.
          1   -1    0    0  501    0 -0.00000000000E+00 -0.00000000000E+00 -0.79406223102E+03  0.79406223102E+03  0.00000000000E+00 0. -1.
         25    2    1    2    0    0 -0.10930695178E+03  0.15506054521E+02  0.61946254773E+03  0.64151948353E+03  0.12499980908E+03 0.  0.
          2    1    1    2  501    0  0.48066678302E+02 -0.70309925174E+02 -0.77846441820E+03  0.78310966125E+03  0.00000000000E+00 0. -1.
          1    1    1    2  502    0  0.61240273477E+02  0.54803870653E+02  0.74927383925E+03  0.75376728605E+03  0.00000000000E+00 0. -1.
         22    1    3    3    0    0  0.13876798201E+02 -0.79758907387E+01  0.26581752376E+03  0.26629896038E+03  0.00000000000E+00 0. -1.
         22    1    3    3    0    0 -0.12318374998E+03  0.23481945260E+02  0.35364502397E+03  0.37522052315E+03  0.00000000000E+00 0. -1.
</event>
<event>
 7    1  0.6508013E-006  0.4623927E+02  0.7818608E-02  0.1515110E+00
          2   -1    0    0  502    0  0.00000000000E+00  0.00000000000E+00  0.12457460019E+03  0.12457460019E+03  0.00000000000E+00 0. -1.
          1   -1    0    0  501    0 -0.00000000000E+00 -0.00000000000E+00 -0.10922529553E+04  0.10922529553E+04  0.00000000000E+00 0. -1.
         25    2    1    2    0    0  0.20594287752E+02 -0.49060883759E+01 -0.10965290371E+02  0.12725132395E+03  0.12499786983E+03 0.  0.
          2    1    1    2  501    0  0.16529654205E+02 -0.28591140279E+02 -0.10134282871E+04  0.10139662597E+04  0.00000000000E+00 0. -1.
          1    1    1    2  502    0 -0.37123941956E+02  0.33497228655E+02  0.56715222349E+02  0.75609971830E+02  0.00000000000E+00 0. -1.
         22    1    3    3    0    0  0.68499141834E+02 -0.26439863562E+02 -0.13554332547E+02  0.74665378509E+02  0.00000000000E+00 0.  1.
         22    1    3    3    0    0 -0.47904854082E+02  0.21533775186E+02  0.25890421762E+01  0.52585945440E+02  0.00000000000E+00 0.  1.
</event>
<event>
 7    1  0.6508013E-006  0.6904755E+02  0.7818608E-02  0.1457862E+00
          2   -1    0    0  502    0  0.00000000000E+00  0.00000000000E+00  0.52569164777E+03  0.52569164777E+03  0.00000000000E+00 0. -1.
          1   -1    0    0  501    0 -0.00000000000E+00 -0.00000000000E+00 -0.23729220601E+03  0.23729220601E+03  0.00000000000E+00 0. -1.
         25    2    1    2    0    0  0.26942793383E+02 -0.30015695064E+02 -0.48259526125E+02  0.13992974810E+03  0.12499798589E+03 0.  0.
          2    1    1    2  501    0  0.32250697441E+02 -0.71022683561E+01 -0.13870549312E+03  0.14258247972E+03  0.00000000000E+00 0. -1.
          1    1    1    2  502    0 -0.59193490824E+02  0.37117963420E+02  0.47536446100E+03  0.48047162595E+03  0.00000000000E+00 0. -1.
         22    1    3    3    0    0 -0.40926390326E+02  0.15128445069E+02  0.28391991272E+01  0.43725282469E+02  0.00000000000E+00 0. -1.
         22    1    3    3    0    0  0.67869183709E+02 -0.45144140133E+02 -0.51098725252E+02  0.96204465635E+02  0.00000000000E+00 0. -1.
</event>
<event>
 7    1  0.6508013E-006  0.8487838E+02  0.7818608E-02  0.1387677E+00
          2   -1    0    0  502    0  0.00000000000E+00  0.00000000000E+00  0.53893105049E+02  0.53893105049E+02  0.00000000000E+00 0. -1.
          1   -1    0    0  501    0 -0.00000000000E+00 -0.00000000000E+00 -0.51635381014E+03  0.51635381014E+03  0.00000000000E+00 0. -1.
         25    2    1    2    0    0  0.67473646679E+01 -0.71404530220E+02 -0.30983400700E+03  0.34171100742E+03  0.12500066732E+03 0.  0.
          2    1    1    2  501    0 -0.49644998694E+02  0.88023590236E+02 -0.15199810464E+03  0.18252726412E+03  0.00000000000E+00 0. -1.
          1    1    1    2  502    0  0.42897634026E+02 -0.16619060016E+02 -0.62859345062E+00  0.46008643651E+02  0.00000000000E+00 0. -1.
         22    1    3    3    0    0 -0.43306986991E+02 -0.25346006647E+02 -0.23618403104E+03  0.24145561019E+03  0.00000000000E+00 0. -1.
         22    1    3    3    0    0  0.50054351658E+02 -0.46058523573E+02 -0.73649975959E+02  0.10025539722E+03  0.00000000000E+00 0. -1.
</event>
<event>
 7    1  0.6508013E-006  0.4139721E+02  0.7818608E-02  0.1592659E+00
          2   -1    0    0  502    0  0.00000000000E+00  0.00000000000E+00  0.96315288666E+03  0.96315288666E+03  0.00000000000E+00 0. -1.
          1   -1    0    0  501    0 -0.00000000000E+00 -0.00000000000E+00 -0.22879873098E+02  0.22879873098E+02  0.00000000000E+00 0. -1.
         25    2    1    2    0    0 -0.43561419953E+02 -0.65734364161E+01  0.35396182698E+03  0.37796120451E+03  0.12499955912E+03 0.  0.
          2    1    1    2  501    0  0.11166310423E+02 -0.19495457109E+02  0.23026102778E+01  0.22584537862E+02  0.00000000000E+00 0. -1.
          1    1    1    2  502    0  0.32395109530E+02  0.26068893525E+02  0.58400857630E+03  0.58548701738E+03  0.00000000000E+00 0. -1.
         22    1    3    3    0    0 -0.97178673411E+00 -0.43132639925E+02  0.28859811552E+03  0.29180514265E+03  0.00000000000E+00 0. -1.
         22    1    3    3    0    0 -0.42589633219E+02  0.36559203509E+02  0.65363711462E+02  0.86156061859E+02  0.00000000000E+00 0. -1.
</event>
<event>
 7    1  0.6508013E-006  0.3344917E+03  0.7818608E-02  0.1178696E+00
          2   -1    0    0  502    0  0.00000000000E+00  0.00000000000E+00  0.43996262461E+04  0.43996262461E+04  0.00000000000E+00 0. -1.
          1   -1    0    0  501    0 -0.00000000000E+00 -0.00000000000E+00 -0.77359707687E+03  0.77359707687E+03  0.00000000000E+00 0. -1.
         25    2    1    2    0    0  0.37247061099E+01  0.40000566059E+03  0.14096584603E+04  0.14706382261E+04  0.12498566064E+03 0.  0.
          2    1    1    2  501    0 -0.51364171011E+02 -0.32891373673E+03 -0.70516568501E+03  0.77979559347E+03  0.00000000000E+00 0. -1.
          1    1    1    2  502    0  0.47639464901E+02 -0.71091923862E+02  0.29215363939E+04  0.29227895034E+04  0.00000000000E+00 0. -1.
         22    1    3    3    0    0  0.49090359591E+02  0.32956451250E+03  0.11813785693E+04  0.12274681076E+04  0.00000000000E+00 0. -1.
         22    1    3    3    0    0 -0.45365653481E+02  0.70441148084E+02  0.22827989104E+03  0.24317011846E+03  0.00000000000E+00 0. -1.
</event>
<event>
 7    1  0.6508013E-006  0.1075395E+03  0.7818608E-02  0.1374013E+00
          2   -1    0    0  502    0  0.00000000000E+00  0.00000000000E+00  0.40051404869E+03  0.40051404869E+03  0.00000000000E+00 0. -1.
          1   -1    0    0  501    0 -0.00000000000E+00 -0.00000000000E+00 -0.53175731918E+03  0.53175731918E+03  0.00000000000E+00 0. -1.
         25    2    1    2    0    0  0.49642621033E+02  0.11789630127E+03 -0.14024389640E+02  0.17940263268E+03  0.12499877373E+03 0.  0.
          2    1    1    2  501    0  0.18189695191E+02 -0.36280272032E+02 -0.42519156415E+03  0.42712409131E+03  0.00000000000E+00 0. -1.
          1    1    1    2  502    0 -0.67832316223E+02 -0.81616029236E+02  0.30797268331E+03  0.32574464388E+03  0.00000000000E+00 0. -1.
         22    1    3    3    0    0  0.80428389330E+02  0.65219779118E+02 -0.42674799387E+02  0.11199769596E+03  0.00000000000E+00 0. -1.
         22    1    3    3    0    0 -0.30785768297E+02  0.52676522150E+02  0.28650409746E+02  0.67404936719E+02  0.00000000000E+00 0. -1.
</event>
<event>
 7    1  0.6508013E-006  0.7061499E+02  0.7818608E-02  0.1445697E+00
          2   -1    0    0  502    0  0.00000000000E+00  0.00000000000E+00  0.96192678982E+03  0.96192678982E+03  0.00000000000E+00 0. -1.
          1   -1    0    0  501    0 -0.00000000000E+00 -0.00000000000E+00 -0.29446819854E+03  0.29446819854E+03  0.00000000000E+00 0. -1.
         25    2    1    2    0    0  0.10040149695E+03  0.64558676140E+01  0.29965466564E+02  0.16323089436E+03  0.12499702745E+03 0.  0.
          2    1    1    2  501    0 -0.31128027042E+02 -0.16668838399E+02 -0.22504000928E+03  0.22779334937E+03  0.00000000000E+00 0. -1.
          1    1    1    2  502    0 -0.69273469910E+02  0.10212970785E+02  0.86253313400E+03  0.86537074462E+03  0.00000000000E+00 0. -1.
         22    1    3    3    0    0  0.69214066720E+01 -0.21196755607E+02  0.57716040515E+02  0.61873658784E+02  0.00000000000E+00 0.  1.
         22    1    3    3    0    0  0.93480090280E+02  0.27652623221E+02 -0.27750573952E+02  0.10135723558E+03  0.00000000000E+00 0.  1.
</event>
<event>
 7    1  0.6508013E-006  0.2881529E+03  0.7818608E-02  0.1189918E+00
          2   -1    0    0  502    0  0.00000000000E+00  0.00000000000E+00  0.15450042236E+04  0.15450042236E+04  0.00000000000E+00 0. -1.
          1   -1    0    0  501    0 -0.00000000000E+00 -0.00000000000E+00 -0.10353418680E+04  0.10353418680E+04  0.00000000000E+00 0. -1.
         25    2    1    2    0    0 -0.20776300795E+03  0.42506870647E+02 -0.19310182830E+03  0.31286732817E+03  0.12500138968E+03 0.  0.
          2    1    1    2  501    0 -0.68022038900E+02  0.55275674791E+02 -0.76541917284E+03  0.77042125370E+03  0.00000000000E+00 0. -1.
          1    1    1    2  502    0  0.27578504685E+03 -0.97782545439E+02  0.14681833568E+04  0.14970575097E+04  0.00000000000E+00 0. -1.
         22    1    3    3    0    0 -0.20796505740E+03  0.49483778271E+02 -0.13172897914E+03  0.25109885176E+03  0.00000000000E+00 0. -1.
         22    1    3    3    0    0  0.20204945416E+00 -0.69769076236E+01 -0.61372849159E+02  0.61768476409E+02  0.00000000000E+00 0. -1.
</event>
<event>
 7    1  0.6508013E-006  0.1498743E+03  0.7818608E-02  0.1232492E+00
          2   -1    0    0  502    0  0.00000000000E+00  0.00000000000E+00  0.38248288755E+04  0.38248288755E+04  0.00000000000E+00 0. -1.
          1   -1    0    0  501    0 -0.00000000000E+00 -0.00000000000E+00 -0.49349368668E+03  0.49349368668E+03  0.00000000000E+00 0. -1.
         25    2    1    2    0    0 -0.17161012843E+03  0.11367433703E+03  0.40049292033E+02  0.24413221241E+03  0.12499880106E+03 0.  0.
          2    1    1    2  501    0  0.22436037657E+02 -0.10467010389E+03 -0.38258616346E+03  0.39727997547E+03  0.00000000000E+00 0. -1.
          1    1    1    2  502    0  0.14917409077E+03 -0.90042331466E+01  0.36738720603E+04  0.36769103743E+04  0.00000000000E+00 0. -1.
         22    1    3    3    0    0 -0.15003022522E+02  0.60169358515E+02  0.48042458070E+02  0.78444376257E+02  0.00000000000E+00 0. -1.
         22    1    3    3    0    0 -0.15660710591E+03  0.53504978518E+02 -0.79931660367E+01  0.16568783616E+03  0.00000000000E+00 0. -1.
</event>
<event>
 7    1  0.6508013E-006  0.5986800E+02  0.7818608E-02  0.1496023E+00
          2   -1    0    0  502    0  0.00000000000E+00  0.00000000000E+00  0.38874495140E+02  0.38874495140E+02  0.00000000000E+00 0. -1.
          1   -1    0    0  501    0 -0.00000000000E+00 -0.00000000000E+00 -0.47467931926E+03  0.47467931926E+03  0.00000000000E+00 0. -1.
         25    2    1    2    0    0  0.13064717612E+02  0.34588742816E+02 -0.21883871715E+03  0.25472040783E+03  0.12500013626E+03 0.  0.
          2    1    1    2  501    0  0.18580316126E+02  0.22335054500E+02 -0.18316721620E+03  0.18545703518E+03  0.00000000000E+00 0. -1.
          1    1    1    2  502    0 -0.31645033738E+02 -0.56923797316E+02 -0.33798890766E+02  0.73376371389E+02  0.00000000000E+00 0. -1.
         22    1    3    3    0    0  0.30068601575E+02 -0.21302122745E+02 -0.18191508518E+03  0.18560980430E+03  0.00000000000E+00 0.  1.
         22    1    3    3    0    0 -0.17003883963E+02  0.55890865561E+02 -0.36923631971E+02  0.69110603535E+02  0.00000000000E+00 0.  1.
</event>
<event>
 7    1  0.6508013E-006  0.2465217E+03  0.7818608E-02  0.1197259E+00
          2   -1    0    0  502    0  0.00000000000E+00  0.00000000000E+00  0.28262713692E+03  0.28262713692E+03  0.00000000000E+00 0. -1.
          1   -1    0    0  501    0 -0.00000000000E+00 -0.00000000000E+00 -0.44068399632E+03  0.44068399632E+03  0.00000000000E+00 0. -1.
         25    2    1    2    0    0 -0.13883539360E+02  0.22114483905E+03  0.92412951438E+02  0.27067244466E+03  0.12500250478E+03 0.  0.
          2    1    1    2  501    0 -0.77389555507E+02 -0.24569792482E+03 -0.24876263805E+03  0.35810538066E+03  0.00000000000E+00 0. -1.
          1    1    1    2  502    0  0.91273094868E+02  0.24553085775E+02 -0.17071727808E+01  0.94533307922E+02  0.00000000000E+00 0. -1.
         22    1    3    3    0    0 -0.25671252046E+01  0.19146517074E+03  0.21144936331E+02  0.19264633417E+03  0.00000000000E+00 0. -1.
         22    1    3    3    0    0 -0.11316414156E+02  0.29679668309E+02  0.71268015106E+02  0.78026110486E+02  0.00000000000E+00 0. -1.
</event>
<event>
 7    1  0.6508013E-006  0.3564066E+03  0.7818608E-02  0.1188856E+00
          2   -1    0    0  502    0  0.00000000000E+00  0.00000000000E+00  0.14413603664E+04  0.14413603664E+04  0.00000000000E+00 0. -1.
          1   -1    0    0  501    0 -0.00000000000E+00 -0.00000000000E+00 -0.17098206015E+04  0.17098206015E+04  0.00000000000E+00 0. -1.
         25    2    1    2    0    0 -0.10454118563E+02  0.40083594487E+03 -0.22449474789E+02  0.42060518900E+03  0.12500401113E+03 0.  0.
          2    1    1    2  501    0  0.50096113167E+02 -0.51297806404E+02 -0.14624939230E+04  0.14642505114E+04  0.00000000000E+00 0. -1.
          1    1    1    2  502    0 -0.39641994604E+02 -0.34953813847E+03  0.12164831627E+04  0.12663252675E+04  0.00000000000E+00 0. -1.
         22    1    3    3    0    0  0.32540967705E+02  0.39168544222E+02  0.18317377826E+02  0.54116686577E+02  0.00000000000E+00 0. -1.
         22    1    3    3    0    0 -0.42995086268E+02  0.36166740065E+03 -0.40766852615E+02  0.36648850242E+03  0.00000000000E+00 0. -1.
</event>
<event>
 7    1  0.6508013E-006  0.9253576E+02  0.7818608E-02  0.1391291E+00
          2   -1    0    0  502    0  0.00000000000E+00  0.00000000000E+00  0.44516265995E+03  0.44516265995E+03  0.00000000000E+00 0. -1.
          1   -1    0    0  501    0 -0.00000000000E+00 -0.00000000000E+00 -0.69965858920E+03  0.69965858920E+03  0.00000000000E+00 0. -1.
         25    2    1    2    0    0  0.62484704488E+02 -0.11237511755E+03  0.77216854840E+02  0.19524256315E+03  0.12499884181E+03 0.  0.
          2    1    1    2  501    0 -0.30791149874E+02  0.86382692468E+02 -0.63598259076E+03  0.64256044091E+03  0.00000000000E+00 0. -1.
          1    1    1    2  502    0 -0.31693554614E+02  0.25992425084E+02  0.30426980667E+03  0.30701824509E+03  0.00000000000E+00 0. -1.
         22    1    3    3    0    0  0.43478988672E+02  0.13270848671E+02 -0.19909749584E+01  0.45502767627E+02  0.00000000000E+00 0. -1.
         22    1    3    3    0    0  0.19005715816E+02 -0.12564596622E+03  0.79207829799E+02  0.14973979552E+03  0.00000000000E+00 0. -1.
</event>
<event>
 7    1  0.6508013E-006  0.5220964E+02  0.7818608E-02  0.1494460E+00
          2   -1    0    0  502    0  0.00000000000E+00  0.00000000000E+00  0.81719931183E+03  0.81719931183E+03  0.00000000000E+00 0. -1.
          1   -1    0    0  501    0 -0.00000000000E+00 -0.00000000000E+00 -0.32388426488E+02  0.32388426488E+02  0.00000000000E+00 0. -1.
         25    2    1    2    0    0  0.22292085098E+02  0.43945181413E+02  0.29419976898E+03  0.32342923034E+03  0.12499938778E+03 0.  0.
          2    1    1    2  501    0 -0.48702276507E+02 -0.23049568118E+02  0.25117272965E+02  0.59448059082E+02  0.00000000000E+00 0. -1.
          1    1    1    2  502    0  0.26410191410E+02 -0.20895613295E+02  0.46549384340E+03  0.46671044890E+03  0.00000000000E+00 0. -1.
         22    1    3    3    0    0  0.38748376429E+02 -0.21215934787E+02  0.21530176239E+03  0.21978717308E+03  0.00000000000E+00 0.  1.
         22    1    3    3    0    0 -0.16456291332E+02  0.65161116200E+02  0.78898006591E+02  0.10364205726E+03  0.00000000000E+00 0.  1.
</event>
<event>
 7    1  0.6508013E-006  0.3080701E+03  0.7818608E-02  0.1279907E+00
          2   -1    0    0  502    0  0.00000000000E+00  0.00000000000E+00  0.64082949270E+03  0.64082949270E+03  0.00000000000E+00 0. -1.
          1   -1    0    0  501    0 -0.00000000000E+00 -0.00000000000E+00 -0.23416972486E+04  0.23416972486E+04  0.00000000000E+00 0. -1.
         25    2    1    2    0    0  0.27683849254E+03  0.41233773166E+02 -0.25098199325E+03  0.39617587962E+03  0.12499436648E+03 0.  0.
          2    1    1    2  501    0  0.32508316917E+02 -0.21664030818E+01 -0.19752001225E+04  0.19754688071E+04  0.00000000000E+00 0. -1.
          1    1    1    2  502    0 -0.30934680946E+03 -0.39067370084E+02  0.52531435985E+03  0.61088205457E+03  0.00000000000E+00 0. -1.
         22    1    3    3    0    0  0.50693334497E+02  0.20349704896E+02  0.39344075670E+01  0.54766816729E+02  0.00000000000E+00 0.  1.
         22    1    3    3    0    0  0.22614515805E+03  0.20884068269E+02 -0.25491640082E+03  0.34140906289E+03  0.00000000000E+00 0.  1.
</event>
<event>
 7    1  0.6508013E-006  0.1345618E+03  0.7818608E-02  0.1398570E+00
          2   -1    0    0  502    0  0.00000000000E+00  0.00000000000E+00  0.60081960069E+03  0.60081960069E+03  0.00000000000E+00 0. -1.
          1   -1    0    0  501    0 -0.00000000000E+00 -0.00000000000E+00 -0.88224325603E+03  0.88224325603E+03  0.00000000000E+00 0. -1.
         25    2    1    2    0    0  0.12029779068E+03  0.74626504566E+02 -0.51414653551E+03  0.54773334112E+03  0.12499791746E+03 0.  0.
          2    1    1    2  501    0  0.51361142326E+01 -0.26096521504E+02 -0.34303855760E+03  0.34406810388E+03  0.00000000000E+00 0. -1.
          1    1    1    2  502    0 -0.12543390491E+03 -0.48529983063E+02  0.57576143778E+03  0.59126141172E+03  0.00000000000E+00 0. -1.
         22    1    3    3    0    0 -0.11853939361E+02 -0.11269441049E+02 -0.15066621348E+03  0.15155139084E+03  0.00000000000E+00 0.  1.
         22    1    3    3    0    0  0.13215173004E+03  0.85895945615E+02 -0.36348032203E+03  0.39618195028E+03  0.00000000000E+00 0.  1.
</event>
<event>
 7    1  0.6508013E-006  0.3876388E+02  0.7818608E-02  0.1551709E+00
          2   -1    0    0  502    0  0.00000000000E+00  0.00000000000E+00  0.10976397136E+03  0.10976397136E+03  0.00000000000E+00 0. -1.
          1   -1    0    0  501    0 -0.00000000000E+00 -0.00000000000E+00 -0.26158125450E+03  0.26158125450E+03  0.00000000000E+00 0. -1.
         25    2    1    2    0    0  0.16547323354E+02 -0.25942054461E+01 -0.92372694509E+01  0.12645608702E+03  0.12500108394E+03 0.  0.
          2    1    1    2  501    0  0.11634425343E+02 -0.28709203593E+02 -0.18354064839E+03  0.18613636892E+03  0.00000000000E+00 0. -1.
          1    1    1    2  502    0 -0.28181748697E+02  0.31303409039E+02  0.40960634702E+02  0.58752769911E+02  0.00000000000E+00 0. -1.
         22    1    3    3    0    0  0.71174362361E+02  0.60972531627E+00 -0.15160524258E+01  0.71193117908E+02  0.00000000000E+00 0. -1.
         22    1    3    3    0    0 -0.54627039007E+02 -0.32039307624E+01 -0.77212170251E+01  0.55262969115E+02  0.00000000000E+00 0. -1.
</event>
<event>
 7    1  0.6508013E-006  0.6650804E+02  0.7818608E-02  0.1448129E+00
          2   -1    0    0  502    0  0.00000000000E+00  0.00000000000E+00  0.17124511537E+04  0.17124511537E+04  0.00000000000E+00 0. -1.
          1   -1    0    0  501    0 -0.00000000000E+00 -0.00000000000E+00 -0.77119983923E+03  0.77119983923E+03  0.00000000000E+00 0. -1.
         25    2    1    2    0    0  0.48158957707E+02  0.32591827624E+02 -0.35102608142E+02  0.14226017776E+03  0.12499701053E+03 0.  0.
          2    1    1    2  501    0 -0.67043483382E+02 -0.98123295286E+00 -0.68066665013E+03  0.68396116855E+03  0.00000000000E+00 0. -1.
          1    1    1    2  502    0  0.18884525676E+02 -0.31610594671E+02  0.16570205727E+04  0.16574296466E+04  0.00000000000E+00 0. -1.
         22    1    3    3    0    0  0.63284734415E+02  0.55945141217E+00  0.28538659630E+02  0.69424244248E+02  0.00000000000E+00 0.  1.
         22    1    3    3    0    0 -0.15125776709E+02  0.32032376212E+02 -0.63641267772E+02  0.72835933511E+02  0.00000000000E+00 0.  1.
</event>
<event>
 7    1  0.6508013E-006  0.3093186E+02  0.7818608E-02  0.1627329E+00
          2   -1    0    0  502    0  0.00000000000E+00  0.00000000000E+00  0.31411217712E+04  0.31411217712E+04  0.00000000000E+00 0. -1.
          1   -1    0    0  501    0 -0.00000000000E+00 -0.00000000000E+00 -0.66385515342E+01  0.66385515342E+01  0.00000000000E+00 0. -1.
         25    2    1    2    0    0 -0.45134623550E+02 -0.10693340373E+02  0.11154925531E+04  0.11234322968E+04  0.12500003041E+03 0.  0.
          2    1    1    2  501    0  0.22405356279E+02 -0.98419175006E+01  0.56181916649E+02  0.61280266713E+02  0.00000000000E+00 0. -1.
          1    1    1    2  502    0  0.22729267271E+02  0.20535257873E+02  0.19628087499E+04  0.19630477593E+04  0.00000000000E+00 0. -1.
         22    1    3    3    0    0 -0.26975096468E+02 -0.59688043666E+02  0.34452814775E+03  0.35069924862E+03  0.00000000000E+00 0.  1.
         22    1    3    3    0    0 -0.18159527082E+02  0.48994703293E+02  0.77096440539E+03  0.77273304818E+03  0.00000000000E+00 0.  1.
</event>
<event>
 7    1  0.6508013E-006  0.1310010E+03  0.7818608E-02  0.1279302E+00
          2   -1    0    0  502    0  0.00000000000E+00  0.00000000000E+00  0.11792902735E+04  0.11792902735E+04  0.00000000000E+00 0. -1.
          1   -1    0    0  501    0 -0.00000000000E+00 -0.00000000000E+00 -0.89503656621E+03  0.89503656621E+03  0.00000000000E+00 0. -1.
         25    2    1    2    0    0  0.14970725202E+03 -0.79819892591E+02  0.26406609328E+03  0.33784525498E+03  0.12500015255E+03 0.  0.
          2    1    1    2  501    0 -0.73565795249E+02 -0.22945035084E+02 -0.85174226914E+03  0.85522119589E+03  0.00000000000E+00 0. -1.
          1    1    1    2  502    0 -0.76141456773E+02  0.10276492768E+03  0.87192988314E+03  0.88126038883E+03  0.00000000000E+00 0. -1.
         22    1    3    3    0    0  0.11767214567E+03  0.69031103809E+01  0.15836286253E+03  0.19741626840E+03  0.00000000000E+00 0. -1.
         22    1    3    3    0    0  0.32035106350E+02 -0.86723002972E+02  0.10570323074E+03  0.14042898658E+03  0.00000000000E+00 0. -1.
</event>
<event>
 7    1  0.6508013E-006  0.3915574E+02  0.7818608E-02  0.1549901E+00
          2   -1    0    0  502    0  0.00000000000E+00  0.00000000000E+00  0.27454668677E+03  0.27454668677E+03  0.00000000000E+00 0. -1.
          1   -1    0    0  501    0 -0.00000000000E+00 -0.00000000000E+00 -0.13777864193E+03  0.13777864193E+03  0.00000000000E+00 0. -1.
         25    2    1    2    0    0 -0.21096298574E+02  0.32515710270E+02 -0.30842117280E+02  0.13445759685E+03  0.12500113569E+03 0.  0.
          2    1    1    2  501    0  0.30482951403E+02  0.57729889774E+01 -0.48837763599E+02  0.57859008644E+02  0.00000000000E+00 0. -1.
          1    1    1    2  502    0 -0.93866528290E+01 -0.38288699248E+02  0.21644792572E+03  0.22000872321E+03  0.00000000000E+00 0. -1.
         22    1    3    3    0    0 -0.45032954906E+02 -0.33362804733E+02 -0.31642513263E+02  0.64360643353E+02  0.00000000000E+00 0.  1.
         22    1    3    3    0    0  0.23936656332E+02  0.65878515003E+02  0.80039598366E+00  0.70096953493E+02  0.00000000000E+00 0.  1.
</event>
<event>
 7    1  0.6508013E-006  0.1118882E+03  0.7818608E-02  0.1318473E+00
          2   -1    0    0  502    0  0.00000000000E+00  0.00000000000E+00  0.16518129641E+04  0.16518129641E+04  0.00000000000E+00 0. -1.
          1   -1    0    0  501    0 -0.00000000000E+00 -0.00000000000E+00 -0.37809261375E+02  0.37809261375E+02  0.00000000000E+00 0. -1.
         25    2    1    2    0    0 -0.82582157004E+02 -0.60391397375E+02  0.12073390282E+04  0.12180965661E+04  0.12499912716E+03 0.  0.
          2    1    1    2  501    0 -0.56211892136E+02  0.28079881661E+02  0.31667488333E+02  0.70363956603E+02  0.00000000000E+00 0. -1.
          1    1    1    2  502    0  0.13879404914E+03  0.32311515715E+02  0.37499718625E+03  0.40116170283E+03  0.00000000000E+00 0. -1.
         22    1    3    3    0    0 -0.48936683016E+02 -0.93185068954E+02  0.61902037504E+03  0.62790483414E+03  0.00000000000E+00 0. -1.
         22    1    3    3    0    0 -0.33645473988E+02  0.32793671579E+02  0.58831865315E+03  0.59019173195E+03  0.00000000000E+00 0. -1.
</event>
<event>
 7    1  0.6508013E-006  0.4002794E+02  0.7818608E-02  0.1557813E+00
          2   -1    0    0  502    0  0.00000000000E+00  0.00000000000E+00  0.18058463501E+04  0.18058463501E+04  0.00000000000E+00 0. -1.
          1   -1    0    0  501    0 -0.00000000000E+00 -0.00000000000E+00 -0.48773740785E+03  0.48773740785E+03  0.00000000000E+00 0. -1.
         25    2    1    2    0    0  0.21577826748E+02 -0.18868744631E+02  0.75562997481E+03  0.76643633664E+03  0.12500546850E+03 0.  0.
          2    1    1    2  501    0 -0.39903967825E+02 -0.34163141790E+01 -0.48130316047E+03  0.48296659318E+03  0.00000000000E+00 0. -1.
          1    1    1    2  502    0  0.18326141077E+02  0.22285058810E+02  0.10437821280E+04  0.10441808282E+04  0.00000000000E+00 0. -1.
         22    1    3    3    0    0 -0.47038556827E+01 -0.56562582266E+02  0.17463244376E+03  0.18362446020E+03  0.00000000000E+00 0.  1.
         22    1    3    3    0    0  0.26281682430E+02  0.37693837635E+02  0.58099753105E+03  0.58281187644E+03  0.00000000000E+00 0.  1.
</event>
<event>
 7    1  0.6508013E-006  0.1151317E+03  0.7818608E-02  0.1370959E+00
          2   -1    0    0  502    0  0.00000000000E+00  0.00000000000E+00  0.21026968902E+03  0.21026968902E+03  0.00000000000E+00 0. -1.
          1   -1    0    0  501    0 -0.00000000000E+00 -0.00000000000E+00 -0.26970350380E+03  0.26970350380E+03  0.00000000000E+00 0. -1.
         25    2    1    2    0    0 -0.57902158801E+02  0.73701323818E+02  0.30550610105E+02  0.15919858147E+03  0.12500521364E+03 0.  0.
          2    1    1    2  501    0 -0.24696753616E+01  0.38796973480E+02 -0.16713775475E+03  0.17159934006E+03  0.00000000000E+00 0. -1.
          1    1    1    2  502    0  0.60371834163E+02 -0.11249829730E+03  0.77153329861E+02  0.14917527129E+03  0.00000000000E+00 0. -1.
         22    1    3    3    0    0 -0.31968771572E+02  0.10828587293E+03  0.24703817186E+02  0.11557729541E+03  0.00000000000E+00 0.  1.
         22    1    3    3    0    0 -0.25933387229E+02 -0.34584549107E+02  0.58467929189E+01  0.43621286060E+02  0.00000000000E+00 0.  1.
</event>
<event>
 7    1  0.6508013E-006  0.1147475E+03  0.7818608E-02  0.1310070E+00
          2   -1    0    0  502    0  0.00000000000E+00  0.00000000000E+00  0.60079349987E+03  0.60079349987E+03  0.00000000000E+00 0. -1.
          1   -1    0    0  501    0 -0.00000000000E+00 -0.00000000000E+00 -0.28658981822E+03  0.28658981822E+03  0.00000000000E+00 0. -1.
         25    2    1    2    0    0 -0.56460950261E+02  0.13509548696E+03 -0.19239420054E+03  0.27217616836E+03  0.12500283485E+03 0.  0.
          2    1    1    2  501    0  0.53739339032E+02 -0.69061478944E+02 -0.15563519989E+02  0.88879849167E+02  0.00000000000E+00 0. -1.
          1    1    1    2  502    0  0.27216112297E+01 -0.66034008011E+02  0.52216140219E+03  0.52632730056E+03  0.00000000000E+00 0. -1.
         22    1    3    3    0    0  0.35619260076E+02  0.65981326393E+02 -0.55407068312E+02  0.93232024218E+02  0.00000000000E+00 0. -1.
         22    1    3    3    0    0 -0.92080210338E+02  0.69114160562E+02 -0.13698713223E+03  0.17894414414E+03  0.00000000000E+00 0. -1.
</event>
<event>
 7    1  0.6508013E-006  0.1477056E+03  0.7818608E-02  0.1265944E+00
          2   -1    0    0  502    0  0.00000000000E+00  0.00000000000E+00  0.21165360032E+04  0.21165360032E+04  0.00000000000E+00 0. -1.
          1   -1    0    0  501    0 -0.00000000000E+00 -0.00000000000E+00 -0.25359224874E+03  0.25359224874E+03  0.00000000000E+00 0. -1.
         25    2    1    2    0    0 -0.13710517475E+03  0.17016272402E+03  0.46547855122E+03  0.52919685817E+03  0.12500340579E+03 0.  0.
          2    1    1    2  501    0  0.46654659702E+02 -0.62168242093E+02 -0.21174849939E+03  0.22556368190E+03  0.00000000000E+00 0. -1.
          1    1    1    2  502    0  0.90450515053E+02 -0.10799448193E+03  0.16092137026E+04  0.16153677118E+04  0.00000000000E+00 0. -1.
         22    1    3    3    0    0 -0.14734058432E+03  0.10059154740E+03  0.36841147446E+03  0.40933473064E+03  0.00000000000E+00 0. -1.
         22    1    3    3    0    0  0.10235409561E+02  0.69571176614E+02  0.97067076760E+02  0.11986212753E+03  0.00000000000E+00 0. -1.
</event>
<event>
 7    1  0.6508013E-006  0.6897759E+02  0.7818608E-02  0.1405492E+00
          2   -1    0    0  502    0  0.00000000000E+00  0.00000000000E+00  0.11456116629E+03  0.11456116629E+03  0.00000000000E+00 0. -1.
          1   -1    0    0  501    0 -0.00000000000E+00 -0.00000000000E+00 -0.10624084813E+04  0.10624084813E+04  0.00000000000E+00 0. -1.
         25    2    1    2    0    0 -0.88076243195E+02  0.72513095075E+01 -0.53552647406E+03  0.55697779110E+03  0.12500259702E+03 0.  0.
          2    1    1    2  501    0  0.27773699821E+02 -0.40522102714E+02 -0.50340727716E+03  0.50579868120E+03  0.00000000000E+00 0. -1.
          1    1    1    2  502    0  0.60302543374E+02  0.33270793206E+02  0.91086436218E+02  0.11419317528E+03  0.00000000000E+00 0. -1.
         22    1    3    3    0    0  0.28174945869E+02  0.16999714033E+02 -0.74927545383E+02  0.81834924752E+02  0.00000000000E+00 0.  1.
         22    1    3    3    0    0 -0.11625118906E+03 -0.97484045258E+01 -0.46059892867E+03  0.47514286635E+03  0.00000000000E+00 0.  1.
</event>
<event>
 7    1  0.6508013E-006  0.9514852E+02  0.7818608E-02  0.1482039E+00
          2   -1    0    0  502    0  0.00000000000E+00  0.00000000000E+00  0.17146260602E+03  0.17146260602E+03  0.00000000000E+00 0. -1.
          1   -1    0    0  501    0 -0.00000000000E+00 -0.00000000000E+00 -0.24190713609E+03  0.24190713609E+03  0.00000000000E+00 0. -1.
         25    2    1    2    0    0  0.27678956070E+02 -0.76510558905E+02 -0.13603850213E+03  0.20187031521E+03  0.12500063947E+03 0.  0.
          2    1    1    2  501    0 -0.86214581355E+01 -0.18216291164E+02 -0.54064818478E+02  0.57698937609E+02  0.00000000000E+00 0. -1.
          1    1    1    2  502    0 -0.19057497934E+02  0.94726850069E+02  0.11965879054E+03  0.15380048928E+03  0.00000000000E+00 0. -1.
         22    1    3    3    0    0  0.74405788521E+02 -0.66387924192E+02 -0.10534256028E+03  0.14505389637E+03  0.00000000000E+00 0.  1.
         22    1    3    3    0    0 -0.46726832452E+02 -0.10122634713E+02 -0.30695941842E+02  0.56816418843E+02  0.00000000000E+00 0.  1.
</event>
<event>
 7    1  0.6508013E-006  0.8628593E+02  0.7818608E-02  0.1334952E+00
          2   -1    0    0  502    0  0.00000000000E+00  0.00000000000E+00  0.24404643164E+03  0.24404643164E+03  0.00000000000E+00 0. -1.
          1   -1    0    0  501    0 -0.00000000000E+00 -0.00000000000E+00 -0.22190230418E+04  0.22190230418E+04  0.00000000000E+00 0. -1.
         25    2    1    2    0    0 -0.63362920106E+02  0.13669511265E+03  0.27635578800E+02  0.19770721059E+03  0.12499600968E+03 0.  0.
          2    1    1    2  501    0  0.53727903545E+02 -0.66925984950E+02 -0.21236180583E+04  0.21253516021E+04  0.00000000000E+00 0. -1.
          1    1    1    2  502    0  0.96350165607E+01 -0.69769127698E+02  0.12100586931E+03  0.14001066077E+03  0.00000000000E+00 0. -1.
         22    1    3    3    0    0 -0.56531518179E+02  0.59097863051E+02  0.71219310875E+02  0.10844611660E+03  0.00000000000E+00 0.  1.
         22    1    3    3    0    0 -0.68314019265E+01  0.77597249597E+02 -0.43583732075E+02  0.89261093982E+02  0.00000000000E+00 0.  1.
</event>
<event>
 7    1  0.6508013E-006  0.9340123E+02  0.7818608E-02  0.1305231E+00
          2   -1    0    0  502    0  0.00000000000E+00  0.00000000000E+00  0.11195438696E+04  0.11195438696E+04  0.00000000000E+00 0. -1.
          1   -1    0    0  501    0 -0.00000000000E+00 -0.00000000000E+00 -0.49262550325E+03  0.49262550325E+03  0.00000000000E+00 0. -1.
         25    2    1    2    0    0 -0.10476392754E+03  0.58422746898E+02  0.34422089997E+03  0.38535999193E+03  0.12500239011E+03 0.  0.
          2    1    1    2  501    0  0.14326605766E+02 -0.83634551528E+02 -0.46528440701E+03  0.47295831661E+03  0.00000000000E+00 0. -1.
          1    1    1    2  502    0  0.90437321772E+02  0.25211804630E+02  0.74798187336E+03  0.75385106429E+03  0.00000000000E+00 0. -1.
         22    1    3    3    0    0 -0.12744711353E+03  0.69769007841E+02  0.31342493414E+03  0.34546442732E+03  0.00000000000E+00 0.  1.
         22    1    3    3    0    0  0.22683185988E+02 -0.11346260942E+02  0.30795965828E+02  0.39895564605E+02  0.00000000000E+00 0.  1.
</event>
<event>
 7    1  0.6508013E-006  0.6566553E+02  0.7818608E-02  0.1461004E+00
          2   -1    0    0  502    0  0.00000000000E+00  0.00000000000E+00  0.16807953924E+03  0.16807953924E+03  0.00000000000E+00 0. -1.
          1   -1    0    0  501    0 -0.00000000000E+00 -0.00000000000E+00 -0.22544065289E+04  0.22544065289E+04  0.00000000000E+00 0. -1.
         25    2    1    2    0    0 -0.72896168902E+02 -0.66233068806E+02 -0.64339247639E+03  0.66279127774E+03  0.12505090293E+03 0.  0.
          2    1    1    2  501    0  0.20784961541E+02  0.26831208671E+02 -0.15943892697E+04  0.15947504732E+04  0.00000000000E+00 0. -1.
          1    1    1    2  502    0  0.52111207361E+02  0.39401860135E+02  0.15145475646E+03  0.16494431718E+03  0.00000000000E+00 0. -1.
         22    1    3    3    0    0  0.17149237716E+02 -0.25110407627E+01 -0.10303122130E+02  0.20163234006E+02  0.00000000000E+00 0. -1.
         22    1    3    3    0    0 -0.90045406618E+02 -0.63722028043E+02 -0.63308935426E+03  0.64262804373E+03  0.00000000000E+00 0. -1.
</event>
<event>
 7    1  0.6508013E-006  0.6738592E+02  0.7818608E-02  0.1458367E+00
          2   -1    0    0  502    0  0.00000000000E+00  0.00000000000E+00  0.61057774922E+03  0.61057774922E+03  0.00000000000E+00 0. -1.
          1   -1    0    0  501    0 -0.00000000000E+00 -0.00000000000E+00 -0.12243577548E+04  0.12243577548E+04  0.00000000000E+00 0. -1.
         25    2    1    2    0    0 -0.23421130246E+02 -0.24848833763E+02  0.92161409863E+01  0.12990389583E+03  0.12499628401E+03 0.  0.
          2    1    1    2  501    0  0.46898754371E+02  0.49043999501E+02 -0.11624982586E+04  0.11644771394E+04  0.00000000000E+00 0. -1.
          1    1    1    2  502    0 -0.23477624125E+02 -0.24195165738E+02  0.53950211199E+03  0.54055446878E+03  0.00000000000E+00 0. -1.
         22    1    3    3    0    0  0.29927677782E+02 -0.58613252477E+02  0.11093722080E+02  0.66740167313E+02  0.00000000000E+00 0. -1.
         22    1    3    3    0    0 -0.53348808028E+02  0.33764418714E+02 -0.18775810933E+01  0.63163728514E+02  0.00000000000E+00 0. -1.
</event>
<event>
 7    1  0.6508013E-006  0.8366478E+02  0.7818608E-02  0.1370673E+00
          2   -1    0    0  502    0  0.00000000000E+00  0.00000000000E+00  0.14506817918E+04  0.14506817918E+04  0.00000000000E+00 0. -1.
          1   -1    0    0  501    0 -0.00000000000E+00 -0.00000000000E+00 -0.81316960552E+03  0.81316960552E+03  0.00000000000E+00 0. -1.
         25    2    1    2    0    0 -0.94058534425E+01 -0.38334447574E+02  0.15345901255E+03  0.20182203563E+03  0.12499786232E+03 0.  0.
          2    1    1    2  501    0 -0.45193032184E+02 -0.28862338896E+02 -0.78660206220E+03  0.78842770691E+03  0.00000000000E+00 0. -1.
          1    1    1    2  502    0  0.54598885627E+02  0.67196786471E+02  0.12706552359E+04  0.12736016547E+04  0.00000000000E+00 0. -1.
         22    1    3    3    0    0  0.22549560841E+02 -0.37285536730E+02 -0.14991475764E+01  0.43599786545E+02  0.00000000000E+00 0.  1.
         22    1    3    3    0    0 -0.31955414283E+02 -0.10489108447E+01  0.15495816013E+03  0.15822224909E+03  0.00000000000E+00 0.  1.
</event>
<event>
 7    1  0.6508013E-006  0.1033859E+03  0.7818608E-02  0.1362944E+00
          2   -1    0    0  502    0  0.00000000000E+00  0.00000000000E+00  0.15512437999E+04  0.15512437999E+04  0.00000000000E+00 0. -1.
          1   -1    0    0  501    0 -0.00000000000E+00 -0.00000000000E+00 -0.31048125626E+03  0.31048125626E+03  0.00000000000E+00 0. -1.
         25    2    1    2    0    0 -0.12080996736E+02 -0.14425922488E+03  0.14321724650E+03  0.23894114972E+03  0.12500007555E+03 0.  0.
          2    1    1    2  501    0 -0.10640050729E+02  0.45035875998E+02 -0.25865850996E+03  0.26276541931E+03  0.00000000000E+00 0. -1.
          1    1    1    2  502    0  0.22721047465E+02  0.99223348885E+02  0.13562038071E+04  0.13600184871E+04  0.00000000000E+00 0. -1.
         22    1    3    3    0    0 -0.37876487506E+02 -0.12616408716E+03  0.50600806263E+02  0.14111146938E+03  0.00000000000E+00 0. -1.
         22    1    3    3    0    0  0.25795490770E+02 -0.18095137721E+02  0.92616440242E+02  0.97829680344E+02  0.00000000000E+00 0. -1.
</event>
<event>
 7    1  0.6508013E-006  0.5630648E+02  0.7818608E-02  0.1463706E+00
          2   -1    0    0  502    0  0.00000000000E+00  0.00000000000E+00  0.23501471039E+04  0.23501471039E+04  0.00000000000E+00 0. -1.
          1   -1    0    0  501    0 -0.00000000000E+00 -0.00000000000E+00 -0.28089474728E+02  0.28089474728E+02  0.00000000000E+00 0. -1.
         25    2    1    2    0    0 -0.21032560384E+02  0.92019025803E+02  0.19970276268E+04  0.20031609934E+04  0.12499901519E+03 0.  0.
          2    1    1    2  501    0  0.10202224981E+02 -0.54745840321E+02  0.86889213972E+01  0.56362130744E+02  0.00000000000E+00 0. -1.
          1    1    1    2  502    0  0.10830335403E+02 -0.37273185483E+02  0.31634108102E+03  0.31871345447E+03  0.00000000000E+00 0. -1.
         22    1    3    3    0    0  0.40576663333E+02  0.40027687346E+02  0.13391717383E+04  0.13403841337E+04  0.00000000000E+00 0. -1.
         22    1    3    3    0    0 -0.61609223717E+02  0.51991338457E+02  0.65785588851E+03  0.66277685971E+03  0.00000000000E+00 0. -1.
</event>
<event>
 7    1  0.6508013E-006  0.1461790E+03  0.7818608E-02  0.1238471E+00
          2   -1    0    0  502    0  0.00000000000E+00  0.00000000000E+00  0.11417586027E+04  0.11417586027E+04  0.00000000000E+00 0. -1.
          1   -1    0    0  501    0 -0.00000000000E+00 -0.00000000000E+00 -0.86331528675E+03  0.86331528675E+03  0.00000000000E+00 0. -1.
         25    2    1    2    0    0 -0.22660178907E+03  0.76639473912E+02  0.25719306551E+03  0.37281524695E+03  0.12498382153E+03 0.  0.
          2    1    1    2  501    0  0.93564630665E+02 -0.43639634104E+02 -0.79646830046E+03  0.80313168995E+03  0.00000000000E+00 0. -1.
          1    1    1    2  502    0  0.13303715840E+03 -0.32999839808E+02  0.81771855095E+03  0.82912695259E+03  0.00000000000E+00 0. -1.
         22    1    3    3    0    0 -0.18679373648E+03  0.17245963056E+02  0.13455328055E+03  0.23085473471E+03  0.00000000000E+00 0. -1.
         22    1    3    3    0    0 -0.39808052589E+02  0.59393510856E+02  0.12263978496E+03  0.14196051225E+03  0.00000000000E+00 0. -1.
</event>
<event>
 7    1  0.6508013E-006  0.8234031E+02  0.7818608E-02  0.1481289E+00
          2   -1    0    0  502    0  0.00000000000E+00  0.00000000000E+00  0.23270552899E+04  0.23270552899E+04  0.00000000000E+00 0. -1.
          1   -1    0    0  501    0 -0.00000000000E+00 -0.00000000000E+00 -0.29068566098E+03  0.29068566098E+03  0.00000000000E+00 0. -1.
         25    2    1    2    0    0 -0.46087568982E+02 -0.49454173162E+02  0.44873688797E+02  0.14900157116E+03  0.12497216092E+03 0.  0.
          2    1    1    2  501    0  0.58543137209E+01 -0.22668028838E+02 -0.23728085724E+03  0.23843304665E+03  0.00000000000E+00 0. -1.
          1    1    1    2  502    0  0.40233255262E+02  0.72122202000E+02  0.22287767974E+04  0.22303063331E+04  0.00000000000E+00 0. -1.
         22    1    3    3    0    0 -0.26950237370E+02 -0.88598301439E+02  0.49807849058E+02  0.10515130118E+03  0.00000000000E+00 0.  1.
         22    1    3    3    0    0 -0.19137331613E+02  0.39144128277E+02 -0.49341602605E+01  0.43850269980E+02  0.00000000000E+00 0.  1.
</event>
<event>
 7    1  0.6508013E-006  0.7893189E+02  0.7818608E-02  0.1358457E+00
          2   -1    0    0  502    0  0.00000000000E+00  0.00000000000E+00  0.15063137941E+04  0.15063137941E+04  0.00000000000E+00 0. -1.
          1   -1    0    0  501    0 -0.00000000000E+00 -0.00000000000E+00 -0.40931010400E+02  0.40931010400E+02  0.00000000000E+00 0. -1.
         25    2    1    2    0    0 -0.36483513034E+02 -0.35018187922E+02  0.42169636669E+03  0.44273002164E+03  0.12499890469E+03 0.  0.
          2    1    1    2  501    0  0.36637064201E+02 -0.51176521079E+02  0.59663315458E+01  0.63221103242E+02  0.00000000000E+00 0. -1.
          1    1    1    2  502    0 -0.15355116720E+00  0.86194709001E+02  0.10377200855E+04  0.10412936796E+04  0.00000000000E+00 0. -1.
         22    1    3    3    0    0  0.12837958637E+02  0.39965800447E+02  0.93646893210E+02  0.10262465101E+03  0.00000000000E+00 0.  1.
         22    1    3    3    0    0 -0.49321471671E+02 -0.74983988369E+02  0.32804947348E+03  0.34010537062E+03  0.00000000000E+00 0.  1.
</event>
<event>
 7    1  0.6508013E-006  0.4631856E+02  0.7818608E-02  0.1476031E+00
          2   -1    0    0  502    0  0.00000000000E+00  0.00000000000E+00  0.21498823903E+03  0.21498823903E+03  0.00000000000E+00 0. -1.
          1   -1    0    0  501    0 -0.00000000000E+00 -0.00000000000E+00 -0.14981797206E+04  0.14981797206E+04  0.00000000000E+00 0. -1.
         25    2    1    2    0    0 -0.14077237097E+02 -0.37439202850E+02 -0.21865224453E+03  0.25500837283E+03  0.12498241340E+03 0.  0.
          2    1    1    2  501    0  0.43184780450E+02  0.10239348039E+01 -0.12582128719E+04  0.12589541710E+04  0.00000000000E+00 0. -1.
          1    1    1    2  502    0 -0.29107543352E+02  0.36415268046E+02  0.19367363488E+03  0.19920541577E+03  0.00000000000E+00 0. -1.
         22    1    3    3    0    0 -0.20664449556E+02 -0.37154256548E+02 -0.23424873832E+03  0.23807547051E+03  0.00000000000E+00 0.  1.
         22    1    3    3    0    0  0.65872124584E+01 -0.28494630216E+00  0.15596493788E+02  0.16932902316E+02  0.00000000000E+00 0.  1.
</event>
<event>
 7    1  0.6508013E-006  0.8180105E+02  0.7818608E-02  0.1451321E+00
          2   -1    0    0  502    0  0.00000000000E+00  0.00000000000E+00  0.63497851351E+03  0.63497851351E+03  0.00000000000E+00 0. -1.
          1   -1    0    0  501    0 -0.00000000000E+00 -0.00000000000E+00 -0.11590174760E+04  0.11590174760E+04  0.00000000000E+00 0. -1.
         25    2    1    2    0    0  0.83434224638E+02  0.51737461893E+02 -0.18183758389E+03  0.24151298633E+03  0.12500232336E+03 0.  0.
          2    1    1    2  501    0 -0.50906989837E+01 -0.28795203855E+02 -0.94436174983E+03  0.94481436987E+03  0.00000000000E+00 0. -1.
          1    1    1    2  502    0 -0.78343525655E+02 -0.22942258039E+02  0.60216037123E+03  0.60766863330E+03  0.00000000000E+00 0. -1.
         22    1    3    3    0    0  0.45292656736E+02  0.36111936130E+02 -0.30188206891E+01  0.58005258069E+02  0.00000000000E+00 0.  1.
         22    1    3    3    0    0  0.38141567902E+02  0.15625525763E+02 -0.17881876321E+03  0.18350772826E+03  0.00000000000E+00 0.  1.
</event>
<event>
 7    1  0.6508013E-006  0.1133921E+03  0.7818608E-02  0.1409528E+00
          2   -1    0    0  502    0  0.00000000000E+00  0.00000000000E+00  0.12662567007E+04  0.12662567007E+04  0.00000000000E+00 0. -1.
          1   -1    0    0  501    0 -0.00000000000E+00 -0.00000000000E+00 -0.37549703845E+04  0.37549703845E+04  0.00000000000E+00 0. -1.
         25    2    1    2    0    0 -0.25857825381E+02 -0.88133155760E+02 -0.19080200505E+03  0.24589816809E+03  0.12499769462E+03 0.  0.
          2    1    1    2  501    0  0.11958004505E+02  0.11353318672E+03 -0.35355296526E+04  0.35373722879E+04  0.00000000000E+00 0. -1.
          1    1    1    2  502    0  0.13899820876E+02 -0.25400030959E+02  0.12376179738E+04  0.12379566292E+04  0.00000000000E+00 0. -1.
         22    1    3    3    0    0 -0.16538957007E+02 -0.11626473251E+03 -0.17881774092E+03  0.21393178724E+03  0.00000000000E+00 0. -1.
         22    1    3    3    0    0 -0.93188683732E+01  0.28131576745E+02 -0.11984264130E+02  0.31966380850E+02  0.00000000000E+00 0. -1.
</event>
<event>
 7    1  0.6508013E-006  0.4921508E+02  0.7818608E-02  0.1486670E+00
          2   -1    0    0  502    0  0.00000000000E+00  0.00000000000E+00  0.22273674274E+04  0.22273674274E+04  0.00000000000E+00 0. -1.
          1   -1    0    0  501    0 -0.00000000000E+00 -0.00000000000E+00 -0.59578184093E+02  0.59578184093E+02  0.00000000000E+00 0. -1.
         25    2    1    2    0    0  0.31951724745E+02  0.48848576193E+02  0.48804249752E+03  0.50716233193E+03  0.12498422075E+03 0.  0.
          2    1    1    2  501    0  0.15272735802E+02 -0.34486047026E+02 -0.42503925949E+02  0.56825413500E+02  0.00000000000E+00 0. -1.
          1    1    1    2  502    0 -0.47224460546E+02 -0.14362529167E+02  0.17222506718E+04  0.17229578661E+04  0.00000000000E+00 0. -1.
         22    1    3    3    0    0 -0.39288828353E+02 -0.26604674219E+01  0.73330385205E+02  0.83234821526E+02  0.00000000000E+00 0. -1.
         22    1    3    3    0    0  0.71240553098E+02  0.51509043615E+02  0.41471211231E+03  0.42392751040E+03  0.00000000000E+00 0. -1.
</event>
<event>
 7    1  0.6508013E-006  0.1982454E+03  0.7818608E-02  0.1235755E+00
          2   -1    0    0  502    0  0.00000000000E+00  0.00000000000E+00  0.15356358079E+04  0.15356358079E+04  0.00000000000E+00 0. -1.
          1   -1    0    0  501    0 -0.00000000000E+00 -0.00000000000E+00 -0.78390707116E+03  0.78390707116E+03  0.00000000000E+00 0. -1.
         25    2    1    2    0    0 -0.57075270012E+02 -0.13942893474E+03  0.43287418148E+03  0.47508230106E+03  0.12500048598E+03 0.  0.
          2    1    1    2  501    0 -0.54332881861E+02 -0.56332905114E+02 -0.74901581949E+03  0.75309372332E+03  0.00000000000E+00 0. -1.
          1    1    1    2  502    0  0.11140815187E+03  0.19576183985E+03  0.10678703747E+04  0.10913668546E+04  0.00000000000E+00 0. -1.
         22    1    3    3    0    0 -0.73401962925E+02 -0.94695886320E+02  0.17029406063E+03  0.20821917811E+03  0.00000000000E+00 0.  1.
         22    1    3    3    0    0  0.16326692913E+02 -0.44733048420E+02  0.26258012085E+03  0.26686312295E+03  0.00000000000E+00 0.  1.
</event>
<event>
 7    1  0.6508013E-006  0.1094249E+03  0.7818608E-02  0.1351268E+00
          2   -1    0    0  502    0  0.00000000000E+00  0.00000000000E+00  0.13121457734E+04  0.13121457734E+04  0.00000000000E+00 0. -1.
          1   -1    0    0  501    0 -0.00000000000E+00 -0.00000000000E+00 -0.13132781382E+03  0.13132781382E+03  0.00000000000E+00 0. -1.
         25    2    1    2    0    0 -0.91270679715E+02 -0.31656248622E+02  0.80964171086E+03  0.82491242604E+03  0.12501342172E+03 0.  0.
          2    1    1    2  501    0 -0.72404717877E+01 -0.47703517245E+02 -0.11048716230E+03  0.12056310805E+03  0.00000000000E+00 0. -1.
          1    1    1    2  502    0  0.98511151503E+02  0.79359765867E+02  0.48166341101E+03  0.49799805313E+03  0.00000000000E+00 0. -1.
         22    1    3    3    0    0 -0.12597683642E+02 -0.65869876166E+02  0.46196945188E+03  0.46681186435E+03  0.00000000000E+00 0. -1.
         22    1    3    3    0    0 -0.78672996073E+02  0.34213627544E+02  0.34767225898E+03  0.35810056169E+03  0.00000000000E+00 0. -1.
</event>
<event>
 7    1  0.6508013E-006  0.7656157E+02  0.7818608E-02  0.1425947E+00
          2   -1    0    0  502    0  0.00000000000E+00  0.00000000000E+00  0.17057921787E+04  0.17057921787E+04  0.00000000000E+00 0. -1.
          1   -1    0    0  501    0 -0.00000000000E+00 -0.00000000000E+00 -0.53888436528E+03  0.53888436528E+03  0.00000000000E+00 0. -1.
         25    2    1    2    0    0 -0.62002943449E+02 -0.19281965434E+01  0.71106600537E+03  0.72462985813E+03  0.12500193742E+03 0.  0.
          2    1    1    2  501    0  0.65667596038E+02  0.39530483499E+02 -0.52897812499E+03  0.53450233771E+03  0.00000000000E+00 0. -1.
          1    1    1    2  502    0 -0.36646525893E+01 -0.37602286956E+02  0.98481993303E+03  0.98554434814E+03  0.00000000000E+00 0. -1.
         22    1    3    3    0    0 -0.96525708527E+02 -0.28469571991E+01  0.61520192472E+03  0.62273487597E+03  0.00000000000E+00 0. -1.
         22    1    3    3    0    0  0.34522765078E+02  0.91876065573E+00  0.95864080652E+02  0.10189498216E+03  0.00000000000E+00 0. -1.
</event>
<event>
 7    1  0.6508013E-006  0.5496867E+02  0.7818608E-02  0.1465179E+00
          2   -1    0    0  502    0  0.00000000000E+00  0.00000000000E+00  0.21216342780E+03  0.21216342780E+03  0.00000000000E+00 0. -1.
          1   -1    0    0  501    0 -0.00000000000E+00 -0.00000000000E+00 -0.15082582376E+03  0.15082582376E+03  0.00000000000E+00 0. -1.
         25    2    1    2    0    0 -0.49266145527E+02  0.53537197890E+02  0.16297733739E+03  0.21789633522E+03  0.12499526289E+03 0.  0.
          2    1    1    2  501    0  0.99278704103E+01 -0.53765561996E+02 -0.87719987171E+02  0.10336389320E+03  0.00000000000E+00 0. -1.
          1    1    1    2  502    0  0.39338275117E+02  0.22836410614E+00 -0.13919746183E+02  0.41729023151E+02  0.00000000000E+00 0. -1.
         22    1    3    3    0    0 -0.53574414657E+02  0.14312232470E+02  0.57013830182E+01  0.55745526031E+02  0.00000000000E+00 0.  1.
         22    1    3    3    0    0  0.43082691302E+01  0.39224965420E+02  0.15727595438E+03  0.16215080919E+03  0.00000000000E+00 0.  1.
</event>
<event>
 7    1  0.6508013E-006  0.3483706E+02  0.7818608E-02  0.1596907E+00
          2   -1    0    0  502    0  0.00000000000E+00  0.00000000000E+00  0.31822338203E+03  0.31822338203E+03  0.00000000000E+00 0. -1.
          1   -1    0    0  501    0 -0.00000000000E+00 -0.00000000000E+00 -0.15501893015E+04  0.15501893015E+04  0.00000000000E+00 0. -1.
         25    2    1    2    0    0  0.11933825968E+02  0.23595079900E+02 -0.47993254355E+03  0.49664864774E+03  0.12500195577E+03 0.  0.
          2    1    1    2  501    0 -0.34027675073E+02 -0.98518918737E+01 -0.10610563685E+04  0.10616475685E+04  0.00000000000E+00 0. -1.
          1    1    1    2  502    0  0.22093849105E+02 -0.13743188026E+02  0.30902299257E+03  0.31011646735E+03  0.00000000000E+00 0. -1.
         22    1    3    3    0    0 -0.10227327273E+02 -0.21289050696E+02 -0.12842553107E+02  0.26884067270E+02  0.00000000000E+00 0.  1.
         22    1    3    3    0    0  0.22161153241E+02  0.44884130597E+02 -0.46708999044E+03  0.46976458047E+03  0.00000000000E+00 0.  1.
</event>
<event>
 7    1  0.6508013E-006  0.1473426E+03  0.7818608E-02  0.1244481E+00
          2   -1    0    0  502    0  0.00000000000E+00  0.00000000000E+00  0.13599790428E+04  0.13599790428E+04  0.00000000000E+00 0. -1.
          1   -1    0    0  501    0 -0.00000000000E+00 -0.00000000000E+00 -0.96944524893E+03  0.96944524893E+03  0.00000000000E+00 0. -1.
         25    2    1    2    0    0  0.22427304997E+03  0.84830522520E+02  0.64457443583E+02  0.27798499406E+03  0.12500510547E+03 0.  0.
          2    1    1    2  501    0 -0.13134888122E+03 -0.59268996868E+02 -0.85468675115E+03  0.86674955159E+03  0.00000000000E+00 0. -1.
          1    1    1    2  502    0 -0.92924168749E+02 -0.25561525652E+02  0.11807631014E+04  0.11846897461E+04  0.00000000000E+00 0. -1.
         22    1    3    3    0    0  0.10999342230E+03  0.10489746679E+03  0.18213278180E+02  0.15308087729E+03  0.00000000000E+00 0. -1.
         22    1    3    3    0    0  0.11427962767E+03 -0.20066944270E+02  0.46244165403E+02  0.12490411677E+03  0.00000000000E+00 0. -1.
</event>
<event>
 7    1  0.6508013E-006  0.1297725E+03  0.7818608E-02  0.1323953E+00
          2   -1    0    0  502    0  0.00000000000E+00  0.00000000000E+00  0.17657468094E+04  0.17657468094E+04  0.00000000000E+00 0. -1.
          1   -1    0    0  501    0 -0.00000000000E+00 -0.00000000000E+00 -0.14761653753E+03  0.14761653753E+03  0.00000000000E+00 0. -1.
         25    2    1    2    0    0  0.15729952794E+03  0.67724412061E+02  0.12055138743E+03  0.24389968137E+03  0.12499872033E+03 0.  0.
          2    1    1    2  501    0 -0.51401151959E+02  0.44330221720E+01 -0.75351880956E+02  0.91321607913E+02  0.00000000000E+00 0. -1.
          1    1    1    2  502    0 -0.10589837598E+03 -0.72157434233E+02  0.15729307654E+04  0.15781420576E+04  0.00000000000E+00 0. -1.
         22    1    3    3    0    0  0.17173990443E+03  0.74825176538E+02  0.86709126763E+02  0.20642643843E+03  0.00000000000E+00 0. -1.
         22    1    3    3    0    0 -0.14440376499E+02 -0.71007644772E+01  0.33842260665E+02  0.37473242941E+02  0.00000000000E+00 0. -1.
</event>
<event>
 7    1  0.6508013E-006  0.1068559E+03  0.7818608E-02  0.1357357E+00
          2   -1    0    0  502    0  0.00000000000E+00  0.00000000000E+00  0.45033572302E+02  0.45033572302E+02  0.00000000000E+00 0. -1.
          1   -1    0    0  501    0 -0.00000000000E+00 -0.00000000000E+00 -0.66220143388E+03  0.66220143388E+03  0.00000000000E+00 0. -1.
         25    2    1    2    0    0  0.67697247088E+02 -0.61594681186E+02 -0.22761084496E+03  0.27533340336E+03  0.12499985701E+03 0.  0.
          2    1    1    2  501    0 -0.48059301113E+02  0.10421254274E+03 -0.35646325700E+03  0.37448097959E+03  0.00000000000E+00 0. -1.
          1    1    1    2  502    0 -0.19637945975E+02 -0.42617861555E+02 -0.33093759629E+02  0.57420623229E+02  0.00000000000E+00 0. -1.
         22    1    3    3    0    0  0.93562180368E+00 -0.48468197203E+02 -0.12992662965E+02  0.50188154172E+02  0.00000000000E+00 0. -1.
         22    1    3    3    0    0  0.66761625284E+02 -0.13126483984E+02 -0.21461818199E+03  0.22514524919E+03  0.00000000000E+00 0. -1.
</event>
<event>
 7    1  0.6508013E-006  0.7041601E+02  0.7818608E-02  0.1408585E+00
          2   -1    0    0  502    0  0.00000000000E+00  0.00000000000E+00  0.23810176611E+03  0.23810176611E+03  0.00000000000E+00 0. -1.
          1   -1    0    0  501    0 -0.00000000000E+00 -0.00000000000E+00 -0.54250805758E+03  0.54250805758E+03  0.00000000000E+00 0. -1.
         25    2    1    2    0    0 -0.43779760055E+02 -0.28268539574E+02 -0.71929562083E+02  0.15334787874E+03  0.12500372911E+03 0.  0.
          2    1    1    2  501    0  0.23082848834E+02 -0.40907597589E+02 -0.42191899491E+03  0.42452548535E+03  0.00000000000E+00 0. -1.
          1    1    1    2  502    0  0.20696911222E+02  0.69176137163E+02  0.18944226552E+03  0.20273645960E+03  0.00000000000E+00 0. -1.
         22    1    3    3    0    0  0.79535743414E+01  0.28540965029E+02 -0.70529299590E+02  0.76499857060E+02  0.00000000000E+00 0. -1.
         22    1    3    3    0    0 -0.51733334397E+02 -0.56809504603E+02 -0.14002624924E+01  0.76848021680E+02  0.00000000000E+00 0. -1.
</event>
<event>
 7    1  0.6508013E-006  0.5329196E+02  0.7818608E-02  0.1547448E+00
          2   -1    0    0  502    0  0.00000000000E+00  0.00000000000E+00  0.40989988064E+03  0.40989988064E+03  0.00000000000E+00 0. -1.
          1   -1    0    0  501    0 -0.00000000000E+00 -0.00000000000E+00 -0.52778824261E+03  0.52778824261E+03  0.00000000000E+00 0. -1.
         25    2    1    2    0    0 -0.23553253399E+01  0.47660703305E+02  0.20201468767E+03  0.24230611388E+03  0.12500091436E+03 0.  0.
          2    1    1    2  501    0 -0.23122979988E+02  0.12700232517E+01 -0.50331790289E+03  0.50385037117E+03  0.00000000000E+00 0. -1.
          1    1    1    2  502    0  0.25478305328E+02 -0.48930726557E+02  0.18341485325E+03  0.19153163821E+03  0.00000000000E+00 0. -1.
         22    1    3    3    0    0  0.31897173871E+02  0.77640982376E+02  0.15839296250E+03  0.17925926033E+03  0.00000000000E+00 0.  1.
         22    1    3    3    0    0 -0.34252499211E+02 -0.29980279071E+02  0.43621725169E+02  0.63046853546E+02  0.00000000000E+00 0.  1.
</event>
<event>
 7    1  0.6508013E-006  0.6974730E+02  0.7818608E-02  0.1454137E+00
          2   -1    0    0  502    0  0.00000000000E+00  0.00000000000E+00  0.93869756512E+02  0.93869756512E+02  0.00000000000E+00 0. -1.
          1   -1    0    0  501    0 -0.00000000000E+00 -0.00000000000E+00 -0.84410590045E+03  0.84410590045E+03  0.00000000000E+00 0. -1.
         25    2    1    2    0    0  0.23535949710E+02  0.67232960786E+02 -0.26859646963E+00  0.14387259175E+03  0.12500015428E+03 0.  0.
          2    1    1    2  501    0 -0.50960511131E+02 -0.47830654241E+02 -0.75663309574E+03  0.75985418782E+03  0.00000000000E+00 0. -1.
          1    1    1    2  502    0  0.27424561421E+02 -0.19402306545E+02  0.66655482722E+01  0.34248877386E+02  0.00000000000E+00 0. -1.
         22    1    3    3    0    0 -0.13077035302E+02 -0.31869817081E+02  0.14154177236E+02  0.37242916458E+02  0.00000000000E+00 0. -1.
         22    1    3    3    0    0  0.36612985012E+02  0.99102777867E+02 -0.14422773706E+02  0.10662967530E+03  0.00000000000E+00 0. -1.
</event>
<event>
 7    1  0.9997179E-006  0.6074027E+02  0.7818608E-02  0.1420756E+00
          2   -1    0    0  502    0  0.00000000000E+00  0.00000000000E+00  0.11111360742E+04  0.11111360742E+04  0.00000000000E+00 0. -1.
          1   -1    0    0  501    0 -0.00000000000E+00 -0.00000000000E+00 -0.13303941373E+04  0.13303941373E+04  0.00000000000E+00 0. -1.
         25    2    1    2    0    0  0.38741972052E+02 -0.53481220521E+02 -0.22753316380E+03  0.26787430389E+03  0.12499648279E+03 0.  0.
          2    1    1    2  501    0 -0.49134290631E+02 -0.64141212790E+01 -0.10812757394E+04  0.10824105247E+04  0.00000000000E+00 0. -1.
          1    1    1    2  502    0  0.10392318579E+02  0.59895341800E+02  0.10895508402E+04  0.10912453828E+04  0.00000000000E+00 0. -1.
         22    1    3    3    0    0  0.76406122023E+02 -0.39482159608E+02 -0.20380776778E+03  0.22121108159E+03  0.00000000000E+00 0. -1.
         22    1    3    3    0    0 -0.37664149971E+02 -0.13999060913E+02 -0.23725396022E+02  0.46663222305E+02  0.00000000000E+00 0. -1.
</event>
<event>
 7    1  0.1083991E-005  0.5160215E+02  0.7818608E-02  0.1456107E+00
          2   -1    0    0  502    0  0.00000000000E+00  0.00000000000E+00  0.22413132040E+04  0.22413132040E+04  0.00000000000E+00 0. -1.
          1   -1    0    0  501    0 -0.00000000000E+00 -0.00000000000E+00 -0.21875883463E+04  0.21875883463E+04  0.00000000000E+00 0. -1.
         25    2    1    2    0    0 -0.15891766235E+01  0.51570321219E+02 -0.23688330559E+03  0.27277794221E+03  0.12502832390E+03 0.  0.
          2    1    1    2  501    0  0.41491570852E+02 -0.31296994784E+02 -0.19321830232E+04  0.19328818607E+04  0.00000000000E+00 0. -1.
          1    1    1    2  502    0 -0.39902394229E+02 -0.20273326435E+02  0.22227911865E+04  0.22232417474E+04  0.00000000000E+00 0. -1.
         22    1    3    3    0    0  0.36999216548E+02  0.39620703187E+02 -0.22386601032E+03  0.23033612987E+03  0.00000000000E+00 0. -1.
         22    1    3    3    0    0 -0.38588393172E+02  0.11949618032E+02 -0.13017295271E+02  0.42441812342E+02  0.00000000000E+00 0. -1.
</event>
<event>
 7    1  0.6508013E-006  0.1235841E+03  0.7818608E-02  0.1377683E+00
          2   -1    0    0  502    0  0.00000000000E+00  0.00000000000E+00  0.46165945637E+03  0.46165945637E+03  0.00000000000E+00 0. -1.
          1   -1    0    0  501    0 -0.00000000000E+00 -0.00000000000E+00 -0.10892475307E+04  0.10892475307E+04  0.00000000000E+00 0. -1.
         25    2    1    2    0    0 -0.32777790629E+02  0.85185429129E+02  0.21461632031E+03  0.26460550308E+03  0.12499986570E+03 0.  0.
          2    1    1    2  501    0  0.55135340293E+02 -0.11115531769E+03 -0.10592878502E+04  0.10665299621E+04  0.00000000000E+00 0. -1.
          1    1    1    2  502    0 -0.22357549664E+02  0.25969888558E+02  0.21708345560E+03  0.21977152189E+03  0.00000000000E+00 0. -1.
         22    1    3    3    0    0  0.20609416180E+02 -0.18623220850E+02  0.10949195329E+02  0.29857281666E+02  0.00000000000E+00 0.  1.
         22    1    3    3    0    0 -0.53387206809E+02  0.10380864998E+03  0.20366712498E+03  0.23474822142E+03  0.00000000000E+00 0.  1.
</event>
<event>
 7    1  0.6508013E-006  0.1571245E+03  0.7818608E-02  0.1353052E+00
          2   -1    0    0  502    0  0.00000000000E+00  0.00000000000E+00  0.18401853557E+03  0.18401853557E+03  0.00000000000E+00 0. -1.
          1   -1    0    0  501    0 -0.00000000000E+00 -0.00000000000E+00 -0.27722800024E+04  0.27722800024E+04  0.00000000000E+00 0. -1.
         25    2    1    2    0    0 -0.33114460307E+02 -0.13196233311E+03 -0.10945995058E+04  0.11100831489E+04  0.12500357787E+03 0.  0.
          2    1    1    2  501    0  0.35647849250E+02  0.16496172059E+03 -0.16640784670E+04  0.16726148040E+04  0.00000000000E+00 0. -1.
          1    1    1    2  502    0 -0.25333889432E+01 -0.32999387478E+02  0.17041650595E+03  0.17360058506E+03  0.00000000000E+00 0. -1.
         22    1    3    3    0    0 -0.21573454288E+02 -0.12151433523E+03 -0.49066108103E+03  0.50594411157E+03  0.00000000000E+00 0. -1.
         22    1    3    3    0    0 -0.11541006019E+02 -0.10447997874E+02 -0.60393842482E+03  0.60413903736E+03  0.00000000000E+00 0. -1.
</event>
<event>
 7    1  0.6508013E-006  0.1023065E+03  0.7818608E-02  0.1303539E+00
          2   -1    0    0  502    0  0.00000000000E+00  0.00000000000E+00  0.89144435271E+03  0.89144435271E+03  0.00000000000E+00 0. -1.
          1   -1    0    0  501    0 -0.00000000000E+00 -0.00000000000E+00 -0.37243111142E+02  0.37243111142E+02  0.00000000000E+00 0. -1.
         25    2    1    2    0    0  0.56207552827E+01  0.31458550161E+02  0.27896335384E+03  0.30735301619E+03  0.12499636196E+03 0.  0.
          2    1    1    2  501    0 -0.60082232289E+02 -0.11806440019E+03  0.31662747532E+03  0.34322301111E+03  0.00000000000E+00 0. -1.
          1    1    1    2  502    0  0.54461477007E+02  0.86605850029E+02  0.25861041240E+03  0.27811143655E+03  0.00000000000E+00 0. -1.
         22    1    3    3    0    0  0.60853773636E+02 -0.17828468198E+01  0.17210725228E+03  0.18255757064E+03  0.00000000000E+00 0.  1.
         22    1    3    3    0    0 -0.55233018353E+02  0.33241396981E+02  0.10685610156E+03  0.12479544555E+03  0.00000000000E+00 0.  1.
</event>
<event>
 7    1  0.6508013E-006  0.3074441E+03  0.7818608E-02  0.1303631E+00
          2   -1    0    0  502    0  0.00000000000E+00  0.00000000000E+00  0.26621286070E+03  0.26621286070E+03  0.00000000000E+00 0. -1.
          1   -1    0    0  501    0 -0.00000000000E+00 -0.00000000000E+00 -0.14712183111E+04  0.14712183111E+04  0.00000000000E+00 0. -1.
         25    2    1    2    0    0 -0.12912977577E+03 -0.26250906159E+03 -0.53455829847E+03  0.62206422191E+03  0.12500326122E+03 0.  0.
          2    1    1    2  501    0  0.14836378272E+03  0.28023848252E+03 -0.86384759075E+03  0.92020545486E+03  0.00000000000E+00 0. -1.
          1    1    1    2  502    0 -0.19234006953E+02 -0.17729420931E+02  0.19340043884E+03  0.19516149501E+03  0.00000000000E+00 0. -1.
         22    1    3    3    0    0 -0.13611185777E+03 -0.15278974059E+03 -0.30156358532E+03  0.36443344885E+03  0.00000000000E+00 0.  1.
         22    1    3    3    0    0  0.69820820019E+01 -0.10971932100E+03 -0.23299471315E+03  0.25763077306E+03  0.00000000000E+00 0.  1.
</event>
<event>
 7    1  0.6508013E-006  0.3605055E+03  0.7818608E-02  0.1098194E+00
          2   -1    0    0  502    0  0.00000000000E+00  0.00000000000E+00  0.26091160973E+04  0.26091160973E+04  0.00000000000E+00 0. -1.
          1   -1    0    0  501    0 -0.00000000000E+00 -0.00000000000E+00 -0.44103634460E+03  0.44103634460E+03  0.00000000000E+00 0. -1.
         25    2    1    2    0    0 -0.12427333592E+03 -0.48375556067E+03  0.10895876860E+04  0.12051098313E+04  0.12500030240E+03 0.  0.
          2    1    1    2  501    0 -0.38686949459E+02  0.20689251577E+03 -0.33492739661E+03  0.39557243855E+03  0.00000000000E+00 0. -1.
          1    1    1    2  502    0  0.16296028538E+03  0.27686304490E+03  0.14134194634E+04  0.14494701721E+04  0.00000000000E+00 0. -1.
         22    1    3    3    0    0  0.25282626578E+02 -0.95306681183E+02  0.21284913925E+03  0.23457905014E+03  0.00000000000E+00 0. -1.
         22    1    3    3    0    0 -0.14955596250E+03 -0.38844887949E+03  0.87673854670E+03  0.97053078115E+03  0.00000000000E+00 0. -1.
</event>
<event>
 7    1  0.6508013E-006  0.7974860E+02  0.7818608E-02  0.1370219E+00
          2   -1    0    0  502    0  0.00000000000E+00  0.00000000000E+00  0.58012707257E+03  0.58012707257E+03  0.00000000000E+00 0. -1.
          1   -1    0    0  501    0 -0.00000000000E+00 -0.00000000000E+00 -0.38945043914E+03  0.38945043914E+03  0.00000000000E+00 0. -1.
         25    2    1    2    0    0 -0.31238611607E+02  0.18206680779E+02  0.39659617325E+02  0.13603465511E+03  0.12500083225E+03 0.  0.
          2    1    1    2  501    0  0.35641162821E+02 -0.74503174208E+02 -0.33460592965E+03  0.34464785450E+03  0.00000000000E+00 0. -1.
          1    1    1    2  502    0 -0.44025512134E+01  0.56296493429E+02  0.48562294576E+03  0.48889500210E+03  0.00000000000E+00 0. -1.
         22    1    3    3    0    0  0.47757138381E+01  0.63838413168E+02  0.44095647845E+02  0.77734011844E+02  0.00000000000E+00 0. -1.
         22    1    3    3    0    0 -0.36014325445E+02 -0.45631732390E+02 -0.44360305201E+01  0.58300643263E+02  0.00000000000E+00 0. -1.
</event>
<event>
 7    1  0.6508013E-006  0.2711107E+03  0.7818608E-02  0.1254571E+00
          2   -1    0    0  502    0  0.00000000000E+00  0.00000000000E+00  0.96245620677E+03  0.96245620677E+03  0.00000000000E+00 0. -1.
          1   -1    0    0  501    0 -0.00000000000E+00 -0.00000000000E+00 -0.71649429785E+03  0.71649429785E+03  0.00000000000E+00 0. -1.
         25    2    1    2    0    0 -0.23221906328E+03  0.11358016755E+02 -0.18775219011E+03  0.32392895769E+03  0.12499754734E+03 0.  0.
          2    1    1    2  501    0 -0.41934292998E+02 -0.21995411302E+02 -0.43830754595E+03  0.44085801330E+03  0.00000000000E+00 0. -1.
          1    1    1    2  502    0  0.27415335628E+03  0.10637394547E+02  0.87202164498E+03  0.91416353364E+03  0.00000000000E+00 0. -1.
         22    1    3    3    0    0 -0.76492653550E+02 -0.24304968323E+02 -0.13244932520E+03  0.15486988499E+03  0.00000000000E+00 0.  1.
         22    1    3    3    0    0 -0.15572640973E+03  0.35662985078E+02 -0.55302864911E+02  0.16905907270E+03  0.00000000000E+00 0.  1.
</event>
<event>
 7    1  0.6508013E-006  0.4996972E+02  0.7818608E-02  0.1468522E+00
          2   -1    0    0  502    0  0.00000000000E+00  0.00000000000E+00  0.13116743425E+04  0.13116743425E+04  0.00000000000E+00 0. -1.
          1   -1    0    0  501    0 -0.00000000000E+00 -0.00000000000E+00 -0.13913757470E+04  0.13913757470E+04  0.00000000000E+00 0. -1.
         25    2    1    2    0    0 -0.82629075335E+01 -0.25416785008E+02  0.22407510994E+03  0.25796117147E+03  0.12498008837E+03 0.  0.
          2    1    1    2  501    0  0.39393526004E+02 -0.15260475237E+02 -0.13734951037E+04  0.13741446547E+04  0.00000000000E+00 0. -1.
          1    1    1    2  502    0 -0.31130618470E+02  0.40677260245E+02  0.10697185893E+04  0.10709442634E+04  0.00000000000E+00 0. -1.
         22    1    3    3    0    0  0.34338647789E+02 -0.12875773927E+02  0.20725312171E+03  0.21047276485E+03  0.00000000000E+00 0. -1.
         22    1    3    3    0    0 -0.42601555322E+02 -0.12541011081E+02  0.16821988232E+02  0.47488406615E+02  0.00000000000E+00 0. -1.
</event>
<event>
 7    1  0.6508013E-006  0.1093126E+03  0.7818608E-02  0.1411536E+00
          2   -1    0    0  502    0  0.00000000000E+00  0.00000000000E+00  0.28024532668E+04  0.28024532668E+04  0.00000000000E+00 0. -1.
          1   -1    0    0  501    0 -0.00000000000E+00 -0.00000000000E+00 -0.23557087799E+02  0.23557087799E+02  0.00000000000E+00 0. -1.
         25    2    1    2    0    0  0.81365061107E+02 -0.22218166464E+02  0.14902610429E+04  0.14978706486E+04  0.12499833554E+03 0.  0.
          2    1    1    2  501    0 -0.10433248435E+03  0.40840693152E+02  0.14086785026E+03  0.17999161298E+03  0.00000000000E+00 0. -1.
          1    1    1    2  502    0  0.22967423240E+02 -0.18622526688E+02  0.11477672858E+04  0.11481480930E+04  0.00000000000E+00 0. -1.
         22    1    3    3    0    0  0.15940266642E+02 -0.41118178886E+02  0.16289810314E+03  0.16876192919E+03  0.00000000000E+00 0.  1.
         22    1    3    3    0    0  0.65424794465E+02  0.18900012422E+02  0.13273629398E+04  0.13291087194E+04  0.00000000000E+00 0.  1.
</event>
<event>
 7    1  0.6508013E-006  0.8736178E+02  0.7818608E-02  0.1408875E+00
          2   -1    0    0  502    0  0.00000000000E+00  0.00000000000E+00  0.24955110096E+03  0.24955110096E+03  0.00000000000E+00 0. -1.
          1   -1    0    0  501    0 -0.00000000000E+00 -0.00000000000E+00 -0.18880902828E+04  0.18880902828E+04  0.00000000000E+00 0. -1.
         25    2    1    2    0    0 -0.10885089648E+01  0.87146965045E+02  0.12689731992E+03  0.19830239861E+03  0.12500053249E+03 0.  0.
          2    1    1    2  501    0  0.37919896317E+02 -0.78761704302E+02 -0.18472023109E+04  0.18492695050E+04  0.00000000000E+00 0. -1.
          1    1    1    2  502    0 -0.36831387352E+02 -0.83852607435E+01  0.81765809215E+02  0.90069480117E+02  0.00000000000E+00 0. -1.
         22    1    3    3    0    0 -0.21923020997E+02  0.92364345339E+02  0.14287218453E+03  0.17153498842E+03  0.00000000000E+00 0. -1.
         22    1    3    3    0    0  0.20834512033E+02 -0.52173802939E+01 -0.15974864613E+02  0.26767410188E+02  0.00000000000E+00 0. -1.
</event>
<event>
 7    1  0.6508013E-006  0.4084338E+02  0.7818608E-02  0.1524965E+00
          2   -1    0    0  502    0  0.00000000000E+00  0.00000000000E+00  0.33678116772E+03  0.33678116772E+03  0.00000000000E+00 0. -1.
          1   -1    0    0  501    0 -0.00000000000E+00 -0.00000000000E+00 -0.10704251897E+04  0.10704251897E+04  0.00000000000E+00 0. -1.
         25    2    1    2    0    0 -0.19212497711E+02  0.74250166060E+01 -0.31456550716E+03  0.33911665848E+03  0.12499759529E+03 0.  0.
          2    1    1    2  501    0  0.97484945247E+01 -0.41125497769E+02 -0.74203703858E+03  0.74323973678E+03  0.00000000000E+00 0. -1.
          1    1    1    2  502    0  0.94640031863E+01  0.33700481163E+02  0.32295852380E+03  0.32484996211E+03  0.00000000000E+00 0. -1.
         22    1    3    3    0    0  0.16284092789E+02  0.25584657786E+02 -0.29146011694E+03  0.29303369458E+03  0.00000000000E+00 0. -1.
         22    1    3    3    0    0 -0.35496590500E+02 -0.18159641179E+02 -0.23105390214E+02  0.46082963900E+02  0.00000000000E+00 0. -1.
</event>
<event>
 7    1  0.6508013E-006  0.6288095E+02  0.7818608E-02  0.1440593E+00
          2   -1    0    0  502    0  0.00000000000E+00  0.00000000000E+00  0.18434460001E+04  0.18434460001E+04  0.00000000000E+00 0. -1.
          1   -1    0    0  501    0 -0.00000000000E+00 -0.00000000000E+00 -0.71873018028E+03  0.71873018028E+03  0.00000000000E+00 0. -1.
         25    2    1    2    0    0 -0.58009757722E+02 -0.81705270847E+02  0.84793720638E+02  0.18126248914E+03  0.12500092653E+03 0.  0.
          2    1    1    2  501    0  0.45996909989E+02  0.42308574787E+02 -0.66879080841E+03  0.67170445632E+03  0.00000000000E+00 0. -1.
          1    1    1    2  502    0  0.12012847733E+02  0.39396696059E+02  0.17087129076E+04  0.17092092350E+04  0.00000000000E+00 0. -1.
         22    1    3    3    0    0 -0.55540645333E+02 -0.14408004921E+02  0.97117657941E+02  0.11280156636E+03  0.00000000000E+00 0. -1.
         22    1    3    3    0    0 -0.24691123899E+01 -0.67297265926E+02 -0.12323937302E+02  0.68460922779E+02  0.00000000000E+00 0. -1.
</event>
<event>
 7    1  0.6508013E-006  0.6310195E+02  0.7818608E-02  0.1506142E+00
          2   -1    0    0  502    0  0.00000000000E+00  0.00000000000E+00  0.87357903540E+03  0.87357903540E+03  0.00000000000E+00 0. -1.
          1   -1    0    0  501    0 -0.00000000000E+00 -0.00000000000E+00 -0.13573542685E+04  0.13573542685E+04  0.00000000000E+00 0. -1.
         25    2    1    2    0    0  0.46228166509E+02 -0.29410216121E+02 -0.95072267231E+02  0.16633171275E+03  0.12500199390E+03 0.  0.
          2    1    1    2  501    0  0.16274116027E+02  0.19910680913E+02 -0.12253247537E+04  0.12255945635E+04  0.00000000000E+00 0. -1.
          1    1    1    2  502    0 -0.62502282536E+02  0.94995352082E+01  0.83662178785E+03  0.83900702762E+03  0.00000000000E+00 0. -1.
         22    1    3    3    0    0 -0.16074541271E+02 -0.56881932067E+02 -0.14539475051E+02  0.60871515567E+02  0.00000000000E+00 0.  1.
         22    1    3    3    0    0  0.62302707780E+02  0.27471715946E+02 -0.80532792180E+02  0.10546019718E+03  0.00000000000E+00 0.  1.
</event>
<event>
 7    1  0.6508013E-006  0.1045085E+03  0.7818608E-02  0.1276959E+00
          2   -1    0    0  502    0  0.00000000000E+00  0.00000000000E+00  0.30931469589E+04  0.30931469589E+04  0.00000000000E+00 0. -1.
          1   -1    0    0  501    0 -0.00000000000E+00 -0.00000000000E+00 -0.15438408842E+04  0.15438408842E+04  0.00000000000E+00 0. -1.
         25    2    1    2    0    0 -0.13232083903E+03  0.26866260872E+02  0.62970470200E+03  0.65603680601E+03  0.12500271476E+03 0.  0.
          2    1    1    2  501    0  0.76605349908E+02  0.62362583551E+02 -0.15279502079E+04  0.15311398725E+04  0.00000000000E+00 0. -1.
          1    1    1    2  502    0  0.55715489125E+02 -0.89228844423E+02  0.24475515806E+04  0.24498111646E+04  0.00000000000E+00 0. -1.
         22    1    3    3    0    0  0.19853717075E+02 -0.10934078247E+02  0.41437977044E+02  0.47231664065E+02  0.00000000000E+00 0.  1.
         22    1    3    3    0    0 -0.15217455611E+03  0.37800339119E+02  0.58826672496E+03  0.60880514194E+03  0.00000000000E+00 0.  1.
</event>
<event>
 7    1  0.6508013E-006  0.1240776E+03  0.7818608E-02  0.1263101E+00
          2   -1    0    0  502    0  0.00000000000E+00  0.00000000000E+00  0.79582027341E+02  0.79582027341E+02  0.00000000000E+00 0. -1.
          1   -1    0    0  501    0 -0.00000000000E+00 -0.00000000000E+00 -0.20317050811E+04  0.20317050811E+04  0.00000000000E+00 0. -1.
         25    2    1    2    0    0 -0.25537252903E+02  0.10064704102E+03 -0.13116516334E+03  0.20883445836E+03  0.12500221106E+03 0.  0.
          2    1    1    2  501    0  0.85785441538E+02  0.41117732963E+02 -0.17099270422E+04  0.17125712538E+04  0.00000000000E+00 0. -1.
          1    1    1    2  502    0 -0.60248188634E+02 -0.14176477398E+03 -0.11103084825E+03  0.18988139625E+03  0.00000000000E+00 0. -1.
         22    1    3    3    0    0  0.12451515113E+02  0.52012150960E+00  0.20008603709E+02  0.23572335001E+02  0.00000000000E+00 0. -1.
         22    1    3    3    0    0 -0.37988768016E+02  0.10012691951E+03 -0.15117376705E+03  0.18526212336E+03  0.00000000000E+00 0. -1.
</event>
<event>
 7    1  0.6508013E-006  0.4885452E+02  0.7818608E-02  0.1476851E+00
          2   -1    0    0  502    0  0.00000000000E+00  0.00000000000E+00  0.10815394123E+04  0.10815394123E+04  0.00000000000E+00 0. -1.
          1   -1    0    0  501    0 -0.00000000000E+00 -0.00000000000E+00 -0.87288858274E+02  0.87288858274E+02  0.00000000000E+00 0. -1.
         25    2    1    2    0    0 -0.88927487149E+02 -0.39299307407E+01  0.86683824600E+02  0.17623024572E+03  0.12497788497E+03 0.  0.
          2    1    1    2  501    0  0.40668418641E+02  0.19869517193E+01 -0.32002461952E+02  0.51788278818E+02  0.00000000000E+00 0. -1.
          1    1    1    2  502    0  0.48259068507E+02  0.19429790214E+01  0.93956919140E+03  0.94080974607E+03  0.00000000000E+00 0. -1.
         22    1    3    3    0    0 -0.41770620154E+02  0.34387556094E+02  0.10029935497E+03  0.11396161341E+03  0.00000000000E+00 0. -1.
         22    1    3    3    0    0 -0.47156866995E+02 -0.38317486834E+02 -0.13615530374E+02  0.62268632308E+02  0.00000000000E+00 0. -1.
</event>
<event>
 7    1  0.6508013E-006  0.6646716E+02  0.7818608E-02  0.1529774E+00
          2   -1    0    0  502    0  0.00000000000E+00  0.00000000000E+00  0.39317060360E+03  0.39317060360E+03  0.00000000000E+00 0. -1.
          1   -1    0    0  501    0 -0.00000000000E+00 -0.00000000000E+00 -0.23569571362E+03  0.23569571362E+03  0.00000000000E+00 0. -1.
         25    2    1    2    0    0  0.21475291757E+02 -0.71854076498E+02  0.91206073344E+02  0.17195240650E+03  0.12499954328E+03 0.  0.
          2    1    1    2  501    0 -0.19942105230E+02  0.60363577728E+01 -0.19060355540E+03  0.19173899058E+03  0.00000000000E+00 0. -1.
          1    1    1    2  502    0 -0.15331865270E+01  0.65817718725E+02  0.25687237204E+03  0.26517492015E+03  0.00000000000E+00 0. -1.
         22    1    3    3    0    0 -0.14150849369E+02 -0.52397726052E+01 -0.27430045619E+02  0.31306695090E+02  0.00000000000E+00 0. -1.
         22    1    3    3    0    0  0.35626141126E+02 -0.66614303893E+02  0.11863611896E+03  0.14064571141E+03  0.00000000000E+00 0. -1.
</event>
<event>
 7    1  0.6508013E-006  0.6526423E+02  0.7818608E-02  0.1405686E+00
          2   -1    0    0  502    0  0.00000000000E+00  0.00000000000E+00  0.53392951489E+03  0.53392951489E+03  0.00000000000E+00 0. -1.
          1   -1    0    0  501    0 -0.00000000000E+00 -0.00000000000E+00 -0.27218268326E+03  0.27218268326E+03  0.00000000000E+00 0. -1.
         25    2    1    2    0    0  0.51723481157E+02 -0.10343908947E+03  0.11155454493E+03  0.20355101104E+03  0.12495452719E+03 0.  0.
          2    1    1    2  501    0 -0.29070682073E+02  0.56807054579E+02 -0.21984026260E+03  0.22891458465E+03  0.00000000000E+00 0. -1.
          1    1    1    2  502    0 -0.22652799084E+02  0.46632034889E+02  0.37003254930E+03  0.37364660246E+03  0.00000000000E+00 0. -1.
         22    1    3    3    0    0  0.12403715297E+02  0.28137594104E+02  0.33982947270E+02  0.45830307224E+02  0.00000000000E+00 0.  1.
         22    1    3    3    0    0  0.39319765860E+02 -0.13157668357E+03  0.77571597661E+02  0.15772070381E+03  0.00000000000E+00 0.  1.
</event>
<event>
 7    1  0.6508013E-006  0.5705986E+02  0.7818608E-02  0.1480311E+00
          2   -1    0    0  502    0  0.00000000000E+00  0.00000000000E+00  0.91078291855E+03  0.91078291855E+03  0.00000000000E+00 0. -1.
          1   -1    0    0  501    0 -0.00000000000E+00 -0.00000000000E+00 -0.26168867799E+03  0.26168867799E+03  0.00000000000E+00 0. -1.
         25    2    1    2    0    0  0.56364211572E+02 -0.29099609681E+02  0.36466985754E+03  0.39068147404E+03  0.12499679009E+03 0.  0.
          2    1    1    2  501    0 -0.28930580255E+02  0.49215314934E+02 -0.24485321997E+03  0.25142041490E+03  0.00000000000E+00 0. -1.
          1    1    1    2  502    0 -0.27433631316E+02 -0.20115705253E+02  0.52927760299E+03  0.53036970761E+03  0.00000000000E+00 0. -1.
         22    1    3    3    0    0  0.13309989866E+02  0.31867922607E+02  0.25910419756E+03  0.26139568764E+03  0.00000000000E+00 0. -1.
         22    1    3    3    0    0  0.43054221706E+02 -0.60967532288E+02  0.10556565998E+03  0.12928578641E+03  0.00000000000E+00 0. -1.
</event>
<event>
 7    1  0.6508013E-006  0.3439784E+02  0.7818608E-02  0.1606817E+00
          2   -1    0    0  502    0  0.00000000000E+00  0.00000000000E+00  0.22878459014E+03  0.22878459014E+03  0.00000000000E+00 0. -1.
          1   -1    0    0  501    0 -0.00000000000E+00 -0.00000000000E+00 -0.26258700675E+03  0.26258700675E+03  0.00000000000E+00 0. -1.
         25    2    1    2    0    0  0.12985150708E+02  0.19288752195E+02 -0.43849395741E+02  0.13449256429E+03  0.12499924096E+03 0.  0.
          2    1    1    2  501    0  0.66726028619E+01 -0.34457888838E+02 -0.17078302710E+03  0.17435226434E+03  0.00000000000E+00 0. -1.
          1    1    1    2  502    0 -0.19657753570E+02  0.15169136643E+02  0.18083000623E+03  0.18252676827E+03  0.00000000000E+00 0. -1.
         22    1    3    3    0    0 -0.14006085032E+02 -0.92789199208E+01 -0.79605651132E+02  0.81359255558E+02  0.00000000000E+00 0.  1.
         22    1    3    3    0    0  0.26991235740E+02  0.28567672116E+02  0.35756255391E+02  0.53133308729E+02  0.00000000000E+00 0.  1.
</event>
<event>
 7    1  0.6508013E-006  0.3481274E+02  0.7818608E-02  0.1615261E+00
          2   -1    0    0  502    0  0.00000000000E+00  0.00000000000E+00  0.21102028333E+03  0.21102028333E+03  0.00000000000E+00 0. -1.
          1   -1    0    0  501    0 -0.00000000000E+00 -0.00000000000E+00 -0.10916815701E+04  0.10916815701E+04  0.00000000000E+00 0. -1.
         25    2    1    2    0    0  0.17790101131E+02 -0.43332566221E+02  0.13075471897E+03  0.18686808220E+03  0.12501473760E+03 0.  0.
          2    1    1    2  501    0  0.78280653849E+01  0.21983356437E+02 -0.10581579529E+04  0.10584152303E+04  0.00000000000E+00 0. -1.
          1    1    1    2  502    0 -0.25618166516E+02  0.21349209784E+02  0.46741947155E+02  0.57418540889E+02  0.00000000000E+00 0. -1.
         22    1    3    3    0    0 -0.86580193098E+01 -0.72100688553E+02  0.12865335474E+03  0.14773339593E+03  0.00000000000E+00 0. -1.
         22    1    3    3    0    0  0.26448120441E+02  0.28768122332E+02  0.21013642291E+01  0.39134686264E+02  0.00000000000E+00 0. -1.
</event>
<event>
 7    1  0.6508013E-006  0.3325857E+02  0.7818608E-02  0.1576813E+00
          2   -1    0    0  502    0  0.00000000000E+00  0.00000000000E+00  0.57023037389E+03  0.57023037389E+03  0.00000000000E+00 0. -1.
          1   -1    0    0  501    0 -0.00000000000E+00 -0.00000000000E+00 -0.12917210901E+04  0.12917210901E+04  0.00000000000E+00 0. -1.
         25    2    1    2    0    0  0.17381983308E+02 -0.59742235284E+02 -0.26410460172E+03  0.29874165552E+03  0.12499627223E+03 0.  0.
          2    1    1    2  501    0 -0.15601840284E+02  0.26579871908E+02 -0.10095638938E+04  0.10100342384E+04  0.00000000000E+00 0. -1.
          1    1    1    2  502    0 -0.17801430241E+01  0.33162363375E+02  0.55217777937E+03  0.55317557004E+03  0.00000000000E+00 0. -1.
         22    1    3    3    0    0  0.24648509287E+02 -0.60519677089E+02 -0.27662822847E+03  0.28424172303E+03  0.00000000000E+00 0.  1.
         22    1    3    3    0    0 -0.72665259785E+01  0.77744180499E+00  0.12523626742E+02  0.14499932494E+02  0.00000000000E+00 0.  1.
</event>
<event>
 7    1  0.6508013E-006  0.4074088E+02  0.7818608E-02  0.1542359E+00
          2   -1    0    0  502    0  0.00000000000E+00  0.00000000000E+00  0.14808531916E+04  0.14808531916E+04  0.00000000000E+00 0. -1.
          1   -1    0    0  501    0 -0.00000000000E+00 -0.00000000000E+00 -0.13975828408E+03  0.13975828408E+03  0.00000000000E+00 0. -1.
         25    2    1    2    0    0 -0.72646647736E+01  0.12051994340E+02  0.54614303149E+03  0.56044151887E+03  0.12499783719E+03 0.  0.
          2    1    1    2  501    0 -0.30087152955E+02  0.86489222698E+01 -0.13026202793E+03  0.13397102877E+03  0.00000000000E+00 0. -1.
          1    1    1    2  502    0  0.37351817729E+02 -0.20700916610E+02  0.92521390400E+03  0.92619892809E+03  0.00000000000E+00 0. -1.
         22    1    3    3    0    0  0.41849179426E+02  0.51690484005E+01  0.69976832726E+02  0.81699632792E+02  0.00000000000E+00 0. -1.
         22    1    3    3    0    0 -0.49113844200E+02  0.68829459393E+01  0.47616619877E+03  0.47874188608E+03  0.00000000000E+00 0. -1.
</event>
<event>
 7    1  0.6508013E-006  0.7540583E+02  0.7818608E-02  0.1397901E+00
          2   -1    0    0  502    0  0.00000000000E+00  0.00000000000E+00  0.35531768179E+03  0.35531768179E+03  0.00000000000E+00 0. -1.
          1   -1    0    0  501    0 -0.00000000000E+00 -0.00000000000E+00 -0.10817659055E+04  0.10817659055E+04  0.00000000000E+00 0. -1.
         25    2    1    2    0    0 -0.16221131087E+02 -0.36475290484E+02 -0.46145308874E+03  0.47974757962E+03  0.12500086053E+03 0.  0.
          2    1    1    2  501    0  0.36914544211E+02  0.79469983723E+02 -0.60635688966E+03  0.61265556354E+03  0.00000000000E+00 0. -1.
          1    1    1    2  502    0 -0.20693413124E+02 -0.42994693238E+02  0.34136175470E+03  0.34468044413E+03  0.00000000000E+00 0. -1.
         22    1    3    3    0    0  0.27580893141E+02 -0.66659212665E+02 -0.33283447076E+03  0.34056268326E+03  0.00000000000E+00 0.  1.
         22    1    3    3    0    0 -0.43802024229E+02  0.30183922181E+02 -0.12861861798E+03  0.13918489636E+03  0.00000000000E+00 0.  1.
</event>
<event>
 7    1  0.6508013E-006  0.1545747E+03  0.7818608E-02  0.1243369E+00
          2   -1    0    0  502    0  0.00000000000E+00  0.00000000000E+00  0.43809638379E+03  0.43809638379E+03  0.00000000000E+00 0. -1.
          1   -1    0    0  501    0 -0.00000000000E+00 -0.00000000000E+00 -0.19560840033E+04  0.19560840033E+04  0.00000000000E+00 0. -1.
         25    2    1    2    0    0 -0.17039918622E+03  0.91871934764E+02 -0.14179896727E+03  0.27057131457E+03  0.12500221633E+03 0.  0.
          2    1    1    2  501    0  0.85729522362E+02  0.35796674567E+02 -0.17329026702E+04  0.17353912001E+04  0.00000000000E+00 0. -1.
          1    1    1    2  502    0  0.84669663854E+02 -0.12766860933E+03  0.35671401802E+03  0.38821787238E+03  0.00000000000E+00 0. -1.
         22    1    3    3    0    0 -0.68117310538E+02 -0.10227726638E+02 -0.11241211989E+01  0.68890043080E+02  0.00000000000E+00 0.  1.
         22    1    3    3    0    0 -0.10228187568E+03  0.10209966140E+03 -0.14067484607E+03  0.20168127149E+03  0.00000000000E+00 0.  1.
</event>
<event>
 7    1  0.6508013E-006  0.6377050E+02  0.7818608E-02  0.1475853E+00
          2   -1    0    0  502    0  0.00000000000E+00  0.00000000000E+00  0.19729030562E+04  0.19729030562E+04  0.00000000000E+00 0. -1.
          1   -1    0    0  501    0 -0.00000000000E+00 -0.00000000000E+00 -0.12011203893E+03  0.12011203893E+03  0.00000000000E+00 0. -1.
         25    2    1    2    0    0 -0.31323561169E+02  0.13719538077E+02  0.13545603241E+03  0.18746474846E+03  0.12500121595E+03 0.  0.
          2    1    1    2  501    0 -0.31397754903E+02  0.10438397065E+01 -0.90895993652E+02  0.96171670861E+02  0.00000000000E+00 0. -1.
          1    1    1    2  502    0  0.62721316072E+02 -0.14763377784E+02  0.18082309785E+04  0.18093786758E+04  0.00000000000E+00 0. -1.
         22    1    3    3    0    0  0.11974688819E+02 -0.46421560633E+02  0.23979138779E+02  0.53603671147E+02  0.00000000000E+00 0.  1.
         22    1    3    3    0    0 -0.43298249987E+02  0.60141098710E+02  0.11147689364E+03  0.13386107732E+03  0.00000000000E+00 0.  1.
</event>
<event>
 7    1  0.6508013E-006  0.6815690E+02  0.7818608E-02  0.1377326E+00
          2   -1    0    0  502    0  0.00000000000E+00  0.00000000000E+00  0.17578867858E+04  0.17578867858E+04  0.00000000000E+00 0. -1.
          1   -1    0    0  501    0 -0.00000000000E+00 -0.00000000000E+00 -0.15933953448E+02  0.15933953448E+02  0.00000000000E+00 0. -1.
         25    2    1    2    0    0  0.99322333483E+02  0.10657754208E+02  0.95785260227E+03  0.97112560188E+03  0.12499925319E+03 0.  0.
          2    1    1    2  501    0 -0.56353073456E+02  0.34476798893E+02  0.13184865696E+03  0.14747334298E+03  0.00000000000E+00 0. -1.
          1    1    1    2  502    0 -0.42969260027E+02 -0.45134553101E+02  0.65225157313E+03  0.65522179439E+03  0.00000000000E+00 0. -1.
         22    1    3    3    0    0  0.69985612784E+01  0.26533737062E+02  0.61769475265E+03  0.61830399200E+03  0.00000000000E+00 0.  1.
         22    1    3    3    0    0  0.92323772204E+02 -0.15875982854E+02  0.34015784961E+03  0.35282160988E+03  0.00000000000E+00 0.  1.
</event>
<event>
 7    1  0.6508013E-006  0.7938418E+02  0.7818608E-02  0.1350860E+00
          2   -1    0    0  502    0  0.00000000000E+00  0.00000000000E+00  0.10119111638E+04  0.10119111638E+04  0.00000000000E+00 0. -1.
          1   -1    0    0  501    0 -0.00000000000E+00 -0.00000000000E+00 -0.63648041572E+03  0.63648041572E+03  0.00000000000E+00 0. -1.
         25    2    1    2    0    0 -0.25330955665E+02  0.59030143938E+02  0.51955541491E+02  0.14983782796E+03  0.12500312472E+03 0.  0.
          2    1    1    2  501    0  0.65833924837E+02  0.10963980350E+02 -0.58383976277E+03  0.58764205356E+03  0.00000000000E+00 0. -1.
          1    1    1    2  502    0 -0.40502969172E+02 -0.69994124287E+02  0.90731496931E+03  0.91091169796E+03  0.00000000000E+00 0. -1.
         22    1    3    3    0    0  0.26926151896E+02  0.74033406897E+02  0.53870643162E+02  0.95435890458E+02  0.00000000000E+00 0.  1.
         22    1    3    3    0    0 -0.52257107561E+02 -0.15003262959E+02 -0.19151016708E+01  0.54401937507E+02  0.00000000000E+00 0.  1.
</event>
<event>
 7    1  0.6508013E-006  0.8984026E+02  0.7818608E-02  0.1400299E+00
          2   -1    0    0  502    0  0.00000000000E+00  0.00000000000E+00  0.47985966577E+03  0.47985966577E+03  0.00000000000E+00 0. -1.
          1   -1    0    0  501    0 -0.00000000000E+00 -0.00000000000E+00 -0.16390164238E+04  0.16390164238E+04  0.00000000000E+00 0. -1.
         25    2    1    2    0    0  0.15592565479E+02 -0.12522395487E+03  0.12935231966E+02  0.17809005661E+03  0.12499832426E+03 0.  0.
          2    1    1    2  501    0  0.15726579847E+01  0.39263498422E+02 -0.15511889704E+04  0.15516866041E+04  0.00000000000E+00 0. -1.
          1    1    1    2  502    0 -0.17165223464E+02  0.85960456445E+02  0.37909698039E+03  0.38909942883E+03  0.00000000000E+00 0. -1.
         22    1    3    3    0    0  0.47545590696E+02 -0.10514577900E+02 -0.22798712521E+02  0.53767284065E+02  0.00000000000E+00 0. -1.
         22    1    3    3    0    0 -0.31953025217E+02 -0.11470937697E+03  0.35733944487E+02  0.12432277255E+03  0.00000000000E+00 0. -1.
</event>
<event>
 7    1  0.6508013E-006  0.9204289E+02  0.7818608E-02  0.1320938E+00
          2   -1    0    0  502    0  0.00000000000E+00  0.00000000000E+00  0.75937356760E+02  0.75937356760E+02  0.00000000000E+00 0. -1.
          1   -1    0    0  501    0 -0.00000000000E+00 -0.00000000000E+00 -0.16921056182E+04  0.16921056182E+04  0.00000000000E+00 0. -1.
         25    2    1    2    0    0 -0.29114144757E+02  0.14534957841E+02 -0.53653420429E+03  0.55186372510E+03  0.12500288112E+03 0.  0.
          2    1    1    2  501    0 -0.64277796668E+02 -0.38093991559E+02 -0.11120467984E+04  0.11145541122E+04  0.00000000000E+00 0. -1.
          1    1    1    2  502    0  0.93391941425E+02  0.23559033717E+02  0.32412741257E+02  0.10162513758E+03  0.00000000000E+00 0. -1.
         22    1    3    3    0    0  0.37145072389E+02  0.15268084095E+02 -0.70451955783E+02  0.81094690753E+02  0.00000000000E+00 0.  1.
         22    1    3    3    0    0 -0.66259217146E+02 -0.73312625407E+00 -0.46608224851E+03  0.47076903435E+03  0.00000000000E+00 0.  1.
</event>
<event>
 7    1  0.6508013E-006  0.9938190E+02  0.7818608E-02  0.1349610E+00
          2   -1    0    0  502    0  0.00000000000E+00  0.00000000000E+00  0.38210116287E+03  0.38210116287E+03  0.00000000000E+00 0. -1.
          1   -1    0    0  501    0 -0.00000000000E+00 -0.00000000000E+00 -0.16294404082E+04  0.16294404082E+04  0.00000000000E+00 0. -1.
         25    2    1    2    0    0 -0.16134282623E+02  0.15166306978E+03  0.27402993680E+02  0.19909302422E+03  0.12500042569E+03 0.  0.
          2    1    1    2  501    0  0.10989627566E+02 -0.98027124546E+02 -0.15393010978E+04  0.15424584140E+04  0.00000000000E+00 0. -1.
          1    1    1    2  502    0  0.51446550569E+01 -0.53635945233E+02  0.26455885879E+03  0.26999013289E+03  0.00000000000E+00 0. -1.
         22    1    3    3    0    0  0.33195401823E+02  0.74750567899E+02 -0.34455065583E+02  0.88750964207E+02  0.00000000000E+00 0. -1.
         22    1    3    3    0    0 -0.49329684446E+02  0.76912501880E+02  0.61858059263E+02  0.11034206002E+03  0.00000000000E+00 0. -1.
</event>
<event>
 7    1  0.6508013E-006  0.7502096E+02  0.7818608E-02  0.1452354E+00
          2   -1    0    0  502    0  0.00000000000E+00  0.00000000000E+00  0.11005812940E+04  0.11005812940E+04  0.00000000000E+00 0. -1.
          1   -1    0    0  501    0 -0.00000000000E+00 -0.00000000000E+00 -0.81857345937E+02  0.81857345937E+02  0.00000000000E+00 0. -1.
         25    2    1    2    0    0 -0.74492131054E+02  0.56513330146E+02  0.66671042142E+03  0.68474114952E+03  0.12499928700E+03 0.  0.
          2    1    1    2  501    0  0.98985778555E+01 -0.30055344648E+02 -0.66371944067E+02  0.73529181586E+02  0.00000000000E+00 0. -1.
          1    1    1    2  502    0  0.64593553198E+02 -0.26457985498E+02  0.41838547069E+03  0.42416830880E+03  0.00000000000E+00 0. -1.
         22    1    3    3    0    0 -0.29990350407E+02  0.92743504214E+01  0.26023834002E+02  0.40775907463E+02  0.00000000000E+00 0. -1.
         22    1    3    3    0    0 -0.44501780647E+02  0.47238979725E+02  0.64068658742E+03  0.64396524206E+03  0.00000000000E+00 0. -1.
</event>
<event>
 7    1  0.6508013E-006  0.1113395E+03  0.7818608E-02  0.1411874E+00
          2   -1    0    0  502    0  0.00000000000E+00  0.00000000000E+00  0.10385243191E+04  0.10385243191E+04  0.00000000000E+00 0. -1.
          1   -1    0    0  501    0 -0.00000000000E+00 -0.00000000000E+00 -0.14306718404E+03  0.14306718404E+03  0.00000000000E+00 0. -1.
         25    2    1    2    0    0 -0.90395274832E+02  0.23843741521E+02  0.57868779376E+03  0.59936932880E+03  0.12499679972E+03 0.  0.
          2    1    1    2  501    0  0.99753208608E+02 -0.51243756981E+02 -0.10845691728E+03  0.15601130780E+03  0.00000000000E+00 0. -1.
          1    1    1    2  502    0 -0.93579337767E+01  0.27400015460E+02  0.42522625862E+03  0.42621086658E+03  0.00000000000E+00 0. -1.
         22    1    3    3    0    0  0.26519850708E+02  0.28025052270E+02  0.16553993947E+03  0.16997699138E+03  0.00000000000E+00 0. -1.
         22    1    3    3    0    0 -0.11691512554E+03 -0.41813107482E+01  0.41314785428E+03  0.42939233742E+03  0.00000000000E+00 0. -1.
</event>
<event>
 7    1  0.6508013E-006  0.9756566E+02  0.7818608E-02  0.1348432E+00
          2   -1    0    0  502    0  0.00000000000E+00  0.00000000000E+00  0.13194720721E+04  0.13194720721E+04  0.00000000000E+00 0. -1.
          1   -1    0    0  501    0 -0.00000000000E+00 -0.00000000000E+00 -0.30750390788E+03  0.30750390788E+03  0.00000000000E+00 0. -1.
         25    2    1    2    0    0 -0.55558220226E+02 -0.23178475061E+02  0.23731339892E+03  0.27489376307E+03  0.12499989651E+03 0.  0.
          2    1    1    2  501    0 -0.47609820916E+02  0.28407242637E+02 -0.28351369917E+03  0.28888351303E+03  0.00000000000E+00 0. -1.
          1    1    1    2  502    0  0.10316804114E+03 -0.52287675757E+01  0.10581684645E+04  0.10631987039E+04  0.00000000000E+00 0. -1.
         22    1    3    3    0    0 -0.14082529850E+02  0.48034594068E+02  0.52500390406E+02  0.72539167813E+02  0.00000000000E+00 0.  1.
         22    1    3    3    0    0 -0.41475690375E+02 -0.71213069129E+02  0.18481300852E+03  0.20235459526E+03  0.00000000000E+00 0.  1.
</event>
<event>
 7    1  0.6508013E-006  0.1686520E+03  0.7818608E-02  0.1344347E+00
          2   -1    0    0  502    0  0.00000000000E+00  0.00000000000E+00  0.60258192642E+03  0.60258192642E+03  0.00000000000E+00 0. -1.
          1   -1    0    0  501    0 -0.00000000000E+00 -0.00000000000E+00 -0.13376888517E+04  0.13376888517E+04  0.00000000000E+00 0. -1.
         25    2    1    2    0    0 -0.44862278888E+02 -0.17331864143E+03 -0.47942351887E+03  0.52680670486E+03  0.12500567309E+03 0.  0.
          2    1    1    2  501    0  0.12635920096E+02  0.16527006293E+03 -0.82585570733E+03  0.84232506167E+03  0.00000000000E+00 0. -1.
          1    1    1    2  502    0  0.32226358792E+02  0.80485784948E+01  0.57017230093E+03  0.57113901159E+03  0.00000000000E+00 0. -1.
         22    1    3    3    0    0 -0.14796025764E+02 -0.11485315958E+03 -0.14294608532E+03  0.18396671969E+03  0.00000000000E+00 0.  1.
         22    1    3    3    0    0 -0.30066253124E+02 -0.58465481848E+02 -0.33647743355E+03  0.34283998517E+03  0.00000000000E+00 0.  1.
</event>
<event>
 7    1  0.6508013E-006  0.1027969E+03  0.7818608E-02  0.1374559E+00
          2   -1    0    0  502    0  0.00000000000E+00  0.00000000000E+00  0.32706150906E+04  0.32706150906E+04  0.00000000000E+00 0. -1.
          1   -1    0    0  501    0 -0.00000000000E+00 -0.00000000000E+00 -0.40451783868E+02  0.40451783868E+02  0.00000000000E+00 0. -1.
         25    2    1    2    0    0  0.11512210893E+03  0.31118301687E+02  0.79807377982E+03  0.81655901956E+03  0.12500170286E+03 0.  0.
          2    1    1    2  501    0 -0.13853026042E+02 -0.39932311210E+02 -0.15342735762E+02  0.44965490654E+02  0.00000000000E+00 0. -1.
          1    1    1    2  502    0 -0.10126908289E+03  0.88140095231E+01  0.24474322627E+04  0.24495423643E+04  0.00000000000E+00 0. -1.
         22    1    3    3    0    0  0.48831776230E+02  0.30202629877E+02  0.99745797603E+02  0.11509111764E+03  0.00000000000E+00 0. -1.
         22    1    3    3    0    0  0.66290332703E+02  0.91567181047E+00  0.69832798222E+03  0.70146790192E+03  0.00000000000E+00 0. -1.
</event>
<event>
 7    1  0.6508013E-006  0.7477216E+02  0.7818608E-02  0.1349293E+00
          2   -1    0    0  502    0  0.00000000000E+00  0.00000000000E+00  0.43232196470E+03  0.43232196470E+03  0.00000000000E+00 0. -1.
          1   -1    0    0  501    0 -0.00000000000E+00 -0.00000000000E+00 -0.15156471242E+03  0.15156471242E+03  0.00000000000E+00 0. -1.
         25    2    1    2    0    0 -0.55454140181E+01  0.17730378212E+02 -0.31962379197E+02  0.13034891482E+03  0.12499651188E+03 0.  0.
          2    1    1    2  501    0 -0.68620830828E+02 -0.29699453495E+02 -0.45498226814E+02  0.87526936452E+02  0.00000000000E+00 0. -1.
          1    1    1    2  502    0  0.74166244846E+02  0.11969075283E+02  0.35821785829E+03  0.36601082585E+03  0.00000000000E+00 0. -1.
         22    1    3    3    0    0 -0.13086981306E+02 -0.26764664595E+02 -0.66927469799E+02  0.73259146625E+02  0.00000000000E+00 0. -1.
         22    1    3    3    0    0  0.75415672877E+01  0.44495042807E+02  0.34965090602E+02  0.57089768193E+02  0.00000000000E+00 0. -1.
</event>
<event>
 7    1  0.6508013E-006  0.2381000E+03  0.7818608E-02  0.1162497E+00
          2   -1    0    0  502    0  0.00000000000E+00  0.00000000000E+00  0.76009651298E+03  0.76009651298E+03  0.00000000000E+00 0. -1.
          1   -1    0    0  501    0 -0.00000000000E+00 -0.00000000000E+00 -0.46304368881E+03  0.46304368881E+03  0.00000000000E+00 0. -1.
         25    2    1    2    0    0  0.50353240050E+02  0.43899373169E+02 -0.89621024149E+02  0.16768687107E+03  0.12499742002E+03 0.  0.
          2    1    1    2  501    0 -0.95124809656E+02 -0.27775215153E+03 -0.24373551269E+03  0.38157828455E+03  0.00000000000E+00 0. -1.
          1    1    1    2  502    0  0.44771569606E+02  0.23385277836E+03  0.63040936102E+03  0.67387504617E+03  0.00000000000E+00 0. -1.
         22    1    3    3    0    0  0.48732611038E+02  0.16639511899E+02  0.19603577982E+02  0.55100281347E+02  0.00000000000E+00 0. -1.
         22    1    3    3    0    0  0.16206290115E+01  0.27259861270E+02 -0.10922460213E+03  0.11258658972E+03  0.00000000000E+00 0. -1.
</event>
<event>
 7    1  0.6508013E-006  0.1925371E+03  0.7818608E-02  0.1321536E+00
          2   -1    0    0  502    0  0.00000000000E+00  0.00000000000E+00  0.72073598657E+03  0.72073598657E+03  0.00000000000E+00 0. -1.
          1   -1    0    0  501    0 -0.00000000000E+00 -0.00000000000E+00 -0.16182853408E+04  0.16182853408E+04  0.00000000000E+00 0. -1.
         25    2    1    2    0    0  0.13108185830E+03 -0.13234785028E+03  0.46268995481E+02  0.22904546971E+03  0.12499040043E+03 0.  0.
          2    1    1    2  501    0  0.28276553833E+02  0.21511822793E+02 -0.15105269162E+04  0.15109447001E+04  0.00000000000E+00 0. -1.
          1    1    1    2  502    0 -0.15935841214E+03  0.11083602748E+03  0.56670856648E+03  0.59903115764E+03  0.00000000000E+00 0. -1.
         22    1    3    3    0    0  0.94089352001E+02 -0.13072074459E+03  0.79210144289E+02  0.17948528125E+03  0.00000000000E+00 0.  1.
         22    1    3    3    0    0  0.36992506302E+02 -0.16271056896E+01 -0.32941148808E+02  0.49560188460E+02  0.00000000000E+00 0.  1.
</event>
<event>
 7    1  0.6508013E-006  0.7363640E+02  0.7818608E-02  0.1407635E+00
          2   -1    0    0  502    0  0.00000000000E+00  0.00000000000E+00  0.92726653716E+03  0.92726653716E+03  0.00000000000E+00 0. -1.
          1   -1    0    0  501    0 -0.00000000000E+00 -0.00000000000E+00 -0.13053710768E+04  0.13053710768E+04  0.00000000000E+00 0. -1.
         25    2    1    2    0    0 -0.11516348791E+03 -0.26685113012E+02  0.93786719543E+02  0.19594861139E+03  0.12500074136E+03 0.  0.
          2    1    1    2  501    0  0.70296937793E+02  0.20794916014E+02 -0.12525632299E+04  0.12547066322E+04  0.00000000000E+00 0. -1.
          1    1    1    2  502    0  0.44866550114E+02  0.58901969982E+01  0.78067197070E+03  0.78198237038E+03  0.00000000000E+00 0. -1.
         22    1    3    3    0    0 -0.60250966157E+02 -0.24489435664E+02 -0.21280911585E+02  0.68430903690E+02  0.00000000000E+00 0. -1.
         22    1    3    3    0    0 -0.54912521750E+02 -0.21956773479E+01  0.11506763113E+03  0.12751770770E+03  0.00000000000E+00 0. -1.
</event>
<event>
 7    1  0.6508013E-006  0.1332510E+03  0.7818608E-02  0.1265428E+00
          2   -1    0    0  502    0  0.00000000000E+00  0.00000000000E+00  0.14102967259E+04  0.14102967259E+04  0.00000000000E+00 0. -1.
          1   -1    0    0  501    0 -0.00000000000E+00 -0.00000000000E+00 -0.13148791251E+03  0.13148791251E+03  0.00000000000E+00 0. -1.
         25    2    1    2    0    0  0.17989771601E+03 -0.34703299730E+02  0.32181814430E+03  0.39084769502E+03  0.12500998146E+03 0.  0.
          2    1    1    2  501    0 -0.54812552641E+02  0.67036682673E+02 -0.72766050755E+02  0.11310716553E+03  0.00000000000E+00 0. -1.
          1    1    1    2  502    0 -0.12508516336E+03 -0.32333382943E+02  0.10297567198E+04  0.10378297778E+04  0.00000000000E+00 0. -1.
         22    1    3    3    0    0 -0.43455829936E+01 -0.35103715646E+02  0.33690931363E+02  0.48849092108E+02  0.00000000000E+00 0. -1.
         22    1    3    3    0    0  0.18424329900E+03  0.40041591547E+00  0.28812721293E+03  0.34199860291E+03  0.00000000000E+00 0. -1.
</event>
<event>
 7    1  0.6508013E-006  0.1836132E+03  0.7818608E-02  0.1277244E+00
          2   -1    0    0  502    0  0.00000000000E+00  0.00000000000E+00  0.12292567303E+04  0.12292567303E+04  0.00000000000E+00 0. -1.
          1   -1    0    0  501    0 -0.00000000000E+00 -0.00000000000E+00 -0.81990827761E+02  0.81990827761E+02  0.00000000000E+00 0. -1.
         25    2    1    2    0    0  0.13942856606E+03 -0.36537313412E+02  0.52918755096E+03  0.56252927975E+03  0.12499770469E+03 0.  0.
          2    1    1    2  501    0 -0.17922749789E+03  0.76032986194E+02  0.84555609395E+02  0.21225730157E+03  0.00000000000E+00 0. -1.
          1    1    1    2  502    0  0.39798931822E+02 -0.39495672783E+02  0.53352274215E+03  0.53646097671E+03  0.00000000000E+00 0. -1.
         22    1    3    3    0    0 -0.22295614114E+02 -0.68439130855E+01  0.38372948056E+02  0.44904528698E+02  0.00000000000E+00 0.  1.
         22    1    3    3    0    0  0.16172418018E+03 -0.29693400326E+02  0.49081460291E+03  0.51762475106E+03  0.00000000000E+00 0.  1.
</event>
<event>
 7    1  0.6508013E-006  0.2216796E+03  0.7818608E-02  0.1353412E+00
          2   -1    0    0  502    0  0.00000000000E+00  0.00000000000E+00  0.10315484638E+04  0.10315484638E+04  0.00000000000E+00 0. -1.
          1   -1    0    0  501    0 -0.00000000000E+00 -0.00000000000E+00 -0.50994922398E+03  0.50994922398E+03  0.00000000000E+00 0. -1.
         25    2    1    2    0    0 -0.10811881986E+03  0.16966088179E+03 -0.52255062028E+02  0.24255196760E+03  0.12500548572E+03 0.  0.
          2    1    1    2  501    0 -0.18042084415E+02  0.14880476834E+02 -0.34880701221E+03  0.34959015600E+03  0.00000000000E+00 0. -1.
          1    1    1    2  502    0  0.12616090427E+03 -0.18454135862E+03  0.92266131408E+03  0.94935556422E+03  0.00000000000E+00 0. -1.
         22    1    3    3    0    0 -0.37477867810E+02  0.13388302129E+03  0.13420509668E+02  0.13967592507E+03  0.00000000000E+00 0.  1.
         22    1    3    3    0    0 -0.70640952050E+02  0.35777860500E+02 -0.65675571696E+02  0.10287604253E+03  0.00000000000E+00 0.  1.
</event>
<event>
 7    1  0.6508013E-006  0.8471229E+02  0.7818608E-02  0.1412606E+00
          2   -1    0    0  502    0  0.00000000000E+00  0.00000000000E+00  0.23101577188E+03  0.23101577188E+03  0.00000000000E+00 0. -1.
          1   -1    0    0  501    0 -0.00000000000E+00 -0.00000000000E+00 -0.20374927227E+03  0.20374927227E+03  0.00000000000E+00 0. -1.
         25    2    1    2    0    0  0.71616303267E+02  0.61363391777E+02  0.73189298294E+02  0.17284685554E+03  0.12500000537E+03 0.  0.
          2    1    1    2  501    0 -0.80798781584E+02 -0.24655636517E+02 -0.13831819471E+03  0.16207487931E+03  0.00000000000E+00 0. -1.
          1    1    1    2  502    0  0.91824783179E+01 -0.36707755260E+02  0.92395396021E+02  0.99843309291E+02  0.00000000000E+00 0. -1.
         22    1    3    3    0    0  0.78403781811E+02  0.92531574804E+02  0.71749493873E+02  0.14091570249E+03  0.00000000000E+00 0.  1.
         22    1    3    3    0    0 -0.67874785448E+01 -0.31168183027E+02  0.14398044209E+01  0.31931153048E+02  0.00000000000E+00 0.  1.
</event>
<event>
 7    1  0.6508013E-006  0.3471984E+02  0.7818608E-02  0.1559966E+00
          2   -1    0    0  502    0  0.00000000000E+00  0.00000000000E+00  0.14053172438E+04  0.14053172438E+04  0.00000000000E+00 0. -1.
          1   -1    0    0  501    0 -0.00000000000E+00 -0.00000000000E+00 -0.99888540703E+01  0.99888540703E+01  0.00000000000E+00 0. -1.
         25    2    1    2    0    0  0.25523503160E+01  0.16808599477E+02  0.67860594528E+03  0.69022862044E+03  0.12498190269E+03 0.  0.
          2    1    1    2  501    0  0.29269030030E+02 -0.24810470914E+02  0.94529026488E+02  0.10201947086E+03  0.00000000000E+00 0. -1.
          1    1    1    2  502    0 -0.31821380346E+02  0.80018714372E+01  0.62219341798E+03  0.62305800659E+03  0.00000000000E+00 0. -1.
         22    1    3    3    0    0 -0.51385971527E+02 -0.13143077400E+02  0.17510551062E+03  0.18296228683E+03  0.00000000000E+00 0.  1.
         22    1    3    3    0    0  0.53938321843E+02  0.29951676877E+02  0.50350043466E+03  0.50726633361E+03  0.00000000000E+00 0.  1.
</event>
<event>
 7    1  0.6508013E-006  0.1041388E+03  0.7818608E-02  0.1334260E+00
          2   -1    0    0  502    0  0.00000000000E+00  0.00000000000E+00  0.24763888227E+04  0.24763888227E+04  0.00000000000E+00 0. -1.
          1   -1    0    0  501    0 -0.00000000000E+00 -0.00000000000E+00 -0.16919758675E+03  0.16919758675E+03  0.00000000000E+00 0. -1.
         25    2    1    2    0    0 -0.94402369663E+02 -0.27992005322E+02  0.36528890367E+03  0.39844270475E+03  0.12500098425E+03 0.  0.
          2    1    1    2  501    0 -0.69746725128E+01  0.58295183466E+02 -0.14558442849E+03  0.15697706931E+03  0.00000000000E+00 0. -1.
          1    1    1    2  502    0  0.10137704218E+03 -0.30303178144E+02  0.20874867608E+04  0.20901666354E+04  0.00000000000E+00 0. -1.
         22    1    3    3    0    0 -0.25005462442E+01  0.42588855531E+02  0.83765930248E+02  0.94004225529E+02  0.00000000000E+00 0. -1.
         22    1    3    3    0    0 -0.91901823419E+02 -0.70580860852E+02  0.28152297342E+03  0.30443847922E+03  0.00000000000E+00 0. -1.
</event>
<event>
 7    1  0.6508013E-006  0.9542952E+02  0.7818608E-02  0.1291912E+00
          2   -1    0    0  502    0  0.00000000000E+00  0.00000000000E+00  0.29400487322E+03  0.29400487322E+03  0.00000000000E+00 0. -1.
          1   -1    0    0  501    0 -0.00000000000E+00 -0.00000000000E+00 -0.41979064925E+03  0.41979064925E+03  0.00000000000E+00 0. -1.
         25    2    1    2    0    0 -0.17235059439E+02 -0.66391939606E+02  0.10795968504E+03  0.17884522299E+03  0.12500153309E+03 0.  0.
          2    1    1    2  501    0 -0.93919661985E+02  0.93209576200E+00 -0.34933513909E+03  0.36174135941E+03  0.00000000000E+00 0. -1.
          1    1    1    2  502    0  0.11115472142E+03  0.65459843844E+02  0.11558967803E+03  0.17320894006E+03  0.00000000000E+00 0. -1.
         22    1    3    3    0    0 -0.70806835023E+02 -0.35503420264E+02  0.73479665480E+02  0.10804333379E+03  0.00000000000E+00 0.  1.
         22    1    3    3    0    0  0.53571775584E+02 -0.30888519342E+02  0.34480019556E+02  0.70801889205E+02  0.00000000000E+00 0.  1.
</event>
<event>
 7    1  0.6508013E-006  0.7562155E+02  0.7818608E-02  0.1384765E+00
          2   -1    0    0  502    0  0.00000000000E+00  0.00000000000E+00  0.38274337855E+04  0.38274337855E+04  0.00000000000E+00 0. -1.
          1   -1    0    0  501    0 -0.00000000000E+00 -0.00000000000E+00 -0.11731920553E+03  0.11731920553E+03  0.00000000000E+00 0. -1.
         25    2    1    2    0    0 -0.65935176569E+02  0.22616466389E+02  0.58245949128E+03  0.59978514829E+03  0.12499685220E+03 0.  0.
          2    1    1    2  501    0  0.28533128267E+02  0.44503549741E+02 -0.10174208583E+03  0.11465669356E+03  0.00000000000E+00 0. -1.
          1    1    1    2  502    0  0.37402048302E+02 -0.67120016131E+02  0.32293971745E+04  0.32303111492E+04  0.00000000000E+00 0. -1.
         22    1    3    3    0    0  0.14357213780E+02 -0.24939778035E+02  0.39536095432E+02  0.48900152944E+02  0.00000000000E+00 0. -1.
         22    1    3    3    0    0 -0.80292390349E+02  0.47556244425E+02  0.54292339585E+03  0.55088499534E+03  0.00000000000E+00 0. -1.
</event>
<event>
 7    1  0.6508013E-006  0.1317074E+03  0.7818608E-02  0.1272528E+00
          2   -1    0    0  502    0  0.00000000000E+00  0.00000000000E+00  0.40438152445E+03  0.40438152445E+03  0.00000000000E+00 0. -1.
          1   -1    0    0  501    0 -0.00000000000E+00 -0.00000000000E+00 -0.57761520923E+03  0.57761520923E+03  0.00000000000E+00 0. -1.
         25    2    1    2    0    0  0.18689214483E+03  0.68233023351E+02  0.11222210808E+03  0.26039805731E+03  0.12501570875E+03 0.  0.
          2    1    1    2  501    0 -0.76375602269E+02 -0.29252077546E+02 -0.48410147317E+03  0.49096145774E+03  0.00000000000E+00 0. -1.
          1    1    1    2  502    0 -0.11051654256E+03 -0.38980945805E+02  0.19864568030E+03  0.23063721863E+03  0.00000000000E+00 0. -1.
         22    1    3    3    0    0  0.37885186059E+02 -0.33270823920E+02  0.46227636387E+02  0.68404893195E+02  0.00000000000E+00 0. -1.
         22    1    3    3    0    0  0.14900695877E+03  0.10150384727E+03  0.65994471695E+02  0.19199316412E+03  0.00000000000E+00 0. -1.
</event>
<event>
 7    1  0.6508013E-006  0.3469751E+02  0.7818608E-02  0.1586532E+00
          2   -1    0    0  502    0  0.00000000000E+00  0.00000000000E+00  0.75327074944E+03  0.75327074944E+03  0.00000000000E+00 0. -1.
          1   -1    0    0  501    0 -0.00000000000E+00 -0.00000000000E+00 -0.32895648418E+03  0.32895648418E+03  0.00000000000E+00 0. -1.
         25    2    1    2    0    0  0.12197739471E+02  0.76756307139E+01  0.27707988989E+03  0.30431296596E+03  0.12500166285E+03 0.  0.
          2    1    1    2  501    0  0.22792160956E+02 -0.15961683355E+02 -0.31402504196E+03  0.31525542805E+03  0.00000000000E+00 0. -1.
          1    1    1    2  502    0 -0.34989900427E+02  0.82860526415E+01  0.46125941733E+03  0.46265883962E+03  0.00000000000E+00 0. -1.
         22    1    3    3    0    0  0.61824188427E+02  0.14022051204E+02  0.21730707957E+03  0.22636522486E+03  0.00000000000E+00 0. -1.
         22    1    3    3    0    0 -0.49626448956E+02 -0.63464204903E+01  0.59772810318E+02  0.77947741098E+02  0.00000000000E+00 0. -1.
</event>
<event>
 7    1  0.6508013E-006  0.5955716E+02  0.7818608E-02  0.1467665E+00
          2   -1    0    0  502    0  0.00000000000E+00  0.00000000000E+00  0.10800667070E+02  0.10800667070E+02  0.00000000000E+00 0. -1.
          1   -1    0    0  501    0 -0.00000000000E+00 -0.00000000000E+00 -0.21318031781E+04  0.21318031781E+04  0.00000000000E+00 0. -1.
         25    2    1    2    0    0  0.65555815615E+02  0.28332234903E+02 -0.53463267970E+03  0.55367581551E+03  0.12499810392E+03 0.  0.
          2    1    1    2  501    0 -0.16559713149E+02 -0.31586437583E+02 -0.94880553342E+03  0.94947557493E+03  0.00000000000E+00 0. -1.
          1    1    1    2  502    0 -0.48996102465E+02  0.32542026795E+01 -0.63756429789E+03  0.63945245471E+03  0.00000000000E+00 0. -1.
         22    1    3    3    0    0  0.78900340995E+02 -0.15960283204E+01 -0.49925590686E+03  0.50545451986E+03  0.00000000000E+00 0.  1.
         22    1    3    3    0    0 -0.13344525380E+02  0.29928263224E+02 -0.35376772835E+02  0.48221295642E+02  0.00000000000E+00 0.  1.
</event>
<event>
 7    1  0.6508013E-006  0.7206920E+02  0.7818608E-02  0.1382370E+00
          2   -1    0    0  502    0  0.00000000000E+00  0.00000000000E+00  0.33002400960E+03  0.33002400960E+03  0.00000000000E+00 0. -1.
          1   -1    0    0  501    0 -0.00000000000E+00 -0.00000000000E+00 -0.59866459426E+03  0.59866459426E+03  0.00000000000E+00 0. -1.
         25    2    1    2    0    0 -0.10026370170E+03  0.38010112253E+02 -0.70151228588E+02  0.17900812068E+03  0.12500053553E+03 0.  0.
          2    1    1    2  501    0  0.54161299405E+02  0.16293186365E+02 -0.46774974552E+03  0.47115680904E+03  0.00000000000E+00 0. -1.
          1    1    1    2  502    0  0.46102402299E+02 -0.54303298617E+02  0.26926038944E+03  0.27852367415E+03  0.00000000000E+00 0. -1.
         22    1    3    3    0    0 -0.37119545986E+02  0.64910526028E+02  0.77605660446E+01  0.75176216111E+02  0.00000000000E+00 0. -1.
         22    1    3    3    0    0 -0.63144155718E+02 -0.26900413775E+02 -0.77911794633E+02  0.10383190456E+03  0.00000000000E+00 0. -1.
</event>
<event>
 7    1  0.6508013E-006  0.7577896E+02  0.7818608E-02  0.1431271E+00
          2   -1    0    0  502    0  0.00000000000E+00  0.00000000000E+00  0.33593488866E+04  0.33593488866E+04  0.00000000000E+00 0. -1.
          1   -1    0    0  501    0 -0.00000000000E+00 -0.00000000000E+00 -0.32239816976E+02  0.32239816976E+02  0.00000000000E+00 0. -1.
         25    2    1    2    0    0 -0.27339480540E+02 -0.43856818159E+02  0.14654733326E+04  0.14717023403E+04  0.12499928956E+03 0.  0.
          2    1    1    2  501    0  0.63970172452E+02  0.42447291173E+02  0.21967805072E+02  0.79853240079E+02  0.00000000000E+00 0. -1.
          1    1    1    2  502    0 -0.36630691912E+02  0.14095269862E+01  0.18396679319E+04  0.18400331231E+04  0.00000000000E+00 0. -1.
         22    1    3    3    0    0 -0.33717164252E+02 -0.42219457180E+02  0.14639463540E+04  0.14649430901E+04  0.00000000000E+00 0. -1.
         22    1    3    3    0    0  0.63776837116E+01 -0.16373609791E+01  0.15269785448E+01  0.67592502526E+01  0.00000000000E+00 0. -1.
</event>
<event>
 7    1  0.6508013E-006  0.7047270E+02  0.7818608E-02  0.1410609E+00
          2   -1    0    0  502    0  0.00000000000E+00  0.00000000000E+00  0.98629329226E+03  0.98629329226E+03  0.00000000000E+00 0. -1.
          1   -1    0    0  501    0 -0.00000000000E+00 -0.00000000000E+00 -0.39665382023E+03  0.39665382023E+03  0.00000000000E+00 0. -1.
         25    2    1    2    0    0  0.31675524246E+02  0.45688775745E+02 -0.31415589729E+02  0.14035545661E+03  0.12498764682E+03 0.  0.
          2    1    1    2  501    0 -0.38941842425E+02  0.24853341734E+02 -0.30769222342E+03  0.31114090063E+03  0.00000000000E+00 0. -1.
          1    1    1    2  502    0  0.72663181787E+01 -0.70542117479E+02  0.92874728518E+03  0.93145075525E+03  0.00000000000E+00 0. -1.
         22    1    3    3    0    0 -0.63828824336E+01 -0.41152412817E+02 -0.50934769561E+01  0.41954806356E+02  0.00000000000E+00 0.  1.
         22    1    3    3    0    0  0.38058406680E+02  0.86841188563E+02 -0.26322112773E+02  0.98400650256E+02  0.00000000000E+00 0.  1.
</event>
<event>
 7    1  0.6508013E-006  0.1103946E+03  0.7818608E-02  0.1304294E+00
          2   -1    0    0  502    0  0.00000000000E+00  0.00000000000E+00  0.67844441240E+03  0.67844441240E+03  0.00000000000E+00 0. -1.
          1   -1    0    0  501    0 -0.00000000000E+00 -0.00000000000E+00 -0.11257708498E+03  0.11257708498E+03  0.00000000000E+00 0. -1.
         25    2    1    2    0    0  0.39513218048E+02 -0.72139824347E+02  0.47862505142E+03  0.50147052609E+03  0.12500120012E+03 0.  0.
          2    1    1    2  501    0  0.21142590111E+02  0.11168794015E+03 -0.57737531658E+02  0.12749442205E+03  0.00000000000E+00 0. -1.
          1    1    1    2  502    0 -0.60655808159E+02 -0.39548115802E+02  0.14497980765E+03  0.16205654925E+03  0.00000000000E+00 0. -1.
         22    1    3    3    0    0  0.73617350704E+02 -0.38874698338E+02  0.17111691668E+03  0.19029386661E+03  0.00000000000E+00 0. -1.
         22    1    3    3    0    0 -0.34104132656E+02 -0.33265126009E+02  0.30750813474E+03  0.31117665948E+03  0.00000000000E+00 0. -1.
</event>
<event>
 7    1  0.6508013E-006  0.7372630E+02  0.7818608E-02  0.1510959E+00
          2   -1    0    0  502    0  0.00000000000E+00  0.00000000000E+00  0.11806122638E+03  0.11806122638E+03  0.00000000000E+00 0. -1.
          1   -1    0    0  501    0 -0.00000000000E+00 -0.00000000000E+00 -0.12955745091E+04  0.12955745091E+04  0.00000000000E+00 0. -1.
         25    2    1    2    0    0  0.79479838155E+02 -0.33037288611E+02 -0.64413770185E+02  0.16488137351E+03  0.12501290505E+03 0.  0.
          2    1    1    2  501    0 -0.60215806684E+02  0.42127985635E+02 -0.11780808318E+04  0.11803707709E+04  0.00000000000E+00 0. -1.
          1    1    1    2  502    0 -0.19264031472E+02 -0.90906970237E+01  0.64981319235E+02  0.68383591091E+02  0.00000000000E+00 0. -1.
         22    1    3    3    0    0 -0.30812809051E+02 -0.12741799418E+02  0.38960741317E+01  0.33570255400E+02  0.00000000000E+00 0. -1.
         22    1    3    3    0    0  0.11029264721E+03 -0.20295489194E+02 -0.68309844317E+02  0.13131111811E+03  0.00000000000E+00 0. -1.
</event>
<event>
 7    1  0.6508013E-006  0.3095843E+03  0.7818608E-02  0.1234418E+00
          2   -1    0    0  502    0  0.00000000000E+00  0.00000000000E+00  0.17899290933E+04  0.17899290933E+04  0.00000000000E+00 0. -1.
          1   -1    0    0  501    0 -0.00000000000E+00 -0.00000000000E+00 -0.71172026043E+03  0.71172026043E+03  0.00000000000E+00 0. -1.
         25    2    1    2    0    0  0.97443576912E+02 -0.32422715150E+03  0.33251233553E+03  0.49072171962E+03  0.12499942553E+03 0.  0.
          2    1    1    2  501    0  0.23023076569E+02  0.45293344839E+02 -0.61481043499E+03  0.61690633009E+03  0.00000000000E+00 0. -1.
          1    1    1    2  502    0 -0.12046665348E+03  0.27893380666E+03  0.13605069323E+04  0.13940213040E+04  0.00000000000E+00 0. -1.
         22    1    3    3    0    0  0.33699529915E+02 -0.27033113497E+03  0.21744078691E+03  0.34856143886E+03  0.00000000000E+00 0.  1.
         22    1    3    3    0    0  0.63744046997E+02 -0.53896016534E+02  0.11507154862E+03  0.14216028077E+03  0.00000000000E+00 0.  1.
</event>
<event>
 7    1  0.6508013E-006  0.7567551E+02  0.7818608E-02  0.1414567E+00
          2   -1    0    0  502    0  0.00000000000E+00  0.00000000000E+00  0.84013488801E+03  0.84013488801E+03  0.00000000000E+00 0. -1.
          1   -1    0    0  501    0 -0.00000000000E+00 -0.00000000000E+00 -0.12649745462E+04  0.12649745462E+04  0.00000000000E+00 0. -1.
         25    2    1    2    0    0 -0.51390751228E+02  0.31957596767E+02 -0.15880707905E+03  0.21096528933E+03  0.12499747054E+03 0.  0.
          2    1    1    2  501    0 -0.24502615055E+02 -0.33763598652E+02 -0.10779141332E+04  0.10787211119E+04  0.00000000000E+00 0. -1.
          1    1    1    2  502    0  0.75893366283E+02  0.18060018851E+01  0.81188155412E+03  0.81542303291E+03  0.00000000000E+00 0. -1.
         22    1    3    3    0    0 -0.73501132337E+02 -0.15984204669E+02 -0.13158176431E+03  0.15156408530E+03  0.00000000000E+00 0.  1.
         22    1    3    3    0    0  0.22110381110E+02  0.47941801436E+02 -0.27225314746E+02  0.59401204035E+02  0.00000000000E+00 0.  1.
</event>
<event>
 7    1  0.6508013E-006  0.8987194E+02  0.7818608E-02  0.1320072E+00
          2   -1    0    0  502    0  0.00000000000E+00  0.00000000000E+00  0.34990841086E+03  0.34990841086E+03  0.00000000000E+00 0. -1.
          1   -1    0    0  501    0 -0.00000000000E+00 -0.00000000000E+00 -0.44586110643E+03  0.44586110643E+03  0.00000000000E+00 0. -1.
         25    2    1    2    0    0  0.74729690819E+02 -0.13717391026E+03 -0.43390864533E+02  0.20471299883E+03  0.12499374552E+03 0.  0.
          2    1    1    2  501    0 -0.13820104708E+02  0.75868655176E+02 -0.31002729725E+03  0.31947452664E+03  0.00000000000E+00 0. -1.
          1    1    1    2  502    0 -0.60909586111E+02  0.61305255084E+02  0.25746546622E+03  0.27158199181E+03  0.00000000000E+00 0. -1.
         22    1    3    3    0    0  0.40439757223E+02 -0.14497297189E+02 -0.62570155230E+02  0.75898418400E+02  0.00000000000E+00 0. -1.
         22    1    3    3    0    0  0.34289933596E+02 -0.12267661307E+03  0.19179290697E+02  0.12881458043E+03  0.00000000000E+00 0. -1.
</event>
<event>
 7    1  0.6508013E-006  0.4877296E+02  0.7818608E-02  0.1565896E+00
          2   -1    0    0  502    0  0.00000000000E+00  0.00000000000E+00  0.39908982500E+03  0.39908982500E+03  0.00000000000E+00 0. -1.
          1   -1    0    0  501    0 -0.00000000000E+00 -0.00000000000E+00 -0.63263177702E+02  0.63263177702E+02  0.00000000000E+00 0. -1.
         25    2    1    2    0    0  0.28029234601E+02  0.51411894370E+01  0.21555059711E+03  0.25079789726E+03  0.12500182213E+03 0.  0.
          2    1    1    2  501    0 -0.50010398585E+02 -0.33941966667E+00 -0.30851444611E+02  0.58761950333E+02  0.00000000000E+00 0. -1.
          1    1    1    2  502    0  0.21981163984E+02 -0.48017697703E+01  0.15112749480E+03  0.15279315511E+03  0.00000000000E+00 0. -1.
         22    1    3    3    0    0 -0.88549235292E+01 -0.53279916585E+02  0.13040392172E+03  0.14114652664E+03  0.00000000000E+00 0.  1.
         22    1    3    3    0    0  0.36884158131E+02  0.58421106022E+02  0.85146675388E+02  0.10965137062E+03  0.00000000000E+00 0.  1.
</event>
<event>
 7    1  0.6508013E-006  0.1562513E+03  0.7818608E-02  0.1302128E+00
          2   -1    0    0  502    0  0.00000000000E+00  0.00000000000E+00  0.48933160671E+03  0.48933160671E+03  0.00000000000E+00 0. -1.
          1   -1    0    0  501    0 -0.00000000000E+00 -0.00000000000E+00 -0.24987027447E+04  0.24987027447E+04  0.00000000000E+00 0. -1.
         25    2    1    2    0    0 -0.86874320159E+02 -0.64597615272E+02 -0.68425984585E+02  0.17896530232E+03  0.12500585853E+03 0.  0.
          2    1    1    2  501    0  0.13651739957E+03  0.80687113979E+02 -0.23707801212E+04  0.23760778173E+04  0.00000000000E+00 0. -1.
          1    1    1    2  502    0 -0.49643079413E+02 -0.16089498707E+02  0.42983496778E+03  0.43299123182E+03  0.00000000000E+00 0. -1.
         22    1    3    3    0    0 -0.23689029102E+02  0.18523804904E+02 -0.68220874983E+02  0.74554605702E+02  0.00000000000E+00 0. -1.
         22    1    3    3    0    0 -0.63185291057E+02 -0.83121420176E+02 -0.20510960210E+00  0.10441069662E+03  0.00000000000E+00 0. -1.
</event>
<event>
 7    1  0.6508013E-006  0.1542049E+03  0.7818608E-02  0.1236685E+00
          2   -1    0    0  502    0  0.00000000000E+00  0.00000000000E+00  0.10650338135E+04  0.10650338135E+04  0.00000000000E+00 0. -1.
          1   -1    0    0  501    0 -0.00000000000E+00 -0.00000000000E+00 -0.20787466415E+03  0.20787466415E+03  0.00000000000E+00 0. -1.
         25    2    1    2    0    0 -0.59670863339E+02 -0.90392801172E+02  0.19808267854E+03  0.25805652464E+03  0.12499980775E+03 0.  0.
          2    1    1    2  501    0  0.56737633046E+02 -0.81940634987E+02 -0.15414846880E+03  0.18356246103E+03  0.00000000000E+00 0. -1.
          1    1    1    2  502    0  0.29332302939E+01  0.17233343616E+03  0.81322493957E+03  0.83128949193E+03  0.00000000000E+00 0. -1.
         22    1    3    3    0    0 -0.62544628208E+02 -0.17569231908E+00  0.13238546887E+03  0.14641643949E+03  0.00000000000E+00 0. -1.
         22    1    3    3    0    0  0.28737648690E+01 -0.90217108853E+02  0.65697209670E+02  0.11164008515E+03  0.00000000000E+00 0. -1.
</event>
<event>
 7    1  0.8868445E-006  0.8563884E+02  0.7818608E-02  0.1375275E+00
          2   -1    0    0  502    0  0.00000000000E+00  0.00000000000E+00  0.15273390800E+04  0.15273390800E+04  0.00000000000E+00 0. -1.
          1   -1    0    0  501    0 -0.00000000000E+00 -0.00000000000E+00 -0.10963357239E+04  0.10963357239E+04  0.00000000000E+00 0. -1.
         25    2    1    2    0    0 -0.11447640783E+03 -0.51430976530E+01 -0.92649086495E+02  0.19323086347E+03  0.12499205561E+03 0.  0.
          2    1    1    2  501    0  0.79110519515E+02 -0.30817870725E+02 -0.95107362141E+03  0.95485561673E+03  0.00000000000E+00 0. -1.
          1    1    1    2  502    0  0.35365888312E+02  0.35960968379E+02  0.14747260639E+04  0.14755883237E+04  0.00000000000E+00 0. -1.
         22    1    3    3    0    0  0.14190362097E+02  0.20192307505E+02  0.10067630566E+02  0.26654321301E+02  0.00000000000E+00 0. -1.
         22    1    3    3    0    0 -0.12866676992E+03 -0.25335405158E+02 -0.10271671706E+03  0.16657654217E+03  0.00000000000E+00 0. -1.
</event>
<event>
 7    1  0.6508013E-006  0.9288180E+02  0.7818608E-02  0.1420629E+00
          2   -1    0    0  502    0  0.00000000000E+00  0.00000000000E+00  0.10797994389E+04  0.10797994389E+04  0.00000000000E+00 0. -1.
          1   -1    0    0  501    0 -0.00000000000E+00 -0.00000000000E+00 -0.10413276542E+04  0.10413276542E+04  0.00000000000E+00 0. -1.
         25    2    1    2    0    0 -0.10380490751E+03 -0.35671605153E+02  0.42545805615E+03  0.45682319373E+03  0.12499980220E+03 0.  0.
          2    1    1    2  501    0  0.76298309999E+02  0.52861053782E+02 -0.10231309699E+04  0.10273328110E+04  0.00000000000E+00 0. -1.
          1    1    1    2  502    0  0.27506597511E+02 -0.17189448629E+02  0.63614469846E+03  0.63697108838E+03  0.00000000000E+00 0. -1.
         22    1    3    3    0    0  0.64767480708E+01 -0.48693578016E+02  0.19373524501E+03  0.19986584992E+03  0.00000000000E+00 0.  1.
         22    1    3    3    0    0 -0.11028165558E+03  0.13021972863E+02  0.23172281114E+03  0.25695734381E+03  0.00000000000E+00 0.  1.
</event>
<event>
 7    1  0.6508013E-006  0.4745798E+02  0.7818608E-02  0.1475264E+00
          2   -1    0    0  502    0  0.00000000000E+00  0.00000000000E+00  0.48397400277E+03  0.48397400277E+03  0.00000000000E+00 0. -1.
          1   -1    0    0  501    0 -0.00000000000E+00 -0.00000000000E+00 -0.32119660380E+03  0.32119660380E+03  0.00000000000E+00 0. -1.
         25    2    1    2    0    0 -0.10059634230E+02  0.69553944818E+02  0.19967842571E+02  0.14478547273E+03  0.12500068358E+03 0.  0.
          2    1    1    2  501    0  0.32899342135E+02 -0.33842897123E+02 -0.25550166619E+03  0.25982457509E+03  0.00000000000E+00 0. -1.
          1    1    1    2  502    0 -0.22839707904E+02 -0.35711047695E+02  0.39831122259E+03  0.40056055875E+03  0.00000000000E+00 0. -1.
         22    1    3    3    0    0 -0.42831159856E+02  0.37908799834E+02 -0.39765417125E+02  0.69662570715E+02  0.00000000000E+00 0. -1.
         22    1    3    3    0    0  0.32771525625E+02  0.31645144984E+02  0.59733259696E+02  0.75122902013E+02  0.00000000000E+00 0. -1.
</event>
<event>
 7    1  0.6508013E-006  0.2861426E+02  0.7818608E-02  0.1622931E+00
          2   -1    0    0  502    0  0.00000000000E+00  0.00000000000E+00  0.12818532673E+03  0.12818532673E+03  0.00000000000E+00 0. -1.
          1   -1    0    0  501    0 -0.00000000000E+00 -0.00000000000E+00 -0.86530331055E+03  0.86530331055E+03  0.00000000000E+00 0. -1.
         25    2    1    2    0    0  0.30733164365E+02  0.41588888605E+02 -0.35318111852E+03  0.37820052730E+03  0.12499829330E+03 0.  0.
          2    1    1    2  501    0 -0.66496238553E+01 -0.26313206927E+02 -0.49747910221E+03  0.49821888713E+03  0.00000000000E+00 0. -1.
          1    1    1    2  502    0 -0.24083540510E+02 -0.15275681677E+02  0.11354223691E+03  0.11706922284E+03  0.00000000000E+00 0. -1.
         22    1    3    3    0    0  0.24485817657E+02  0.38782480231E+02 -0.29688782637E+02  0.54635701274E+02  0.00000000000E+00 0.  1.
         22    1    3    3    0    0  0.62473467075E+01  0.28064083734E+01 -0.32349233588E+03  0.32356482603E+03  0.00000000000E+00 0.  1.
</event>
<event>
 7    1  0.6508013E-006  0.6984642E+02  0.7818608E-02  0.1402918E+00
          2   -1    0    0  502    0  0.00000000000E+00  0.00000000000E+00  0.28070903054E+04  0.28070903054E+04  0.00000000000E+00 0. -1.
          1   -1    0    0  501    0 -0.00000000000E+00 -0.00000000000E+00 -0.30281414003E+04  0.30281414003E+04  0.00000000000E+00 0. -1.
         25    2    1    2    0    0 -0.48814105088E+02  0.11228906341E+01 -0.29331057073E+03  0.32255364238E+03  0.12500273426E+03 0.  0.
          2    1    1    2  501    0  0.49697843288E+02 -0.50623339921E+02 -0.27195272645E+04  0.27204523779E+04  0.00000000000E+00 0. -1.
          1    1    1    2  502    0 -0.88373819981E+00  0.49500449287E+02  0.27917867402E+04  0.27922256854E+04  0.00000000000E+00 0. -1.
         22    1    3    3    0    0 -0.67493517370E+02 -0.39083665610E+02 -0.24438871007E+03  0.25653216059E+03  0.00000000000E+00 0.  1.
         22    1    3    3    0    0  0.18679412282E+02  0.40206556245E+02 -0.48921860657E+02  0.66021481795E+02  0.00000000000E+00 0.  1.
</event>
<event>
 7    1  0.6508013E-006  0.4270599E+02  0.7818608E-02  0.1539697E+00
          2   -1    0    0  502    0  0.00000000000E+00  0.00000000000E+00  0.24044024963E+03  0.24044024963E+03  0.00000000000E+00 0. -1.
          1   -1    0    0  501    0 -0.00000000000E+00 -0.00000000000E+00 -0.29089509485E+03  0.29089509485E+03  0.00000000000E+00 0. -1.
         25    2    1    2    0    0  0.46990890245E+02 -0.51156880197E+02  0.11014006537E+03  0.18050204811E+03  0.12499994086E+03 0.  0.
          2    1    1    2  501    0 -0.17302374913E+02  0.24979171895E+02 -0.25063869760E+03  0.25247393517E+03  0.00000000000E+00 0. -1.
          1    1    1    2  502    0 -0.29688515331E+02  0.26177708302E+02  0.90043787019E+02  0.98359361198E+02  0.00000000000E+00 0. -1.
         22    1    3    3    0    0 -0.27140546666E+02 -0.61996637544E+02  0.59085757729E+02  0.89840520404E+02  0.00000000000E+00 0. -1.
         22    1    3    3    0    0  0.74131436910E+02  0.10839757346E+02  0.51054307638E+02  0.90661527707E+02  0.00000000000E+00 0. -1.
</event>
<event>
 7    1  0.6508013E-006  0.3164874E+02  0.7818608E-02  0.1642020E+00
          2   -1    0    0  502    0  0.00000000000E+00  0.00000000000E+00  0.87314064307E+03  0.87314064307E+03  0.00000000000E+00 0. -1.
          1   -1    0    0  501    0 -0.00000000000E+00 -0.00000000000E+00 -0.19181169024E+02  0.19181169024E+02  0.00000000000E+00 0. -1.
         25    2    1    2    0    0  0.26656221628E+02  0.38490180316E+02  0.28109125954E+03  0.31117387901E+03  0.12499935463E+03 0.  0.
          2    1    1    2  501    0 -0.71381354759E+01 -0.28387105016E+02  0.50892157396E+02  0.58709389315E+02  0.00000000000E+00 0. -1.
          1    1    1    2  502    0 -0.19518086152E+02 -0.10103075299E+02  0.52197605711E+03  0.52243854377E+03  0.00000000000E+00 0. -1.
         22    1    3    3    0    0  0.16615412549E+02 -0.41824960290E+02  0.55210586533E+02  0.71229264371E+02  0.00000000000E+00 0.  1.
         22    1    3    3    0    0  0.10040809079E+02  0.80315140606E+02  0.22588067301E+03  0.23994461464E+03  0.00000000000E+00 0.  1.
</event>
<event>
 7    1  0.6508013E-006  0.6738166E+02  0.7818608E-02  0.1485921E+00
          2   -1    0    0  502    0  0.00000000000E+00  0.00000000000E+00  0.51867856447E+03  0.51867856447E+03  0.00000000000E+00 0. -1.
          1   -1    0    0  501    0 -0.00000000000E+00 -0.00000000000E+00 -0.65833599976E+02  0.65833599976E+02  0.00000000000E+00 0. -1.
         25    2    1    2    0    0 -0.57349191101E+01  0.57285535086E+02  0.24272840378E+03  0.27902107105E+03  0.12498463209E+03 0.  0.
          2    1    1    2  501    0 -0.20692691739E+02 -0.65560350722E+02 -0.21649317604E+02  0.72076626106E+02  0.00000000000E+00 0. -1.
          1    1    1    2  502    0  0.26427610849E+02  0.82748156360E+01  0.23176587832E+03  0.23341446729E+03  0.00000000000E+00 0. -1.
         22    1    3    3    0    0 -0.28441325832E+02 -0.14263303099E+02  0.17515418394E+03  0.17802061393E+03  0.00000000000E+00 0.  1.
         22    1    3    3    0    0  0.22706406722E+02  0.71548838185E+02  0.67574219836E+02  0.10100045712E+03  0.00000000000E+00 0.  1.
</event>
<event>
 7    1  0.6508013E-006  0.1386230E+03  0.7818608E-02  0.1246754E+00
          2   -1    0    0  502    0  0.00000000000E+00  0.00000000000E+00  0.68229153183E+03  0.68229153183E+03  0.00000000000E+00 0. -1.
          1   -1    0    0  501    0 -0.00000000000E+00 -0.00000000000E+00 -0.35945548953E+03  0.35945548953E+03  0.00000000000E+00 0. -1.
         25    2    1    2    0    0 -0.78940733361E+02 -0.27419307563E+01  0.12695693457E+03  0.19489108201E+03  0.12500125217E+03 0.  0.
          2    1    1    2  501    0 -0.70784337398E+02  0.70809854026E+02 -0.30429023101E+03  0.32033888702E+03  0.00000000000E+00 0. -1.
          1    1    1    2  502    0  0.14972507076E+03 -0.68067923270E+02  0.50016933873E+03  0.52651705234E+03  0.00000000000E+00 0. -1.
         22    1    3    3    0    0 -0.84138331272E+02 -0.34018752394E+02  0.34403151848E+02  0.97057257126E+02  0.00000000000E+00 0. -1.
         22    1    3    3    0    0  0.51975979115E+01  0.31276821638E+02  0.92553782718E+02  0.97833824883E+02  0.00000000000E+00 0. -1.
</event>
<event>
 7    1  0.6508013E-006  0.8476970E+02  0.7818608E-02  0.1322523E+00
          2   -1    0    0  502    0  0.00000000000E+00  0.00000000000E+00  0.27078743017E+02  0.27078743017E+02  0.00000000000E+00 0. -1.
          1   -1    0    0  501    0 -0.00000000000E+00 -0.00000000000E+00 -0.11442868250E+04  0.11442868250E+04  0.00000000000E+00 0. -1.
         25    2    1    2    0    0 -0.48983474876E+02  0.26444076282E+02 -0.29873166904E+03  0.32858163251E+03  0.12500643646E+03 0.  0.
          2    1    1    2  501    0  0.10712744605E+02 -0.96685943101E+02 -0.63801982062E+03  0.64539307867E+03  0.00000000000E+00 0. -1.
          1    1    1    2  502    0  0.38270730271E+02  0.70241866819E+02 -0.18045659235E+03  0.19739085686E+03  0.00000000000E+00 0. -1.
         22    1    3    3    0    0  0.31913025357E+02 -0.21818768111E+02 -0.12646419741E+03  0.13224104150E+03  0.00000000000E+00 0.  1.
         22    1    3    3    0    0 -0.80896500233E+02  0.48262844393E+02 -0.17226747163E+03  0.19634059101E+03  0.00000000000E+00 0.  1.
</event>
<event>
 7    1  0.6508013E-006  0.1438526E+03  0.7818608E-02  0.1416950E+00
          2   -1    0    0  502    0  0.00000000000E+00  0.00000000000E+00  0.14933060321E+04  0.14933060321E+04  0.00000000000E+00 0. -1.
          1   -1    0    0  501    0 -0.00000000000E+00 -0.00000000000E+00 -0.51436706162E+03  0.51436706162E+03  0.00000000000E+00 0. -1.
         25    2    1    2    0    0 -0.10545598183E+03  0.11626554416E+03  0.49828452618E+03  0.53716927684E+03  0.12499888832E+03 0.  0.
          2    1    1    2  501    0  0.10782650822E+03 -0.94851326843E+02 -0.48438451047E+03  0.50522438981E+03  0.00000000000E+00 0. -1.
          1    1    1    2  502    0 -0.23705263868E+01 -0.21414217318E+02  0.96503895478E+03  0.96527942708E+03  0.00000000000E+00 0. -1.
         22    1    3    3    0    0 -0.26633463915E+02 -0.18658331142E+02  0.17625925016E+03  0.17923391975E+03  0.00000000000E+00 0.  1.
         22    1    3    3    0    0 -0.78822517917E+02  0.13492387530E+03  0.32202527602E+03  0.35793535709E+03  0.00000000000E+00 0.  1.
</event>
<event>
 7    1  0.6508013E-006  0.4744532E+02  0.7818608E-02  0.1507803E+00
          2   -1    0    0  502    0  0.00000000000E+00  0.00000000000E+00  0.17983977221E+04  0.17983977221E+04  0.00000000000E+00 0. -1.
          1   -1    0    0  501    0 -0.00000000000E+00 -0.00000000000E+00 -0.86444145871E+03  0.86444145871E+03  0.00000000000E+00 0. -1.
         25    2    1    2    0    0 -0.74406642638E+02  0.16217662155E+02 -0.46838652813E+02  0.15364350206E+03  0.12495241212E+03 0.  0.
          2    1    1    2  501    0  0.33095176576E+02  0.69490828076E+01 -0.76350464913E+03  0.76425318430E+03  0.00000000000E+00 0. -1.
          1    1    1    2  502    0  0.41311466062E+02 -0.23166744962E+02  0.17442995654E+04  0.17449424945E+04  0.00000000000E+00 0. -1.
         22    1    3    3    0    0 -0.10154103025E+03  0.24768544274E+02 -0.70844874258E+01  0.10475806209E+03  0.00000000000E+00 0. -1.
         22    1    3    3    0    0  0.27134387613E+02 -0.85508821188E+01 -0.39754165387E+02  0.48885439977E+02  0.00000000000E+00 0. -1.
</event>
<event>
 7    1  0.6508013E-006  0.9039435E+02  0.7818608E-02  0.1444920E+00
          2   -1    0    0  502    0  0.00000000000E+00  0.00000000000E+00  0.60812317077E+03  0.60812317077E+03  0.00000000000E+00 0. -1.
          1   -1    0    0  501    0 -0.00000000000E+00 -0.00000000000E+00 -0.28177835271E+03  0.28177835271E+03  0.00000000000E+00 0. -1.
         25    2    1    2    0    0 -0.53425872581E+02 -0.62281093270E+02  0.49832406486E+02  0.15761250077E+03  0.12500069289E+03 0.  0.
          2    1    1    2  501    0 -0.24008172913E+02  0.13903017978E+02 -0.22288939337E+03  0.22460936747E+03  0.00000000000E+00 0. -1.
          1    1    1    2  502    0  0.77434045494E+02  0.48378075292E+02  0.49940180494E+03  0.50767965524E+03  0.00000000000E+00 0. -1.
         22    1    3    3    0    0 -0.65370491041E+02 -0.42227446301E+02  0.85100869833E+02  0.11531962698E+03  0.00000000000E+00 0. -1.
         22    1    3    3    0    0  0.11944618460E+02 -0.20053646969E+02 -0.35268463347E+02  0.42292873794E+02  0.00000000000E+00 0. -1.
</event>
<event>
 7    1  0.6508013E-006  0.5943078E+02  0.7818608E-02  0.1506873E+00
          2   -1    0    0  502    0  0.00000000000E+00  0.00000000000E+00  0.97367445722E+03  0.97367445722E+03  0.00000000000E+00 0. -1.
          1   -1    0    0  501    0 -0.00000000000E+00 -0.00000000000E+00 -0.34396320704E+03  0.34396320704E+03  0.00000000000E+00 0. -1.
         25    2    1    2    0    0 -0.29567182844E+02  0.38884010847E+02 -0.10044714536E+03  0.16763132314E+03  0.12499778752E+03 0.  0.
          2    1    1    2  501    0  0.54554720852E+02 -0.28219464893E+02 -0.20522975131E+03  0.21422373022E+03  0.00000000000E+00 0. -1.
          1    1    1    2  502    0 -0.24987538009E+02 -0.10664545954E+02  0.93538814686E+03  0.93578261091E+03  0.00000000000E+00 0. -1.
         22    1    3    3    0    0 -0.39979499021E+02 -0.24848014770E+02 -0.90883028303E+02  0.10234993412E+03  0.00000000000E+00 0.  1.
         22    1    3    3    0    0  0.10412316177E+02  0.63732025618E+02 -0.95641170569E+01  0.65281389022E+02  0.00000000000E+00 0.  1.
</event>
<event>
 7    1  0.6508013E-006  0.9751267E+02  0.7818608E-02  0.1312285E+00
          2   -1    0    0  502    0  0.00000000000E+00  0.00000000000E+00  0.21157852803E+03  0.21157852803E+03  0.00000000000E+00 0. -1.
          1   -1    0    0  501    0 -0.00000000000E+00 -0.00000000000E+00 -0.14879030272E+04  0.14879030272E+04  0.00000000000E+00 0. -1.
         25    2    1    2    0    0 -0.53558451705E+01  0.66478399220E+02  0.83034630192E+02  0.16421938274E+03  0.12500077286E+03 0.  0.
          2    1    1    2  501    0  0.11489333009E+02  0.75355401425E+02 -0.13882873708E+04  0.13903784611E+04  0.00000000000E+00 0. -1.
          1    1    1    2  502    0 -0.61334878387E+01 -0.14183380065E+03  0.28928241391E+02  0.14488371140E+03  0.00000000000E+00 0. -1.
         22    1    3    3    0    0 -0.38057479434E+02  0.61046916546E+02 -0.30190984762E+01  0.72001477181E+02  0.00000000000E+00 0.  1.
         22    1    3    3    0    0  0.32701634264E+02  0.54314826740E+01  0.86053728668E+02  0.92217905556E+02  0.00000000000E+00 0.  1.
</event>
<event>
 7    1  0.6508013E-006  0.1411799E+03  0.7818608E-02  0.1267009E+00
          2   -1    0    0  502    0  0.00000000000E+00  0.00000000000E+00  0.15735446301E+04  0.15735446301E+04  0.00000000000E+00 0. -1.
          1   -1    0    0  501    0 -0.00000000000E+00 -0.00000000000E+00 -0.28940235071E+03  0.28940235071E+03  0.00000000000E+00 0. -1.
         25    2    1    2    0    0 -0.78374868768E+02 -0.85651850699E+02 -0.72404531765E+02  0.18532654779E+03  0.12499861405E+03 0.  0.
          2    1    1    2  501    0 -0.60264923227E+02  0.53343328664E+02 -0.14687170571E+03  0.16747737048E+03  0.00000000000E+00 0. -1.
          1    1    1    2  502    0  0.13863979199E+03  0.32308522035E+02  0.15034185169E+04  0.15101430626E+04  0.00000000000E+00 0. -1.
         22    1    3    3    0    0 -0.87116740924E+02 -0.36054878049E+02  0.33694402421E+01  0.94343170966E+02  0.00000000000E+00 0. -1.
         22    1    3    3    0    0  0.87418721560E+01 -0.49596972649E+02 -0.75773972007E+02  0.90983376825E+02  0.00000000000E+00 0. -1.
</event>
<event>
 7    1  0.6508013E-006  0.4711081E+02  0.7818608E-02  0.1462424E+00
          2   -1    0    0  502    0  0.00000000000E+00  0.00000000000E+00  0.11055128235E+03  0.11055128235E+03  0.00000000000E+00 0. -1.
          1   -1    0    0  501    0 -0.00000000000E+00 -0.00000000000E+00 -0.23860265368E+04  0.23860265368E+04  0.00000000000E+00 0. -1.
         25    2    1    2    0    0  0.52329982233E+02 -0.38748141804E+02 -0.74642314805E+02  0.15948481006E+03  0.12499633573E+03 0.  0.
          2    1    1    2  501    0 -0.46138858702E+02 -0.79756199398E+01 -0.22605399546E+04  0.22610248320E+04  0.00000000000E+00 0. -1.
          1    1    1    2  502    0 -0.61911235305E+01  0.46723761744E+02  0.59707014967E+02  0.76068177041E+02  0.00000000000E+00 0. -1.
         22    1    3    3    0    0 -0.39055636544E+02 -0.10001453062E+02 -0.41188970156E+01  0.40525758744E+02  0.00000000000E+00 0. -1.
         22    1    3    3    0    0  0.91385618776E+02 -0.28746688742E+02 -0.70523417789E+02  0.11895905131E+03  0.00000000000E+00 0. -1.
</event>
<event>
 7    1  0.6508013E-006  0.1146041E+03  0.7818608E-02  0.1343734E+00
          2   -1    0    0  502    0  0.00000000000E+00  0.00000000000E+00  0.14077277706E+04  0.14077277706E+04  0.00000000000E+00 0. -1.
          1   -1    0    0  501    0 -0.00000000000E+00 -0.00000000000E+00 -0.13357503638E+03  0.13357503638E+03  0.00000000000E+00 0. -1.
         25    2    1    2    0    0 -0.69647737796E+02  0.48763777508E+02  0.16905857574E+03  0.22679215472E+03  0.12500066413E+03 0.  0.
          2    1    1    2  501    0  0.11606606209E+03 -0.32637367287E+02 -0.69316075050E+02  0.13907281105E+03  0.00000000000E+00 0. -1.
          1    1    1    2  502    0 -0.46418324293E+02 -0.16126410221E+02  0.11744102335E+04  0.11754378412E+04  0.00000000000E+00 0. -1.
         22    1    3    3    0    0 -0.50185681477E+02 -0.35149776566E+02  0.95770971257E+02  0.11369339626E+03  0.00000000000E+00 0. -1.
         22    1    3    3    0    0 -0.19462056319E+02  0.83913554074E+02  0.73287604480E+02  0.11309875845E+03  0.00000000000E+00 0. -1.
</event>
<event>
 7    1  0.6508013E-006  0.1135508E+03  0.7818608E-02  0.1380836E+00
          2   -1    0    0  502    0  0.00000000000E+00  0.00000000000E+00  0.13051816983E+04  0.13051816983E+04  0.00000000000E+00 0. -1.
          1   -1    0    0  501    0 -0.00000000000E+00 -0.00000000000E+00 -0.36953134879E+03  0.36953134879E+03  0.00000000000E+00 0. -1.
         25    2    1    2    0    0  0.12105258444E+03 -0.24205069066E+02  0.52317057695E+01  0.17576062310E+03  0.12499924928E+03 0.  0.
          2    1    1    2  501    0 -0.21188328694E+02 -0.29533622611E+02 -0.28044455864E+03  0.28279025904E+03  0.00000000000E+00 0. -1.
          1    1    1    2  502    0 -0.99864255745E+02  0.53738691677E+02  0.12108632024E+04  0.12161621650E+04  0.00000000000E+00 0. -1.
         22    1    3    3    0    0 -0.15283232426E+02 -0.35555843250E+02  0.43991375416E+01  0.38950578862E+02  0.00000000000E+00 0. -1.
         22    1    3    3    0    0  0.13633581686E+03  0.11350774184E+02  0.83256822794E+00  0.13681004424E+03  0.00000000000E+00 0. -1.
</event>
<event>
 7    1  0.6508013E-006  0.1087761E+03  0.7818608E-02  0.1385341E+00
          2   -1    0    0  502    0  0.00000000000E+00  0.00000000000E+00  0.18279767032E+04  0.18279767032E+04  0.00000000000E+00 0. -1.
          1   -1    0    0  501    0 -0.00000000000E+00 -0.00000000000E+00 -0.81618979158E+02  0.81618979158E+02  0.00000000000E+00 0. -1.
         25    2    1    2    0    0 -0.98444796235E+02  0.10243364119E+03  0.46078920518E+03  0.49813275006E+03  0.12500206526E+03 0.  0.
          2    1    1    2  501    0  0.75568468676E+02 -0.73888291983E+02 -0.18146238003E+02  0.10723506471E+03  0.00000000000E+00 0. -1.
          1    1    1    2  502    0  0.22876327560E+02 -0.28545349207E+02  0.13037147568E+04  0.13042278676E+04  0.00000000000E+00 0. -1.
         22    1    3    3    0    0 -0.59903880497E+02  0.24515439371E+02  0.60791041915E+02  0.88797705169E+02  0.00000000000E+00 0. -1.
         22    1    3    3    0    0 -0.38540915739E+02  0.77918201819E+02  0.39999816327E+03  0.40933504490E+03  0.00000000000E+00 0. -1.
</event>
<event>
 7    1  0.6508013E-006  0.4366336E+02  0.7818608E-02  0.1512819E+00
          2   -1    0    0  502    0  0.00000000000E+00  0.00000000000E+00  0.28939506174E+04  0.28939506174E+04  0.00000000000E+00 0. -1.
          1   -1    0    0  501    0 -0.00000000000E+00 -0.00000000000E+00 -0.92481383704E+01  0.92481383704E+01  0.00000000000E+00 0. -1.
         25    2    1    2    0    0  0.12575024202E+02 -0.38367839989E-01  0.96385969975E+03  0.97201117514E+03  0.12498828379E+03 0.  0.
          2    1    1    2  501    0 -0.45221924466E+02 -0.13951716291E+02  0.10701784406E+03  0.11701492122E+03  0.00000000000E+00 0. -1.
          1    1    1    2  502    0  0.32646900264E+02  0.13990084131E+02  0.18138249352E+04  0.18141726594E+04  0.00000000000E+00 0. -1.
         22    1    3    3    0    0  0.46470474893E+02 -0.10246374237E+02  0.87595330526E+03  0.87724494083E+03  0.00000000000E+00 0.  1.
         22    1    3    3    0    0 -0.33895450691E+02  0.10208006397E+02  0.87906394496E+02  0.94766234311E+02  0.00000000000E+00 0.  1.
</event>
<event>
 7    1  0.6508013E-006  0.8026208E+02  0.7818608E-02  0.1360356E+00
          2   -1    0    0  502    0  0.00000000000E+00  0.00000000000E+00  0.15156604390E+04  0.15156604390E+04  0.00000000000E+00 0. -1.
          1   -1    0    0  501    0 -0.00000000000E+00 -0.00000000000E+00 -0.31009738206E+03  0.31009738206E+03  0.00000000000E+00 0. -1.
         25    2    1    2    0    0 -0.90582222562E+00 -0.58272890822E+02  0.19439681111E+02  0.13928219639E+03  0.12500031484E+03 0.  0.
          2    1    1    2  501    0 -0.60661591683E+02  0.55529488190E+01 -0.24530447436E+03  0.25275472120E+03  0.00000000000E+00 0. -1.
          1    1    1    2  502    0  0.61567413909E+02  0.52719942003E+02  0.14314278501E+04  0.14337209034E+04  0.00000000000E+00 0. -1.
         22    1    3    3    0    0 -0.18805814842E+01 -0.73714047024E+02  0.60514367413E+02  0.95390177580E+02  0.00000000000E+00 0.  1.
         22    1    3    3    0    0  0.97475925857E+00  0.15441156202E+02 -0.41074686302E+02  0.43892018811E+02  0.00000000000E+00 0.  1.
</event>
<event>
 7    1  0.6508013E-006  0.5051622E+02  0.7818608E-02  0.1558698E+00
          2   -1    0    0  502    0  0.00000000000E+00  0.00000000000E+00  0.55043574273E+03  0.55043574273E+03  0.00000000000E+00 0. -1.
          1   -1    0    0  501    0 -0.00000000000E+00 -0.00000000000E+00 -0.13155595687E+03  0.13155595687E+03  0.00000000000E+00 0. -1.
         25    2    1    2    0    0 -0.43700961224E+02 -0.30084871768E+02  0.11074291895E+03  0.17522563452E+03  0.12500062150E+03 0.  0.
          2    1    1    2  501    0  0.49946984273E+02  0.82257548723E+01 -0.92521251960E+02  0.10546348347E+03  0.00000000000E+00 0. -1.
          1    1    1    2  502    0 -0.62460230489E+01  0.21859116895E+02  0.40065811886E+03  0.40130258161E+03  0.00000000000E+00 0. -1.
         22    1    3    3    0    0  0.41645380056E+02 -0.28203762229E+02  0.44787428937E+02  0.67347633029E+02  0.00000000000E+00 0. -1.
         22    1    3    3    0    0 -0.85346341280E+02 -0.18811095390E+01  0.65955490014E+02  0.10787800149E+03  0.00000000000E+00 0. -1.
</event>
<event>
 7    1  0.6508013E-006  0.1412383E+03  0.7818608E-02  0.1263690E+00
          2   -1    0    0  502    0  0.00000000000E+00  0.00000000000E+00  0.81135316362E+03  0.81135316362E+03  0.00000000000E+00 0. -1.
          1   -1    0    0  501    0 -0.00000000000E+00 -0.00000000000E+00 -0.20644488705E+03  0.20644488705E+03  0.00000000000E+00 0. -1.
         25    2    1    2    0    0  0.96535694152E+02  0.10852473760E+03  0.27437108044E+03  0.33467388373E+03  0.12502143718E+03 0.  0.
          2    1    1    2  501    0 -0.20288455022E+02 -0.14155117983E+03 -0.14307154290E+03  0.20228154712E+03  0.00000000000E+00 0. -1.
          1    1    1    2  502    0 -0.76247239130E+02  0.33026442229E+02  0.47360873903E+03  0.48084261983E+03  0.00000000000E+00 0. -1.
         22    1    3    3    0    0  0.18925996346E+02 -0.28446366890E+02  0.46172698969E+02  0.57439596596E+02  0.00000000000E+00 0.  1.
         22    1    3    3    0    0  0.77609697806E+02  0.13697110449E+03  0.22819838147E+03  0.27723428714E+03  0.00000000000E+00 0.  1.
</event>
<event>
 7    1  0.6508013E-006  0.1673570E+03  0.7818608E-02  0.1334815E+00
          2   -1    0    0  502    0  0.00000000000E+00  0.00000000000E+00  0.41589108246E+03  0.41589108246E+03  0.00000000000E+00 0. -1.
          1   -1    0    0  501    0 -0.00000000000E+00 -0.00000000000E+00 -0.16934190239E+03  0.16934190239E+03  0.00000000000E+00 0. -1.
         25    2    1    2    0    0  0.15422293986E+03 -0.11891007164E+02  0.19106751315E+02  0.19979203987E+03  0.12500272004E+03 0.  0.
          2    1    1    2  501    0 -0.17574861423E+03  0.41190416202E+02  0.27949296887E+02  0.18266195276E+03  0.00000000000E+00 0. -1.
          1    1    1    2  502    0  0.21525674362E+02 -0.29299409038E+02  0.19949313187E+03  0.20277899223E+03  0.00000000000E+00 0. -1.
         22    1    3    3    0    0  0.15775108564E+03  0.19189298867E+02 -0.69722089940E+01  0.15906679701E+03  0.00000000000E+00 0.  1.
         22    1    3    3    0    0 -0.35281457760E+01 -0.31080306031E+02  0.26078960309E+02  0.40725242864E+02  0.00000000000E+00 0.  1.
</event>
<event>
 7    1  0.6508013E-006  0.1822451E+03  0.7818608E-02  0.1333415E+00
          2   -1    0    0  502    0  0.00000000000E+00  0.00000000000E+00  0.37966830416E+03  0.37966830416E+03  0.00000000000E+00 0. -1.
          1   -1    0    0  501    0 -0.00000000000E+00 -0.00000000000E+00 -0.66296445848E+03  0.66296445848E+03  0.00000000000E+00 0. -1.
         25    2    1    2    0    0 -0.77814624465E+02 -0.16655206709E+03 -0.47572396816E+02  0.22733982482E+03  0.12500222469E+03 0.  0.
          2    1    1    2  501    0  0.10625701376E+03  0.14829517312E+03 -0.50860109397E+03  0.54033053230E+03  0.00000000000E+00 0. -1.
          1    1    1    2  502    0 -0.28442389296E+02  0.18256893970E+02  0.27287733647E+03  0.27496240551E+03  0.00000000000E+00 0. -1.
         22    1    3    3    0    0 -0.53201890831E+02 -0.12018792315E+03 -0.90458027200E+02  0.15955636228E+03  0.00000000000E+00 0.  1.
         22    1    3    3    0    0 -0.24612733634E+02 -0.46364143936E+02  0.42885630384E+02  0.67783462535E+02  0.00000000000E+00 0.  1.
</event>
<event>
 7    1  0.6508013E-006  0.5949149E+02  0.7818608E-02  0.1479707E+00
          2   -1    0    0  502    0  0.00000000000E+00  0.00000000000E+00  0.48152608505E+03  0.48152608505E+03  0.00000000000E+00 0. -1.
          1   -1    0    0  501    0 -0.00000000000E+00 -0.00000000000E+00 -0.15524395544E+04  0.15524395544E+04  0.00000000000E+00 0. -1.
         25    2    1    2    0    0 -0.42725519648E+02  0.53085452322E+02  0.85861814979E+02  0.16625664708E+03  0.12500194458E+03 0.  0.
          2    1    1    2  501    0  0.54989126379E+02 -0.22699515101E+02 -0.15109003951E+04  0.15120711214E+04  0.00000000000E+00 0. -1.
          1    1    1    2  502    0 -0.12263606732E+02 -0.30385937221E+02  0.35412511079E+03  0.35563787104E+03  0.00000000000E+00 0. -1.
         22    1    3    3    0    0  0.13136195653E+02  0.13646809076E+02 -0.27782724000E+02  0.33625507983E+02  0.00000000000E+00 0. -1.
         22    1    3    3    0    0 -0.55861715301E+02  0.39438643246E+02  0.11364453898E+03  0.13263113909E+03  0.00000000000E+00 0. -1.
</event>
<event>
 7    1  0.6508013E-006  0.1326447E+03  0.7818608E-02  0.1394069E+00
          2   -1    0    0  502    0  0.00000000000E+00  0.00000000000E+00  0.88194566680E+03  0.88194566680E+03  0.00000000000E+00 0. -1.
          1   -1    0    0  501    0 -0.00000000000E+00 -0.00000000000E+00 -0.10015219807E+04  0.10015219807E+04  0.00000000000E+00 0. -1.
         25    2    1    2    0    0  0.12114412758E+02 -0.15894709869E+03 -0.60880655019E+03  0.64162280418E+03  0.12499387228E+03 0.  0.
          2    1    1    2  501    0 -0.87543203785E+01  0.26560362602E+02 -0.37071203792E+03  0.37176539114E+03  0.00000000000E+00 0. -1.
          1    1    1    2  502    0 -0.33600923792E+01  0.13238673609E+03  0.85994227422E+03  0.87007945218E+03  0.00000000000E+00 0. -1.
         22    1    3    3    0    0 -0.34548810808E+02 -0.13516771761E+02 -0.23349487040E+03  0.23642372544E+03  0.00000000000E+00 0.  1.
         22    1    3    3    0    0  0.46663223566E+02 -0.14543032693E+03 -0.37531167979E+03  0.40519907874E+03  0.00000000000E+00 0.  1.
</event>
<event>
 7    1  0.6508013E-006  0.7191652E+02  0.7818608E-02  0.1361540E+00
          2   -1    0    0  502    0  0.00000000000E+00  0.00000000000E+00  0.10230659290E+03  0.10230659290E+03  0.00000000000E+00 0. -1.
          1   -1    0    0  501    0 -0.00000000000E+00 -0.00000000000E+00 -0.27429638046E+04  0.27429638046E+04  0.00000000000E+00 0. -1.
         25    2    1    2    0    0 -0.36645315165E+02  0.99301181164E+01 -0.21048904191E+03  0.24773303672E+03  0.12499813737E+03 0.  0.
          2    1    1    2  501    0  0.46970769528E+02  0.56585556868E+02 -0.24996881653E+04  0.25007697020E+04  0.00000000000E+00 0. -1.
          1    1    1    2  502    0 -0.10325454363E+02 -0.66515674984E+02  0.69519995490E+02  0.96767658850E+02  0.00000000000E+00 0. -1.
         22    1    3    3    0    0 -0.78432284827E+02  0.22970577929E+02 -0.10171169506E+03  0.13047811949E+03  0.00000000000E+00 0.  1.
         22    1    3    3    0    0  0.41786969662E+02 -0.13040459813E+02 -0.10877734685E+03  0.11725491723E+03  0.00000000000E+00 0.  1.
</event>
<event>
 7    1  0.6508013E-006  0.7106497E+02  0.7818608E-02  0.1485428E+00
          2   -1    0    0  502    0  0.00000000000E+00  0.00000000000E+00  0.10824062508E+04  0.10824062508E+04  0.00000000000E+00 0. -1.
          1   -1    0    0  501    0 -0.00000000000E+00 -0.00000000000E+00 -0.18779692412E+04  0.18779692412E+04  0.00000000000E+00 0. -1.
         25    2    1    2    0    0  0.90439746644E+02 -0.19772305049E+02 -0.46920781938E+03  0.49431849095E+03  0.12499800362E+03 0.  0.
          2    1    1    2  501    0 -0.64756494557E+02  0.25654912135E+02 -0.13951749189E+04  0.13969125357E+04  0.00000000000E+00 0. -1.
          1    1    1    2  502    0 -0.25683252087E+02 -0.58826070860E+01  0.10688197479E+04  0.10691444654E+04  0.00000000000E+00 0. -1.
         22    1    3    3    0    0  0.56208841296E+02  0.15398059845E+02 -0.65646499891E+02  0.87783808500E+02  0.00000000000E+00 0.  1.
         22    1    3    3    0    0  0.34230905348E+02 -0.35170364894E+02 -0.40356131949E+03  0.40653468245E+03  0.00000000000E+00 0.  1.
</event>
<event>
 7    1  0.6508013E-006  0.7464116E+02  0.7818608E-02  0.1398700E+00
          2   -1    0    0  502    0  0.00000000000E+00  0.00000000000E+00  0.82604595226E+02  0.82604595226E+02  0.00000000000E+00 0. -1.
          1   -1    0    0  501    0 -0.00000000000E+00 -0.00000000000E+00 -0.11699269029E+04  0.11699269029E+04  0.00000000000E+00 0. -1.
         25    2    1    2    0    0  0.33695286033E+02 -0.17013329801E+02 -0.22027010463E+02  0.13242899912E+03  0.12500969933E+03 0.  0.
          2    1    1    2  501    0 -0.75384072995E+02 -0.65748515566E+01 -0.10693571741E+04  0.10720311343E+04  0.00000000000E+00 0. -1.
          1    1    1    2  502    0  0.41688786962E+02  0.23588181357E+02  0.40618769041E+01  0.48071364679E+02  0.00000000000E+00 0. -1.
         22    1    3    3    0    0  0.79600710013E+02 -0.21228995780E+02 -0.25393277639E+02  0.86207666977E+02  0.00000000000E+00 0.  1.
         22    1    3    3    0    0 -0.45905423980E+02  0.42156659791E+01  0.33662671756E+01  0.46221332144E+02  0.00000000000E+00 0.  1.
</event>
<event>
 7    1  0.6508013E-006  0.3497684E+02  0.7818608E-02  0.1584606E+00
          2   -1    0    0  502    0  0.00000000000E+00  0.00000000000E+00  0.10649164841E+04  0.10649164841E+04  0.00000000000E+00 0. -1.
          1   -1    0    0  501    0 -0.00000000000E+00 -0.00000000000E+00 -0.14280359932E+04  0.14280359932E+04  0.00000000000E+00 0. -1.
         25    2    1    2    0    0 -0.16040485703E+02  0.39502205767E+02 -0.16390077469E+03  0.21049162169E+03  0.12500214966E+03 0.  0.
          2    1    1    2  501    0 -0.15073259168E+02 -0.23514580394E+02 -0.12403888404E+04  0.12407032740E+04  0.00000000000E+00 0. -1.
          1    1    1    2  502    0  0.31113744871E+02 -0.15987625373E+02  0.10411701059E+04  0.10417575816E+04  0.00000000000E+00 0. -1.
         22    1    3    3    0    0 -0.53762596480E+02  0.35398578463E+01 -0.14560837218E+03  0.15525703019E+03  0.00000000000E+00 0. -1.
         22    1    3    3    0    0  0.37722110777E+02  0.35962347921E+02 -0.18292402507E+02  0.55234591506E+02  0.00000000000E+00 0. -1.
</event>
<event>
 7    1  0.6508013E-006  0.1045650E+03  0.7818608E-02  0.1458991E+00
          2   -1    0    0  502    0  0.00000000000E+00  0.00000000000E+00  0.23628998747E+03  0.23628998747E+03  0.00000000000E+00 0. -1.
          1   -1    0    0  501    0 -0.00000000000E+00 -0.00000000000E+00 -0.40137988717E+03  0.40137988717E+03  0.00000000000E+00 0. -1.
         25    2    1    2    0    0 -0.12666399725E+02  0.12157196000E+03 -0.89987012848E+02  0.19661707242E+03  0.12498172484E+03 0.  0.
          2    1    1    2  501    0  0.56011808624E+01 -0.10113056995E+03 -0.24743816192E+03  0.26736568475E+03  0.00000000000E+00 0. -1.
          1    1    1    2  502    0  0.70652188623E+01 -0.20441390056E+02  0.17233527506E+03  0.17368711747E+03  0.00000000000E+00 0. -1.
         22    1    3    3    0    0 -0.10672544794E+02  0.12386128916E+03 -0.19234427695E+02  0.12579938543E+03  0.00000000000E+00 0. -1.
         22    1    3    3    0    0 -0.19938549310E+01 -0.22893291572E+01 -0.70752585152E+02  0.70817686994E+02  0.00000000000E+00 0. -1.
</event>
<event>
 7    1  0.6508013E-006  0.9395560E+02  0.7818608E-02  0.1367679E+00
          2   -1    0    0  502    0  0.00000000000E+00  0.00000000000E+00  0.14698870098E+03  0.14698870098E+03  0.00000000000E+00 0. -1.
          1   -1    0    0  501    0 -0.00000000000E+00 -0.00000000000E+00 -0.11984031731E+04  0.11984031731E+04  0.00000000000E+00 0. -1.
         25    2    1    2    0    0 -0.23875334174E+02 -0.71571169142E+02 -0.95761431411E+03  0.96868105712E+03  0.12500140797E+03 0.  0.
          2    1    1    2  501    0  0.44397458408E+02 -0.20614254839E+02 -0.21644846564E+03  0.22191444318E+03  0.00000000000E+00 0. -1.
          1    1    1    2  502    0 -0.20522124234E+02  0.92185423981E+02  0.12264830762E+03  0.15479637380E+03  0.00000000000E+00 0. -1.
         22    1    3    3    0    0 -0.43168599197E+01 -0.20228571901E+02 -0.17876738539E+02  0.27338767008E+02  0.00000000000E+00 0. -1.
         22    1    3    3    0    0 -0.19558474255E+02 -0.51342597241E+02 -0.93973757558E+03  0.94134229011E+03  0.00000000000E+00 0. -1.
</event>
<event>
 7    1  0.6508013E-006  0.1598933E+03  0.7818608E-02  0.1287432E+00
          2   -1    0    0  502    0  0.00000000000E+00  0.00000000000E+00  0.69368764202E+03  0.69368764202E+03  0.00000000000E+00 0. -1.
          1   -1    0    0  501    0 -0.00000000000E+00 -0.00000000000E+00 -0.68672267683E+03  0.68672267683E+03  0.00000000000E+00 0. -1.
         25    2    1    2    0    0 -0.39147921710E+02  0.19220730395E+03 -0.18541375817E+03  0.29745366892E+03  0.12499686384E+03 0.  0.
          2    1    1    2  501    0 -0.35510510134E+01 -0.15227744013E+03 -0.43085508752E+03  0.45698701861E+03  0.00000000000E+00 0. -1.
          1    1    1    2  502    0  0.42698972723E+02 -0.39929863816E+02  0.62323381089E+03  0.62596963132E+03  0.00000000000E+00 0. -1.
         22    1    3    3    0    0 -0.62267179223E+02  0.12283464226E+03 -0.55709227409E+02  0.14855661872E+03  0.00000000000E+00 0. -1.
         22    1    3    3    0    0  0.23119257513E+02  0.69372661687E+02 -0.12970453076E+03  0.14889705020E+03  0.00000000000E+00 0. -1.
</event>
<event>
 7    1  0.6508013E-006  0.5054374E+02  0.7818608E-02  0.1461532E+00
          2   -1    0    0  502    0  0.00000000000E+00  0.00000000000E+00  0.43785468521E+03  0.43785468521E+03  0.00000000000E+00 0. -1.
          1   -1    0    0  501    0 -0.00000000000E+00 -0.00000000000E+00 -0.30943838567E+04  0.30943838567E+04  0.00000000000E+00 0. -1.
         25    2    1    2    0    0  0.12303090284E+02 -0.74142232054E+02 -0.13022138087E+03  0.19552861443E+03  0.12500157767E+03 0.  0.
          2    1    1    2  501    0  0.22551712039E+02  0.37694822488E+02 -0.29297744452E+04  0.29301037147E+04  0.00000000000E+00 0. -1.
          1    1    1    2  502    0 -0.34854802323E+02  0.36447409566E+02  0.40346665457E+03  0.40660621276E+03  0.00000000000E+00 0. -1.
         22    1    3    3    0    0 -0.36742997194E+02 -0.19768164366E+02  0.47300761805E+01  0.41990496376E+02  0.00000000000E+00 0. -1.
         22    1    3    3    0    0  0.49046087478E+02 -0.54374067688E+02 -0.13495145705E+03  0.15353811805E+03  0.00000000000E+00 0. -1.
</event>
<event>
 7    1  0.6508013E-006  0.1346587E+03  0.7818608E-02  0.1392566E+00
          2   -1    0    0  502    0  0.00000000000E+00  0.00000000000E+00  0.21304873069E+04  0.21304873069E+04  0.00000000000E+00 0. -1.
          1   -1    0    0  501    0 -0.00000000000E+00 -0.00000000000E+00 -0.52180220607E+02  0.52180220607E+02  0.00000000000E+00 0. -1.
         25    2    1    2    0    0 -0.34883958132E+02  0.12040693955E+03  0.10264940924E+04  0.10416474231E+04  0.12499804293E+03 0.  0.
          2    1    1    2  501    0  0.62764556926E+02 -0.12044661472E+03  0.59441049314E+02  0.14825658484E+03  0.00000000000E+00 0. -1.
          1    1    1    2  502    0 -0.27880598793E+02  0.39675169449E-01  0.99237194461E+03  0.99276351958E+03  0.00000000000E+00 0. -1.
         22    1    3    3    0    0  0.14374349024E+02  0.10944556032E+03  0.46640766538E+03  0.47929225209E+03  0.00000000000E+00 0.  1.
         22    1    3    3    0    0 -0.49258307156E+02  0.10961379227E+02  0.56008642702E+03  0.56235517103E+03  0.00000000000E+00 0.  1.
</event>
<event>
 7    1  0.6508013E-006  0.6389404E+02  0.7818608E-02  0.1528550E+00
          2   -1    0    0  502    0  0.00000000000E+00  0.00000000000E+00  0.19347082229E+03  0.19347082229E+03  0.00000000000E+00 0. -1.
          1   -1    0    0  501    0 -0.00000000000E+00 -0.00000000000E+00 -0.99627758087E+02  0.99627758087E+02  0.00000000000E+00 0. -1.
         25    2    1    2    0    0  0.61276360644E+02  0.47004082128E+00  0.11803890244E+03  0.18251942130E+03  0.12500057340E+03 0.  0.
          2    1    1    2  501    0 -0.61423984230E+02 -0.22320262548E+02  0.13756771847E+02  0.66785842291E+02  0.00000000000E+00 0. -1.
          1    1    1    2  502    0  0.14762358513E+00  0.21850221726E+02 -0.37952610090E+02  0.43793316783E+02  0.00000000000E+00 0. -1.
         22    1    3    3    0    0  0.71897615264E+02  0.44353072911E+02  0.42623036548E+02  0.94621273516E+02  0.00000000000E+00 0.  1.
         22    1    3    3    0    0 -0.10621254620E+02 -0.43883032089E+02  0.75415865896E+02  0.87898147784E+02  0.00000000000E+00 0.  1.
</event>
<event>
 7    1  0.6508013E-006  0.7731255E+02  0.7818608E-02  0.1378271E+00
          2   -1    0    0  502    0  0.00000000000E+00  0.00000000000E+00  0.14621097298E+04  0.14621097298E+04  0.00000000000E+00 0. -1.
          1   -1    0    0  501    0 -0.00000000000E+00 -0.00000000000E+00 -0.27005031917E+02  0.27005031917E+02  0.00000000000E+00 0. -1.
         25    2    1    2    0    0 -0.28552560382E+02  0.12286490045E+03  0.92810710699E+03  0.94494364468E+03  0.12499862838E+03 0.  0.
          2    1    1    2  501    0  0.65904650640E+01 -0.72969888564E+02  0.62383790836E+02  0.96227731065E+02  0.00000000000E+00 0. -1.
          1    1    1    2  502    0  0.21962095318E+02 -0.49895011882E+02  0.44461380007E+03  0.44794338599E+03  0.00000000000E+00 0. -1.
         22    1    3    3    0    0 -0.57919056597E+02  0.13379135523E+03  0.78834418171E+03  0.80171147720E+03  0.00000000000E+00 0.  1.
         22    1    3    3    0    0  0.29366496215E+02 -0.10926454781E+02  0.13976292529E+03  0.14323216747E+03  0.00000000000E+00 0.  1.
</event>
<event>
 7    1  0.6508013E-006  0.1399407E+03  0.7818608E-02  0.1424564E+00
          2   -1    0    0  502    0  0.00000000000E+00  0.00000000000E+00  0.11953287560E+04  0.11953287560E+04  0.00000000000E+00 0. -1.
          1   -1    0    0  501    0 -0.00000000000E+00 -0.00000000000E+00 -0.63749524854E+03  0.63749524854E+03  0.00000000000E+00 0. -1.
         25    2    1    2    0    0  0.70577835054E+02  0.10666753936E+03 -0.21487204136E+02  0.18012733471E+03  0.12499984805E+03 0.  0.
          2    1    1    2  501    0 -0.91428713911E+02 -0.10793044752E+03 -0.52726747896E+03  0.54591133492E+03  0.00000000000E+00 0. -1.
          1    1    1    2  502    0  0.20850878857E+02  0.12629081608E+01  0.11065881905E+04  0.11067853349E+04  0.00000000000E+00 0. -1.
         22    1    3    3    0    0 -0.35955958022E+02  0.36627713002E+02 -0.73668757173E+01  0.51852590435E+02  0.00000000000E+00 0. -1.
         22    1    3    3    0    0  0.10653379308E+03  0.70039826355E+02 -0.14120328419E+02  0.12827474427E+03  0.00000000000E+00 0. -1.
</event>
<event>
 7    1  0.6508013E-006  0.1126302E+03  0.7818608E-02  0.1332680E+00
          2   -1    0    0  502    0  0.00000000000E+00  0.00000000000E+00  0.45809966876E+03  0.45809966876E+03  0.00000000000E+00 0. -1.
          1   -1    0    0  501    0 -0.00000000000E+00 -0.00000000000E+00 -0.65455654804E+03  0.65455654804E+03  0.00000000000E+00 0. -1.
         25    2    1    2    0    0  0.10073316737E+03 -0.12810661067E+03 -0.16177422469E+02  0.20602785597E+03  0.12500917459E+03 0.  0.
          2    1    1    2  501    0 -0.76453139054E+02  0.78711316648E+02 -0.53577553945E+03  0.54689668358E+03  0.00000000000E+00 0. -1.
          1    1    1    2  502    0 -0.24280028317E+02  0.49395294023E+02  0.35549608264E+03  0.35973167726E+03  0.00000000000E+00 0. -1.
         22    1    3    3    0    0  0.12133200011E+03 -0.72865006791E+02 -0.31752272561E+02  0.14504816538E+03  0.00000000000E+00 0.  1.
         22    1    3    3    0    0 -0.20598832741E+02 -0.55241603880E+02  0.15574850091E+02  0.60979690593E+02  0.00000000000E+00 0.  1.
</event>
<event>
 7    1  0.6508013E-006  0.1546419E+03  0.7818608E-02  0.1236241E+00
          2   -1    0    0  502    0  0.00000000000E+00  0.00000000000E+00  0.21493969723E+04  0.21493969723E+04  0.00000000000E+00 0. -1.
          1   -1    0    0  501    0 -0.00000000000E+00 -0.00000000000E+00 -0.16872496470E+03  0.16872496470E+03  0.00000000000E+00 0. -1.
         25    2    1    2    0    0 -0.90385503901E+02  0.21833062468E+03  0.17721368787E+03  0.32072860627E+03  0.12499738688E+03 0.  0.
          2    1    1    2  501    0  0.66524131871E+02 -0.12138758775E+03 -0.45526051362E+02  0.14571557203E+03  0.00000000000E+00 0. -1.
          1    1    1    2  502    0  0.23861372030E+02 -0.96943036934E+02  0.18489843710E+04  0.18516777586E+04  0.00000000000E+00 0. -1.
         22    1    3    3    0    0 -0.24207283151E+02  0.12754577604E+03  0.16162368019E+03  0.20730685358E+03  0.00000000000E+00 0.  1.
         22    1    3    3    0    0 -0.66178220750E+02  0.90784848643E+02  0.15590007675E+02  0.11342175269E+03  0.00000000000E+00 0.  1.
</event>
<event>
 7    1  0.6508013E-006  0.5653948E+02  0.7818608E-02  0.1475101E+00
          2   -1    0    0  502    0  0.00000000000E+00  0.00000000000E+00  0.60266603359E+03  0.60266603359E+03  0.00000000000E+00 0. -1.
          1   -1    0    0  501    0 -0.00000000000E+00 -0.00000000000E+00 -0.11010065459E+04  0.11010065459E+04  0.00000000000E+00 0. -1.
         25    2    1    2    0    0  0.11063162687E+02 -0.64570880206E+02 -0.14491021218E+03  0.20227700040E+03  0.12500089263E+03 0.  0.
          2    1    1    2  501    0 -0.33325171777E+02  0.12585976154E+02 -0.92567660813E+03  0.92636178500E+03  0.00000000000E+00 0. -1.
          1    1    1    2  502    0  0.22262009090E+02  0.51984904052E+02  0.57224630801E+03  0.57503379408E+03  0.00000000000E+00 0. -1.
         22    1    3    3    0    0  0.67888725642E+02 -0.29072207767E+02 -0.69676136660E+02  0.10153243991E+03  0.00000000000E+00 0. -1.
         22    1    3    3    0    0 -0.56825562955E+02 -0.35498672438E+02 -0.75234075520E+02  0.10074456050E+03  0.00000000000E+00 0. -1.
</event>
<event>
 7    1  0.6508013E-006  0.1193967E+03  0.7818608E-02  0.1344932E+00
          2   -1    0    0  502    0  0.00000000000E+00  0.00000000000E+00  0.49778950083E+03  0.49778950083E+03  0.00000000000E+00 0. -1.
          1   -1    0    0  501    0 -0.00000000000E+00 -0.00000000000E+00 -0.47923104460E+03  0.47923104460E+03  0.00000000000E+00 0. -1.
         25    2    1    2    0    0 -0.40431135107E+02 -0.75901431102E+02  0.56310737406E+02  0.16184145597E+03  0.12500421511E+03 0.  0.
          2    1    1    2  501    0  0.24677491349E+02  0.11984682158E+03 -0.41622498859E+03  0.43383808079E+03  0.00000000000E+00 0. -1.
          1    1    1    2  502    0  0.15753643758E+02 -0.43945390480E+02  0.37847270741E+03  0.38134100867E+03  0.00000000000E+00 0. -1.
         22    1    3    3    0    0 -0.49748860928E+02 -0.31543794178E+02  0.88455157050E+02  0.10627452622E+03  0.00000000000E+00 0. -1.
         22    1    3    3    0    0  0.93177258206E+01 -0.44357636924E+02 -0.32144419644E+02  0.55566929753E+02  0.00000000000E+00 0. -1.
</event>
<event>
 7    1  0.6508013E-006  0.2725506E+02  0.7818608E-02  0.1666334E+00
          2   -1    0    0  502    0  0.00000000000E+00  0.00000000000E+00  0.94379059871E+03  0.94379059871E+03  0.00000000000E+00 0. -1.
          1   -1    0    0  501    0 -0.00000000000E+00 -0.00000000000E+00 -0.27628204301E+02  0.27628204301E+02  0.00000000000E+00 0. -1.
         25    2    1    2    0    0  0.25647879526E+02  0.25983766919E+02  0.70410009999E+03  0.71604093526E+03  0.12499880119E+03 0.  0.
          2    1    1    2  501    0 -0.26971344964E+02 -0.37604592843E+01 -0.12323155977E+02  0.29890712210E+02  0.00000000000E+00 0. -1.
          1    1    1    2  502    0  0.13234654378E+01 -0.22223307635E+02  0.22438545039E+03  0.22548715554E+03  0.00000000000E+00 0. -1.
         22    1    3    3    0    0 -0.12876080252E+02  0.27115208636E+01  0.62418238624E+03  0.62432106891E+03  0.00000000000E+00 0.  1.
         22    1    3    3    0    0  0.38523959778E+02  0.23272246056E+02  0.79917713749E+02  0.91719866356E+02  0.00000000000E+00 0.  1.
</event>
<event>
 7    1  0.6508013E-006  0.1676563E+03  0.7818608E-02  0.1245410E+00
          2   -1    0    0  502    0  0.00000000000E+00  0.00000000000E+00  0.82281823726E+03  0.82281823726E+03  0.00000000000E+00 0. -1.
          1   -1    0    0  501    0 -0.00000000000E+00 -0.00000000000E+00 -0.63106111229E+03  0.63106111229E+03  0.00000000000E+00 0. -1.
         25    2    1    2    0    0 -0.12258456696E+03 -0.94226432361E+01  0.13183627363E+03  0.21936669393E+03  0.12500072438E+03 0.  0.
          2    1    1    2  501    0  0.15842930398E+03 -0.66445619015E+02 -0.57189864025E+03  0.59714564335E+03  0.00000000000E+00 0. -1.
          1    1    1    2  502    0 -0.35844737012E+02  0.75868262251E+02  0.63181949159E+03  0.63736701228E+03  0.00000000000E+00 0. -1.
         22    1    3    3    0    0  0.94847329053E+01 -0.34690064097E+02  0.86125684166E+01  0.36980224987E+02  0.00000000000E+00 0. -1.
         22    1    3    3    0    0 -0.13206929987E+03  0.25267420861E+02  0.12322370521E+03  0.18238646894E+03  0.00000000000E+00 0. -1.
</event>
<event>
 7    1  0.6508013E-006  0.6316400E+02  0.7818608E-02  0.1463439E+00
          2   -1    0    0  502    0  0.00000000000E+00  0.00000000000E+00  0.27531729187E+03  0.27531729187E+03  0.00000000000E+00 0. -1.
          1   -1    0    0  501    0 -0.00000000000E+00 -0.00000000000E+00 -0.90621372321E+02  0.90621372321E+02  0.00000000000E+00 0. -1.
         25    2    1    2    0    0 -0.54559192271E+02  0.15672251667E+02  0.19212511505E+02  0.13862351599E+03  0.12500013461E+03 0.  0.
          2    1    1    2  501    0  0.11735798813E+02  0.32620690758E+02 -0.13381666687E+02  0.37160563002E+02  0.00000000000E+00 0. -1.
          1    1    1    2  502    0  0.42823393457E+02 -0.48292942425E+02  0.17886507473E+03  0.19015458520E+03  0.00000000000E+00 0. -1.
         22    1    3    3    0    0 -0.29094666230E+02 -0.40645271456E+02 -0.31149051291E+02  0.58896528684E+02  0.00000000000E+00 0. -1.
         22    1    3    3    0    0 -0.25464526041E+02  0.56317523123E+02  0.50361562796E+02  0.79726987303E+02  0.00000000000E+00 0. -1.
</event>
<event>
 7    1  0.6508013E-006  0.8932013E+02  0.7818608E-02  0.1312209E+00
          2   -1    0    0  502    0  0.00000000000E+00  0.00000000000E+00  0.21590926900E+03  0.21590926900E+03  0.00000000000E+00 0. -1.
          1   -1    0    0  501    0 -0.00000000000E+00 -0.00000000000E+00 -0.39588009282E+03  0.39588009282E+03  0.00000000000E+00 0. -1.
         25    2    1    2    0    0  0.10054466647E+03 -0.11727215171E+01 -0.59633331779E+02  0.17114755245E+03  0.12499898088E+03 0.  0.
          2    1    1    2  501    0 -0.41839986193E+02  0.72001238630E+02 -0.26022000278E+03  0.27322008099E+03  0.00000000000E+00 0. -1.
          1    1    1    2  502    0 -0.58704680272E+02 -0.70828517113E+02  0.13988251074E+03  0.16742172837E+03  0.00000000000E+00 0. -1.
         22    1    3    3    0    0 -0.47534297168E+01 -0.41066452600E+02 -0.38676514262E+02  0.56612025036E+02  0.00000000000E+00 0.  1.
         22    1    3    3    0    0  0.10529809618E+03  0.39893731083E+02 -0.20956817517E+02  0.11453552741E+03  0.00000000000E+00 0.  1.
</event>
<event>
 7    1  0.6508013E-006  0.1147931E+03  0.7818608E-02  0.1437875E+00
          2   -1    0    0  502    0  0.00000000000E+00  0.00000000000E+00  0.97924529375E+03  0.97924529375E+03  0.00000000000E+00 0. -1.
          1   -1    0    0  501    0 -0.00000000000E+00 -0.00000000000E+00 -0.98805174647E+03  0.98805174647E+03  0.00000000000E+00 0. -1.
         25    2    1    2    0    0  0.82693211230E+02  0.80999128129E+02 -0.20481363859E+03  0.26640712758E+03  0.12500042054E+03 0.  0.
          2    1    1    2  501    0 -0.64514831485E+02 -0.95130678775E+02 -0.74791043781E+03  0.75669150419E+03  0.00000000000E+00 0. -1.
          1    1    1    2  502    0 -0.18178379744E+02  0.14131550647E+02  0.94391762368E+03  0.94419840845E+03  0.00000000000E+00 0. -1.
         22    1    3    3    0    0  0.10359591611E+03  0.93990866140E+02 -0.19483950544E+03  0.23985168257E+03  0.00000000000E+00 0. -1.
         22    1    3    3    0    0 -0.20902704878E+02 -0.12991738012E+02 -0.99741331495E+01  0.26555445013E+02  0.00000000000E+00 0. -1.
</event>
<event>
 7    1  0.6508013E-006  0.9003281E+02  0.7818608E-02  0.1423330E+00
          2   -1    0    0  502    0  0.00000000000E+00  0.00000000000E+00  0.41592490622E+03  0.41592490622E+03  0.00000000000E+00 0. -1.
          1   -1    0    0  501    0 -0.00000000000E+00 -0.00000000000E+00 -0.14561862661E+03  0.14561862661E+03  0.00000000000E+00 0. -1.
         25    2    1    2    0    0 -0.55231232458E+02  0.54893911713E+02  0.23953428342E+02  0.14920672301E+03  0.12500019552E+03 0.  0.
          2    1    1    2  501    0 -0.28192236948E+02 -0.16717614654E+02 -0.73024882079E+02  0.80043202500E+02  0.00000000000E+00 0. -1.
          1    1    1    2  502    0  0.83423469406E+02 -0.38176297060E+02  0.31937773335E+03  0.33229360732E+03  0.00000000000E+00 0. -1.
         22    1    3    3    0    0 -0.63190563291E+02  0.15467851297E+02 -0.38000593831E+02  0.75341534656E+02  0.00000000000E+00 0. -1.
         22    1    3    3    0    0  0.79593308332E+01  0.39426060416E+02  0.61954022173E+02  0.73865188354E+02  0.00000000000E+00 0. -1.
</event>
<event>
 7    1  0.6508013E-006  0.2745766E+03  0.7818608E-02  0.1318543E+00
          2   -1    0    0  502    0  0.00000000000E+00  0.00000000000E+00  0.20284784706E+04  0.20284784706E+04  0.00000000000E+00 0. -1.
          1   -1    0    0  501    0 -0.00000000000E+00 -0.00000000000E+00 -0.11190782639E+03  0.11190782639E+03  0.00000000000E+00 0. -1.
         25    2    1    2    0    0  0.14274657882E+03 -0.25665509091E+03  0.66796772681E+03  0.74030684231E+03  0.12499966105E+03 0.  0.
          2    1    1    2  501    0 -0.12922161990E+03  0.23493287449E+03  0.16218838288E+03  0.31336361325E+03  0.00000000000E+00 0. -1.
          1    1    1    2  502    0 -0.13524958917E+02  0.21722216423E+02  0.10864145345E+04  0.10867158414E+04  0.00000000000E+00 0. -1.
         22    1    3    3    0    0  0.13911482084E+03 -0.22414711719E+03  0.65311579844E+03  0.70438278634E+03  0.00000000000E+00 0.  1.
         22    1    3    3    0    0  0.36317579752E+01 -0.32507973715E+02  0.14851928371E+02  0.35924055971E+02  0.00000000000E+00 0.  1.
</event>
<event>
 7    1  0.6508013E-006  0.1883274E+03  0.7818608E-02  0.1349387E+00
          2   -1    0    0  502    0  0.00000000000E+00  0.00000000000E+00  0.31874821844E+03  0.31874821844E+03  0.00000000000E+00 0. -1.
          1   -1    0    0  501    0 -0.00000000000E+00 -0.00000000000E+00 -0.62654160808E+03  0.62654160808E+03  0.00000000000E+00 0. -1.
         25    2    1    2    0    0 -0.16875285884E+03  0.10142285550E+03 -0.34062417837E+03  0.41280940212E+03  0.12499059404E+03 0.  0.
          2    1    1    2  501    0  0.14235940809E+03 -0.11214493734E+03 -0.21603923933E+03  0.28198517864E+03  0.00000000000E+00 0. -1.
          1    1    1    2  502    0  0.26393450745E+02  0.10722081841E+02  0.24887002806E+03  0.25049524576E+03  0.00000000000E+00 0. -1.
         22    1    3    3    0    0 -0.17399572744E+02 -0.28272864422E+02 -0.38209372229E+02  0.50616757309E+02  0.00000000000E+00 0.  1.
         22    1    3    3    0    0 -0.15135328610E+03  0.12969571992E+03 -0.30241480614E+03  0.36219264481E+03  0.00000000000E+00 0.  1.
</event>
<event>
 7    1  0.6508013E-006  0.7294909E+02  0.7818608E-02  0.1361051E+00
          2   -1    0    0  502    0  0.00000000000E+00  0.00000000000E+00  0.63137625890E+02  0.63137625890E+02  0.00000000000E+00 0. -1.
          1   -1    0    0  501    0 -0.00000000000E+00 -0.00000000000E+00 -0.66760653521E+03  0.66760653521E+03  0.00000000000E+00 0. -1.
         25    2    1    2    0    0 -0.91873685562E+02  0.40671134612E+02 -0.45768257673E+03  0.48496775477E+03  0.12500186732E+03 0.  0.
          2    1    1    2  501    0  0.61601044779E+02  0.25400284744E+02 -0.15870848550E+03  0.17212857564E+03  0.00000000000E+00 0. -1.
          1    1    1    2  502    0  0.30272640783E+02 -0.66071419357E+02  0.11922152906E+02  0.73647830692E+02  0.00000000000E+00 0. -1.
         22    1    3    3    0    0 -0.69633015581E+02  0.75700175273E+02 -0.40527278489E+03  0.41812115896E+03  0.00000000000E+00 0.  1.
         22    1    3    3    0    0 -0.22240669981E+02 -0.35029040661E+02 -0.52409791835E+02  0.66846595808E+02  0.00000000000E+00 0.  1.
</event>
<event>
 7    1  0.6508013E-006  0.9059906E+02  0.7818608E-02  0.1401710E+00
          2   -1    0    0  502    0  0.00000000000E+00  0.00000000000E+00  0.19722932826E+04  0.19722932826E+04  0.00000000000E+00 0. -1.
          1   -1    0    0  501    0 -0.00000000000E+00 -0.00000000000E+00 -0.83746703754E+02  0.83746703754E+02  0.00000000000E+00 0. -1.
         25    2    1    2    0    0 -0.35640462386E+02  0.98111108911E+02  0.56267343805E+02  0.17231066841E+03  0.12501567988E+03 0.  0.
          2    1    1    2  501    0  0.54484899739E+02 -0.64499878223E+02  0.44325329765E+02  0.95360229913E+02  0.00000000000E+00 0. -1.
          1    1    1    2  502    0 -0.18844437353E+02 -0.33611230688E+02  0.17879539053E+04  0.17883690881E+04  0.00000000000E+00 0. -1.
         22    1    3    3    0    0  0.22765908812E+02 -0.95069881687E+01  0.42435638596E+02  0.49086177801E+02  0.00000000000E+00 0.  1.
         22    1    3    3    0    0 -0.58406371199E+02  0.10761809708E+03  0.13831705209E+02  0.12322449060E+03  0.00000000000E+00 0.  1.
</event>
<event>
 7    1  0.6508013E-006  0.1881892E+03  0.7818608E-02  0.1227899E+00
          2   -1    0    0  502    0  0.00000000000E+00  0.00000000000E+00  0.19722907068E+04  0.19722907068E+04  0.00000000000E+00 0. -1.
          1   -1    0    0  501    0 -0.00000000000E+00 -0.00000000000E+00 -0.32330558171E+03  0.32330558171E+03  0.00000000000E+00 0. -1.
         25    2    1    2    0    0 -0.81339731934E+01  0.11708158419E+03  0.11724733725E+04  0.11849443728E+04  0.12500039457E+03 0.  0.
          2    1    1    2  501    0  0.77367784855E+02 -0.17362867213E+03 -0.28573203728E+03  0.34318433392E+03  0.00000000000E+00 0. -1.
          1    1    1    2  502    0 -0.69233811661E+02  0.56547087942E+02  0.76224378994E+03  0.76746758181E+03  0.00000000000E+00 0. -1.
         22    1    3    3    0    0 -0.18285777290E+01 -0.26235119135E+02  0.25057798987E+03  0.25195427002E+03  0.00000000000E+00 0.  1.
         22    1    3    3    0    0 -0.63053954644E+01  0.14331670333E+03  0.92189538258E+03  0.93299010278E+03  0.00000000000E+00 0.  1.
</event>
<event>
 7    1  0.6508013E-006  0.1554919E+03  0.7818608E-02  0.1292948E+00
          2   -1    0    0  502    0  0.00000000000E+00  0.00000000000E+00  0.13755975446E+04  0.13755975446E+04  0.00000000000E+00 0. -1.
          1   -1    0    0  501    0 -0.00000000000E+00 -0.00000000000E+00 -0.66984263435E+03  0.66984263435E+03  0.00000000000E+00 0. -1.
         25    2    1    2    0    0  0.74326877181E+02  0.16420545229E+03 -0.20272285399E+01  0.21935408585E+03  0.12499676032E+03 0.  0.
          2    1    1    2  501    0 -0.10258623084E+03 -0.11460091967E+03 -0.54791383151E+03  0.56909302606E+03  0.00000000000E+00 0. -1.
          1    1    1    2  502    0  0.28259353662E+02 -0.49604532617E+02  0.12556959703E+04  0.12569930670E+04  0.00000000000E+00 0. -1.
         22    1    3    3    0    0  0.79987435302E+02  0.12046280771E+03 -0.51107781478E+02  0.15336649952E+03  0.00000000000E+00 0. -1.
         22    1    3    3    0    0 -0.56605581210E+01  0.43742644580E+02  0.49080552938E+02  0.65987586331E+02  0.00000000000E+00 0. -1.
</event>
<event>
 7    1  0.6508013E-006  0.5810128E+02  0.7818608E-02  0.1541336E+00
          2   -1    0    0  502    0  0.00000000000E+00  0.00000000000E+00  0.16686481672E+04  0.16686481672E+04  0.00000000000E+00 0. -1.
          1   -1    0    0  501    0 -0.00000000000E+00 -0.00000000000E+00 -0.28635437438E+03  0.28635437438E+03  0.00000000000E+00 0. -1.
         25    2    1    2    0    0  0.32809689898E+02 -0.15433238719E+02 -0.76037899868E+02  0.15072892166E+03  0.12499113969E+03 0.  0.
          2    1    1    2  501    0  0.21177466279E+02 -0.63110277506E+01 -0.17174370898E+03  0.17315950948E+03  0.00000000000E+00 0. -1.
          1    1    1    2  502    0 -0.53987156178E+02  0.21744266470E+02  0.16300754017E+04  0.16311141105E+04  0.00000000000E+00 0. -1.
         22    1    3    3    0    0  0.68583607983E+02  0.26406085583E+02 -0.55018309978E+02  0.91804177861E+02  0.00000000000E+00 0. -1.
         22    1    3    3    0    0 -0.35773918085E+02 -0.41839324302E+02 -0.21019589890E+02  0.58924743804E+02  0.00000000000E+00 0. -1.
</event>
<event>
 7    1  0.6508013E-006  0.1229481E+03  0.7818608E-02  0.1278534E+00
          2   -1    0    0  502    0  0.00000000000E+00  0.00000000000E+00  0.10782449719E+04  0.10782449719E+04  0.00000000000E+00 0. -1.
          1   -1    0    0  501    0 -0.00000000000E+00 -0.00000000000E+00 -0.14359575289E+04  0.14359575289E+04  0.00000000000E+00 0. -1.
         25    2    1    2    0    0 -0.91570648776E+02 -0.71229124443E+02 -0.65671080167E+02  0.18274784779E+03  0.12500125286E+03 0.  0.
          2    1    1    2  501    0  0.65854676523E+02 -0.50043039615E+02 -0.13066678329E+04  0.13092829984E+04  0.00000000000E+00 0. -1.
          1    1    1    2  502    0  0.25715972253E+02  0.12127216406E+03  0.10146263561E+04  0.10221716546E+04  0.00000000000E+00 0. -1.
         22    1    3    3    0    0 -0.53289773464E+02 -0.33525120582E+02 -0.10058935753E+03  0.11866740291E+03  0.00000000000E+00 0.  1.
         22    1    3    3    0    0 -0.38280875313E+02 -0.37704003861E+02  0.34918277363E+02  0.64080444879E+02  0.00000000000E+00 0.  1.
</event>
<event>
 7    1  0.6508013E-006  0.6977511E+02  0.7818608E-02  0.1493241E+00
          2   -1    0    0  502    0  0.00000000000E+00  0.00000000000E+00  0.23820025205E+03  0.23820025205E+03  0.00000000000E+00 0. -1.
          1   -1    0    0  501    0 -0.00000000000E+00 -0.00000000000E+00 -0.95755390821E+02  0.95755390821E+02  0.00000000000E+00 0. -1.
         25    2    1    2    0    0  0.80904068720E+02 -0.44392195860E+02  0.13844796104E+03  0.20810388583E+03  0.12499301578E+03 0.  0.
          2    1    1    2  501    0 -0.60601000510E+02  0.29108622447E+02 -0.37657303322E+02  0.77057547697E+02  0.00000000000E+00 0. -1.
          1    1    1    2  502    0 -0.20303068210E+02  0.15283573413E+02  0.41654203511E+02  0.48794209340E+02  0.00000000000E+00 0. -1.
         22    1    3    3    0    0  0.71175573224E+02 -0.52530513720E+02  0.16015557452E+03  0.18296235991E+03  0.00000000000E+00 0. -1.
         22    1    3    3    0    0  0.97284954958E+01  0.81383178608E+01 -0.21707613484E+02  0.25141525916E+02  0.00000000000E+00 0. -1.
</event>
<event>
 7    1  0.6508013E-006  0.5863782E+02  0.7818608E-02  0.1424151E+00
          2   -1    0    0  502    0  0.00000000000E+00  0.00000000000E+00  0.30743824022E+03  0.30743824022E+03  0.00000000000E+00 0. -1.
          1   -1    0    0  501    0 -0.00000000000E+00 -0.00000000000E+00 -0.42700118464E+03  0.42700118464E+03  0.00000000000E+00 0. -1.
         25    2    1    2    0    0  0.52222123303E+02 -0.98824529307E+01 -0.20219729300E+03  0.24358797844E+03  0.12500617946E+03 0.  0.
          2    1    1    2  501    0 -0.31655904635E+02  0.55467825974E+02 -0.19683816375E+03  0.20693969828E+03  0.00000000000E+00 0. -1.
          1    1    1    2  502    0 -0.20566218668E+02 -0.45585373043E+02  0.27947251233E+03  0.28391174814E+03  0.00000000000E+00 0. -1.
         22    1    3    3    0    0  0.20293992226E+02 -0.65968022325E+02 -0.82169550019E+02  0.10731011621E+03  0.00000000000E+00 0. -1.
         22    1    3    3    0    0  0.31928131077E+02  0.56085569394E+02 -0.12002774298E+03  0.13627786223E+03  0.00000000000E+00 0. -1.
</event>
<event>
 7    1  0.6508013E-006  0.1304261E+03  0.7818608E-02  0.1298919E+00
          2   -1    0    0  502    0  0.00000000000E+00  0.00000000000E+00  0.29722893027E+04  0.29722893027E+04  0.00000000000E+00 0. -1.
          1   -1    0    0  501    0 -0.00000000000E+00 -0.00000000000E+00 -0.35626024265E+03  0.35626024265E+03  0.00000000000E+00 0. -1.
         25    2    1    2    0    0 -0.89082288305E+02  0.41227886682E+02  0.23434198047E+03  0.28315554007E+03  0.12500201330E+03 0.  0.
          2    1    1    2  501    0  0.80904092082E+02 -0.10509970851E+03 -0.31820181756E+03  0.34473731673E+03  0.00000000000E+00 0. -1.
          1    1    1    2  502    0  0.81781962228E+01  0.63871821824E+02  0.26998888972E+04  0.27006566886E+04  0.00000000000E+00 0. -1.
         22    1    3    3    0    0 -0.63741219452E+02  0.67368041093E+02  0.22807830505E+03  0.24621354401E+03  0.00000000000E+00 0.  1.
         22    1    3    3    0    0 -0.25341068853E+02 -0.26140154411E+02  0.62636754237E+01  0.36941996062E+02  0.00000000000E+00 0.  1.
</event>
<event>
 7    1  0.6508013E-006  0.3254552E+02  0.7818608E-02  0.1621683E+00
          2   -1    0    0  502    0  0.00000000000E+00  0.00000000000E+00  0.27107355771E+04  0.27107355771E+04  0.00000000000E+00 0. -1.
          1   -1    0    0  501    0 -0.00000000000E+00 -0.00000000000E+00 -0.98380659706E+01  0.98380659706E+01  0.00000000000E+00 0. -1.
         25    2    1    2    0    0 -0.37745758836E+02 -0.14814893537E+02  0.20726724763E+04  0.20768340711E+04  0.12499736596E+03 0.  0.
          2    1    1    2  501    0  0.66126907104E+01  0.23109359960E+02  0.12352903202E+02  0.27025255109E+02  0.00000000000E+00 0. -1.
          1    1    1    2  502    0  0.31133068126E+02 -0.82944664232E+01  0.61587213162E+03  0.61671431685E+03  0.00000000000E+00 0. -1.
         22    1    3    3    0    0  0.28531796329E+02 -0.10018608945E+02  0.15021753390E+03  0.15323101323E+03  0.00000000000E+00 0. -1.
         22    1    3    3    0    0 -0.66277555165E+02 -0.47962845923E+01  0.19224549424E+04  0.19236030579E+04  0.00000000000E+00 0. -1.
</event>
<event>
 7    1  0.6508013E-006  0.7256476E+02  0.7818608E-02  0.1419323E+00
          2   -1    0    0  502    0  0.00000000000E+00  0.00000000000E+00  0.11294146738E+04  0.11294146738E+04  0.00000000000E+00 0. -1.
          1   -1    0    0  501    0 -0.00000000000E+00 -0.00000000000E+00 -0.39741118175E+02  0.39741118175E+02  0.00000000000E+00 0. -1.
         25    2    1    2    0    0 -0.21444259156E+02  0.76546691736E+02  0.30849965205E+03  0.34222296740E+03  0.12500108733E+03 0.  0.
          2    1    1    2  501    0 -0.32087692617E+02 -0.27001003601E+02 -0.42403693179E+00  0.41938693593E+02  0.00000000000E+00 0. -1.
          1    1    1    2  502    0  0.53531951773E+02 -0.49545688134E+02  0.78159794050E+03  0.78499413097E+03  0.00000000000E+00 0. -1.
         22    1    3    3    0    0  0.21641450099E+02  0.66544974962E+02  0.67595892107E+02  0.97292295095E+02  0.00000000000E+00 0. -1.
         22    1    3    3    0    0 -0.43085709255E+02  0.10001716773E+02  0.24090375995E+03  0.24493067231E+03  0.00000000000E+00 0. -1.
</event>
<event>
 7    1  0.6508013E-006  0.9416105E+02  0.7818608E-02  0.1313685E+00
          2   -1    0    0  502    0  0.00000000000E+00  0.00000000000E+00  0.16287280688E+04  0.16287280688E+04  0.00000000000E+00 0. -1.
          1   -1    0    0  501    0 -0.00000000000E+00 -0.00000000000E+00 -0.37640648644E+03  0.37640648644E+03  0.00000000000E+00 0. -1.
         25    2    1    2    0    0 -0.91384289223E+02  0.85625459198E+02  0.12792911693E+02  0.17738723301E+03  0.12497905530E+03 0.  0.
          2    1    1    2  501    0  0.77592146033E+02  0.74401321042E+01 -0.28747133771E+03  0.29785175289E+03  0.00000000000E+00 0. -1.
          1    1    1    2  502    0  0.13792143189E+02 -0.93065591303E+02  0.15270000084E+04  0.15298955694E+04  0.00000000000E+00 0. -1.
         22    1    3    3    0    0 -0.75524267139E+02  0.61726033198E+02 -0.49077986766E+02  0.10919096522E+03  0.00000000000E+00 0. -1.
         22    1    3    3    0    0 -0.15860022084E+02  0.23899426000E+02  0.61870898459E+02  0.68196267785E+02  0.00000000000E+00 0. -1.
</event>
<event>
 7    1  0.6508013E-006  0.1161444E+03  0.7818608E-02  0.1453275E+00
          2   -1    0    0  502    0  0.00000000000E+00  0.00000000000E+00  0.14636505101E+04  0.14636505101E+04  0.00000000000E+00 0. -1.
          1   -1    0    0  501    0 -0.00000000000E+00 -0.00000000000E+00 -0.94073438186E+03  0.94073438186E+03  0.00000000000E+00 0. -1.
         25    2    1    2    0    0 -0.98267736132E+01 -0.13481448936E+03  0.19304292141E+03  0.26676269573E+03  0.12500101721E+03 0.  0.
          2    1    1    2  501    0  0.14132409559E+02  0.11497455937E+03 -0.90007889335E+03  0.90750255568E+03  0.00000000000E+00 0. -1.
          1    1    1    2  502    0 -0.43056359455E+01  0.19839929998E+02  0.12299521002E+04  0.12301196405E+04  0.00000000000E+00 0. -1.
         22    1    3    3    0    0  0.11109448991E+02  0.55860722259E+01 -0.12063404567E+02  0.17324831588E+02  0.00000000000E+00 0. -1.
         22    1    3    3    0    0 -0.20936222605E+02 -0.14040056159E+03  0.20510632598E+03  0.24943786414E+03  0.00000000000E+00 0. -1.
</event>
<event>
 7    1  0.6508013E-006  0.9588891E+02  0.7818608E-02  0.1350290E+00
          2   -1    0    0  502    0  0.00000000000E+00  0.00000000000E+00  0.17795378854E+04  0.17795378854E+04  0.00000000000E+00 0. -1.
          1   -1    0    0  501    0 -0.00000000000E+00 -0.00000000000E+00 -0.24968376269E+03  0.24968376269E+03  0.00000000000E+00 0. -1.
         25    2    1    2    0    0  0.59380478598E+01  0.68595466618E+02  0.13300720726E+03  0.19507947084E+03  0.12499793721E+03 0.  0.
          2    1    1    2  501    0  0.54970110142E+02  0.78098140414E+01 -0.21361810270E+03  0.22071565419E+03  0.00000000000E+00 0. -1.
          1    1    1    2  502    0 -0.60908158002E+02 -0.76405280660E+02  0.16104650181E+04  0.16134265230E+04  0.00000000000E+00 0. -1.
         22    1    3    3    0    0 -0.23479870311E+02  0.94532121711E+02  0.11818926957E+03  0.15315459440E+03  0.00000000000E+00 0.  1.
         22    1    3    3    0    0  0.29417918171E+02 -0.25936655093E+02  0.14817937697E+02  0.41924876440E+02  0.00000000000E+00 0.  1.
</event>
<event>
 7    1  0.6508013E-006  0.7803581E+02  0.7818608E-02  0.1347119E+00
          2   -1    0    0  502    0  0.00000000000E+00  0.00000000000E+00  0.56663382008E+03  0.56663382008E+03  0.00000000000E+00 0. -1.
          1   -1    0    0  501    0 -0.00000000000E+00 -0.00000000000E+00 -0.19775601671E+04  0.19775601671E+04  0.00000000000E+00 0. -1.
         25    2    1    2    0    0  0.10045296365E+02  0.38819354254E+02  0.19111906809E+02  0.13267273947E+03  0.12501576130E+03 0.  0.
          2    1    1    2  501    0 -0.67503088769E+02  0.18900654926E+02 -0.19167555646E+04  0.19180369642E+04  0.00000000000E+00 0. -1.
          1    1    1    2  502    0  0.57457792404E+02 -0.57720009180E+02  0.48671731080E+03  0.49348428344E+03  0.00000000000E+00 0. -1.
         22    1    3    3    0    0 -0.42938686319E+01  0.78983815247E+02 -0.11833982942E+02  0.79980769758E+02  0.00000000000E+00 0.  1.
         22    1    3    3    0    0  0.14339164997E+02 -0.40164460993E+02  0.30945889751E+02  0.52691969712E+02  0.00000000000E+00 0.  1.
</event>
<event>
 7    1  0.6508013E-006  0.5116201E+02  0.7818608E-02  0.1461138E+00
          2   -1    0    0  502    0  0.00000000000E+00  0.00000000000E+00  0.20976428916E+03  0.20976428916E+03  0.00000000000E+00 0. -1.
          1   -1    0    0  501    0 -0.00000000000E+00 -0.00000000000E+00 -0.13736392452E+03  0.13736392452E+03  0.00000000000E+00 0. -1.
         25    2    1    2    0    0  0.64093785313E+01  0.25502381870E+02 -0.62954246650E+02  0.14240867643E+03  0.12500216933E+03 0.  0.
          2    1    1    2  501    0  0.42960928511E+02 -0.69484331135E+01 -0.14486742138E+02  0.45867066606E+02  0.00000000000E+00 0. -1.
          1    1    1    2  502    0 -0.49370307043E+02 -0.18553948756E+02  0.14984135343E+03  0.15885247064E+03  0.00000000000E+00 0. -1.
         22    1    3    3    0    0  0.26063479970E+02  0.44579306790E+02 -0.90097842119E+02  0.10384719898E+03  0.00000000000E+00 0.  1.
         22    1    3    3    0    0 -0.19654101439E+02 -0.19076924921E+02  0.27143595469E+02  0.38561477445E+02  0.00000000000E+00 0.  1.
</event>
<event>
 7    1  0.6508013E-006  0.1038537E+03  0.7818608E-02  0.1313577E+00
          2   -1    0    0  502    0  0.00000000000E+00  0.00000000000E+00  0.90258890004E+02  0.90258890004E+02  0.00000000000E+00 0. -1.
          1   -1    0    0  501    0 -0.00000000000E+00 -0.00000000000E+00 -0.96762159915E+03  0.96762159915E+03  0.00000000000E+00 0. -1.
         25    2    1    2    0    0  0.78586473671E+02  0.60530301411E+02 -0.33942021418E+03  0.37506182819E+03  0.12500216772E+03 0.  0.
          2    1    1    2  501    0 -0.25564659639E+02 -0.10736074338E+03 -0.58664329046E+03  0.59693402591E+03  0.00000000000E+00 0. -1.
          1    1    1    2  502    0 -0.53021814032E+02  0.46830441973E+02  0.48700795493E+02  0.85884635065E+02  0.00000000000E+00 0. -1.
         22    1    3    3    0    0  0.88844780884E+02  0.53841759140E+02 -0.13533903486E+03  0.17061355302E+03  0.00000000000E+00 0. -1.
         22    1    3    3    0    0 -0.10258307213E+02  0.66885422710E+01 -0.20408117932E+03  0.20444827517E+03  0.00000000000E+00 0. -1.
</event>
<event>
 7    1  0.6508013E-006  0.9619811E+02  0.7818608E-02  0.1347888E+00
          2   -1    0    0  502    0  0.00000000000E+00  0.00000000000E+00  0.26582012397E+04  0.26582012397E+04  0.00000000000E+00 0. -1.
          1   -1    0    0  501    0 -0.00000000000E+00 -0.00000000000E+00 -0.77813976109E+02  0.77813976109E+02  0.00000000000E+00 0. -1.
         25    2    1    2    0    0 -0.12693261318E+03 -0.55516669509E+02  0.14924104938E+04  0.15040305321E+04  0.12499908230E+03 0.  0.
          2    1    1    2  501    0  0.55795003983E+02  0.88397622097E+01 -0.59100442744E+02  0.81756260910E+02  0.00000000000E+00 0. -1.
          1    1    1    2  502    0  0.71137609193E+02  0.46676907299E+02  0.11470772125E+04  0.11502284228E+04  0.00000000000E+00 0. -1.
         22    1    3    3    0    0 -0.12170747430E+03 -0.87740518016E+02  0.13249341777E+04  0.13334022960E+04  0.00000000000E+00 0. -1.
         22    1    3    3    0    0 -0.52251388708E+01  0.32223848507E+02  0.16747631608E+03  0.17062823605E+03  0.00000000000E+00 0. -1.
</event>
<event>
 7    1  0.6508013E-006  0.1309708E+03  0.7818608E-02  0.1262039E+00
          2   -1    0    0  502    0  0.00000000000E+00  0.00000000000E+00  0.23427874580E+03  0.23427874580E+03  0.00000000000E+00 0. -1.
          1   -1    0    0  501    0 -0.00000000000E+00 -0.00000000000E+00 -0.13071285221E+04  0.13071285221E+04  0.00000000000E+00 0. -1.
         25    2    1    2    0    0  0.53515410323E+02  0.36947850745E+02 -0.28404486875E+03  0.31707332015E+03  0.12499984027E+03 0.  0.
          2    1    1    2  501    0 -0.13756577428E+03 -0.71997820254E+02 -0.99073046909E+03  0.10028234594E+04  0.00000000000E+00 0. -1.
          1    1    1    2  502    0  0.84050363961E+02  0.35049969509E+02  0.20192556154E+03  0.22151048835E+03  0.00000000000E+00 0. -1.
         22    1    3    3    0    0  0.76632867907E+02  0.52074148521E+02 -0.12470659583E+03  0.15535780776E+03  0.00000000000E+00 0.  1.
         22    1    3    3    0    0 -0.23117457585E+02 -0.15126297775E+02 -0.15933827292E+03  0.16171551239E+03  0.00000000000E+00 0.  1.
</event>
<event>
 7    1  0.6508013E-006  0.6720529E+02  0.7818608E-02  0.1380908E+00
          2   -1    0    0  502    0  0.00000000000E+00  0.00000000000E+00  0.72939966438E+03  0.72939966438E+03  0.00000000000E+00 0. -1.
          1   -1    0    0  501    0 -0.00000000000E+00 -0.00000000000E+00 -0.77332042999E+02  0.77332042999E+02  0.00000000000E+00 0. -1.
         25    2    1    2    0    0  0.86829427139E+02  0.53415839056E+02  0.22796785129E+03  0.27926203578E+03  0.12500136849E+03 0.  0.
          2    1    1    2  501    0 -0.60999188788E+02  0.68093498849E+01 -0.30243665611E+02  0.68424758591E+02  0.00000000000E+00 0. -1.
          1    1    1    2  502    0 -0.25830238351E+02 -0.60225188940E+02  0.45434343570E+03  0.45904491301E+03  0.00000000000E+00 0. -1.
         22    1    3    3    0    0  0.29835756745E+01  0.14786787689E+02  0.16910422392E+03  0.16977570309E+03  0.00000000000E+00 0.  1.
         22    1    3    3    0    0  0.83845851464E+02  0.38629051367E+02  0.58863627377E+02  0.10948633269E+03  0.00000000000E+00 0.  1.
</event>
<event>
 7    1  0.6508013E-006  0.9203865E+02  0.7818608E-02  0.1331481E+00
          2   -1    0    0  502    0  0.00000000000E+00  0.00000000000E+00  0.13206390990E+04  0.13206390990E+04  0.00000000000E+00 0. -1.
          1   -1    0    0  501    0 -0.00000000000E+00 -0.00000000000E+00 -0.42229705186E+03  0.42229705186E+03  0.00000000000E+00 0. -1.
         25    2    1    2    0    0 -0.88282090556E+02  0.65494047126E+02 -0.92180508239E+02  0.19027590177E+03  0.12499789987E+03 0.  0.
          2    1    1    2  501    0  0.24434415534E+02 -0.89083718639E+02 -0.27253793545E+03  0.28776705136E+03  0.00000000000E+00 0. -1.
          1    1    1    2  502    0  0.63847675022E+02  0.23589671512E+02  0.12630604908E+04  0.12648931977E+04  0.00000000000E+00 0. -1.
         22    1    3    3    0    0 -0.40657420404E+02 -0.33586602311E+02 -0.11661395714E+02  0.54009942036E+02  0.00000000000E+00 0.  1.
         22    1    3    3    0    0 -0.47624670151E+02  0.99080649437E+02 -0.80519112525E+02  0.13626595973E+03  0.00000000000E+00 0.  1.
</event>
<event>
 7    1  0.6508013E-006  0.5720574E+02  0.7818608E-02  0.1548182E+00
          2   -1    0    0  502    0  0.00000000000E+00  0.00000000000E+00  0.50550073333E+02  0.50550073333E+02  0.00000000000E+00 0. -1.
          1   -1    0    0  501    0 -0.00000000000E+00 -0.00000000000E+00 -0.18183462795E+04  0.18183462795E+04  0.00000000000E+00 0. -1.
         25    2    1    2    0    0  0.63609208844E+02 -0.20837903448E+02 -0.10547948447E+04  0.10642820787E+04  0.12499531572E+03 0.  0.
          2    1    1    2  501    0 -0.65159331290E+01  0.20459201375E+02 -0.74080055931E+03  0.74111166836E+03  0.00000000000E+00 0. -1.
          1    1    1    2  502    0 -0.57093275715E+02  0.37870207297E+00  0.27799197805E+02  0.63502605818E+02  0.00000000000E+00 0. -1.
         22    1    3    3    0    0  0.10190454459E+03 -0.14563621038E+02 -0.75414513599E+03  0.76113830636E+03  0.00000000000E+00 0.  1.
         22    1    3    3    0    0 -0.38295335742E+02 -0.62742824102E+01 -0.30064970869E+03  0.30314377231E+03  0.00000000000E+00 0.  1.
</event>
<event>
 7    1  0.6508013E-006  0.6469920E+02  0.7818608E-02  0.1504058E+00
          2   -1    0    0  502    0  0.00000000000E+00  0.00000000000E+00  0.15740691973E+03  0.15740691973E+03  0.00000000000E+00 0. -1.
          1   -1    0    0  501    0 -0.00000000000E+00 -0.00000000000E+00 -0.17439585862E+03  0.17439585862E+03  0.00000000000E+00 0. -1.
         25    2    1    2    0    0  0.53982158856E+02  0.40624589267E+02  0.35517392525E+02  0.14646131646E+03  0.12500000528E+03 0.  0.
          2    1    1    2  501    0 -0.62670072187E+02 -0.16714351819E+02 -0.10704460183E+03  0.12516171254E+03  0.00000000000E+00 0. -1.
          1    1    1    2  502    0  0.86879133312E+01 -0.23910237448E+02  0.54538270409E+02  0.60179749352E+02  0.00000000000E+00 0. -1.
         22    1    3    3    0    0  0.92087913718E+02  0.89809841327E+01  0.24640421116E+02  0.95749633324E+02  0.00000000000E+00 0.  1.
         22    1    3    3    0    0 -0.38105754862E+02  0.31643605134E+02  0.10876971409E+02  0.50711683136E+02  0.00000000000E+00 0.  1.
</event>
<event>
 7    1  0.6508013E-006  0.7954033E+02  0.7818608E-02  0.1340107E+00
          2   -1    0    0  502    0  0.00000000000E+00  0.00000000000E+00  0.46746874084E+03  0.46746874084E+03  0.00000000000E+00 0. -1.
          1   -1    0    0  501    0 -0.00000000000E+00 -0.00000000000E+00 -0.36035850908E+03  0.36035850908E+03  0.00000000000E+00 0. -1.
         25    2    1    2    0    0  0.88038875723E+01  0.40876156290E+02  0.51858368143E+02  0.14164264729E+03  0.12499992238E+03 0.  0.
          2    1    1    2  501    0 -0.70598357911E+02  0.18786374834E+02 -0.30613432965E+03  0.31473049393E+03  0.00000000000E+00 0. -1.
          1    1    1    2  502    0  0.61794470339E+02 -0.59662531125E+02  0.36138619327E+03  0.37145410870E+03  0.00000000000E+00 0. -1.
         22    1    3    3    0    0  0.31311342389E+01  0.86015822796E+02  0.29828617621E+02  0.91094852774E+02  0.00000000000E+00 0. -1.
         22    1    3    3    0    0  0.56727533334E+01 -0.45139666505E+02  0.22029750522E+02  0.50547794518E+02  0.00000000000E+00 0. -1.
</event>
<event>
 7    1  0.6508013E-006  0.7434933E+02  0.7818608E-02  0.1375792E+00
          2   -1    0    0  502    0  0.00000000000E+00  0.00000000000E+00  0.70323802374E+03  0.70323802374E+03  0.00000000000E+00 0. -1.
          1   -1    0    0  501    0 -0.00000000000E+00 -0.00000000000E+00 -0.16165600965E+04  0.16165600965E+04  0.00000000000E+00 0. -1.
         25    2    1    2    0    0 -0.71104288789E+02 -0.10907102424E+03 -0.77444614077E+03  0.79519321971E+03  0.12495248497E+03 0.  0.
          2    1    1    2  501    0  0.40199100518E+02  0.41601116039E+02 -0.82874204271E+03  0.83075868572E+03  0.00000000000E+00 0. -1.
          1    1    1    2  502    0  0.30905188271E+02  0.67469908205E+02  0.68986611069E+03  0.69384621484E+03  0.00000000000E+00 0. -1.
         22    1    3    3    0    0  0.10434677322E+02 -0.69596141484E+01 -0.31851382319E+01  0.12940781486E+02  0.00000000000E+00 0.  1.
         22    1    3    3    0    0 -0.81538966111E+02 -0.10211141010E+03 -0.77126100254E+03  0.78225243822E+03  0.00000000000E+00 0.  1.
</event>
<event>
 7    1  0.6508013E-006  0.3522437E+02  0.7818608E-02  0.1632617E+00
          2   -1    0    0  502    0  0.00000000000E+00  0.00000000000E+00  0.55364423070E+03  0.55364423070E+03  0.00000000000E+00 0. -1.
          1   -1    0    0  501    0 -0.00000000000E+00 -0.00000000000E+00 -0.53271619513E+03  0.53271619513E+03  0.00000000000E+00 0. -1.
         25    2    1    2    0    0  0.38583611006E+00 -0.32851520103E+02  0.18491860349E+03  0.22561004051E+03  0.12500251684E+03 0.  0.
          2    1    1    2  501    0 -0.20541945632E+02  0.35208748499E+01 -0.51124871547E+03  0.51167335006E+03  0.00000000000E+00 0. -1.
          1    1    1    2  502    0  0.20156109522E+02  0.29330645253E+02  0.34725814755E+03  0.34907703526E+03  0.00000000000E+00 0. -1.
         22    1    3    3    0    0  0.25190307096E+01  0.43073211512E+02  0.11320896470E+03  0.12115245253E+03  0.00000000000E+00 0.  1.
         22    1    3    3    0    0 -0.21331945995E+01 -0.75924731615E+02  0.71709638793E+02  0.10445758798E+03  0.00000000000E+00 0.  1.
</event>
<event>
 7    1  0.6508013E-006  0.8285460E+02  0.7818608E-02  0.1500760E+00
          2   -1    0    0  502    0  0.00000000000E+00  0.00000000000E+00  0.16409701603E+04  0.16409701603E+04  0.00000000000E+00 0. -1.
          1   -1    0    0  501    0 -0.00000000000E+00 -0.00000000000E+00 -0.11905947761E+03  0.11905947761E+03  0.00000000000E+00 0. -1.
         25    2    1    2    0    0 -0.53269688230E+02 -0.41598921700E+02  0.11536875174E+04  0.11624063718E+04  0.12500222128E+03 0.  0.
          2    1    1    2  501    0  0.55512136295E+02  0.61793809466E+02 -0.99411070043E+02  0.12954780203E+03  0.00000000000E+00 0. -1.
          1    1    1    2  502    0 -0.22424480649E+01 -0.20194887766E+02  0.46763423530E+03  0.46807546409E+03  0.00000000000E+00 0. -1.
         22    1    3    3    0    0  0.14909188093E+01  0.34081573647E+02  0.12780582124E+03  0.13228040084E+03  0.00000000000E+00 0.  1.
         22    1    3    3    0    0 -0.54760607040E+02 -0.75680495347E+02  0.10258816962E+04  0.10301259710E+04  0.00000000000E+00 0.  1.
</event>
<event>
 7    1  0.6508013E-006  0.9996469E+02  0.7818608E-02  0.1347265E+00
          2   -1    0    0  502    0  0.00000000000E+00  0.00000000000E+00  0.99270659268E+03  0.99270659268E+03  0.00000000000E+00 0. -1.
          1   -1    0    0  501    0 -0.00000000000E+00 -0.00000000000E+00 -0.24795563853E+04  0.24795563853E+04  0.00000000000E+00 0. -1.
         25    2    1    2    0    0  0.99367731393E+02  0.89536652676E+02 -0.20284222355E+04  0.20366670220E+04  0.12500013986E+03 0.  0.
          2    1    1    2  501    0 -0.58366701819E+01 -0.54340576697E+02 -0.44280189428E+03  0.44616194657E+03  0.00000000000E+00 0. -1.
          1    1    1    2  502    0 -0.93531061211E+02 -0.35196075979E+02  0.98437433717E+03  0.98943400935E+03  0.00000000000E+00 0. -1.
         22    1    3    3    0    0 -0.10056359181E+01  0.79271900801E+01 -0.10137588115E+04  0.10137903035E+04  0.00000000000E+00 0.  1.
         22    1    3    3    0    0  0.10037336731E+03  0.81609462596E+02 -0.10146634240E+04  0.10228767185E+04  0.00000000000E+00 0.  1.
</event>
<event>
 7    1  0.6508013E-006  0.9337873E+02  0.7818608E-02  0.1337655E+00
          2   -1    0    0  502    0  0.00000000000E+00  0.00000000000E+00  0.44560977541E+03  0.44560977541E+03  0.00000000000E+00 0. -1.
          1   -1    0    0  501    0 -0.00000000000E+00 -0.00000000000E+00 -0.13744501008E+04  0.13744501008E+04  0.00000000000E+00 0. -1.
         25    2    1    2    0    0 -0.58133347188E+02 -0.18796926541E+02 -0.41190748269E+03  0.43477014928E+03  0.12499799164E+03 0.  0.
          2    1    1    2  501    0 -0.27583849671E+02  0.57270701366E+02 -0.94494793218E+03  0.94708362700E+03  0.00000000000E+00 0. -1.
          1    1    1    2  502    0  0.85717196859E+02 -0.38473774824E+02  0.42801508948E+03  0.43820609992E+03  0.00000000000E+00 0. -1.
         22    1    3    3    0    0 -0.35553160703E+02 -0.56732202362E+02 -0.10382214363E+03  0.12353787892E+03  0.00000000000E+00 0. -1.
         22    1    3    3    0    0 -0.22580186485E+02  0.37935275821E+02 -0.30808533906E+03  0.31123227036E+03  0.00000000000E+00 0. -1.
</event>
<event>
 7    1  0.6508013E-006  0.3871328E+02  0.7818608E-02  0.1558670E+00
          2   -1    0    0  502    0  0.00000000000E+00  0.00000000000E+00  0.27998273817E+02  0.27998273817E+02  0.00000000000E+00 0. -1.
          1   -1    0    0  501    0 -0.00000000000E+00 -0.00000000000E+00 -0.17219569535E+04  0.17219569535E+04  0.00000000000E+00 0. -1.
         25    2    1    2    0    0  0.29376810762E+02 -0.33151525753E+01 -0.57587891079E+03  0.59002991405E+03  0.12499916932E+03 0.  0.
          2    1    1    2  501    0 -0.29600132109E+02 -0.26354326652E+02 -0.11279578115E+04  0.11286538632E+04  0.00000000000E+00 0. -1.
          1    1    1    2  502    0  0.22332134753E+00  0.29669479228E+02  0.98780425422E+01  0.31271450151E+02  0.00000000000E+00 0. -1.
         22    1    3    3    0    0  0.14874007652E+02  0.51232214182E+02 -0.12892789773E+03  0.13952913203E+03  0.00000000000E+00 0. -1.
         22    1    3    3    0    0  0.14502803110E+02 -0.54547366757E+02 -0.44695101306E+03  0.45050078201E+03  0.00000000000E+00 0. -1.
</event>
<event>
 7    1  0.6508013E-006  0.1474482E+03  0.7818608E-02  0.1320431E+00
          2   -1    0    0  502    0  0.00000000000E+00  0.00000000000E+00  0.17634646495E+03  0.17634646495E+03  0.00000000000E+00 0. -1.
          1   -1    0    0  501    0 -0.00000000000E+00 -0.00000000000E+00 -0.30073514040E+04  0.30073514040E+04  0.00000000000E+00 0. -1.
         25    2    1    2    0    0  0.15254227250E+03 -0.10862645760E+03 -0.28893031360E+03  0.36629699326E+03  0.12499563579E+03 0.  0.
          2    1    1    2  501    0 -0.44352609666E+02  0.15103320765E+02 -0.26423333198E+04  0.26427486898E+04  0.00000000000E+00 0. -1.
          1    1    1    2  502    0 -0.10818966284E+03  0.93523136835E+02  0.10025869434E+03  0.17465218595E+03  0.00000000000E+00 0. -1.
         22    1    3    3    0    0  0.83714636905E+02 -0.12650917697E+03 -0.22021835007E+03  0.26741135727E+03  0.00000000000E+00 0.  1.
         22    1    3    3    0    0  0.68827635596E+02  0.17882719369E+02 -0.68711963530E+02  0.98885635994E+02  0.00000000000E+00 0.  1.
</event>
<event>
 7    1  0.6508013E-006  0.4294951E+02  0.7818608E-02  0.1504803E+00
          2   -1    0    0  502    0  0.00000000000E+00  0.00000000000E+00  0.29829659014E+03  0.29829659014E+03  0.00000000000E+00 0. -1.
          1   -1    0    0  501    0 -0.00000000000E+00 -0.00000000000E+00 -0.93886110436E+03  0.93886110436E+03  0.00000000000E+00 0. -1.
         25    2    1    2    0    0 -0.45177860468E+02 -0.33626632905E+02  0.50632606825E+02  0.14615565806E+03  0.12500410391E+03 0.  0.
          2    1    1    2  501    0  0.80265226321E+01  0.42200269556E+02 -0.88875803957E+03  0.88979556119E+03  0.00000000000E+00 0. -1.
          1    1    1    2  502    0  0.37151337836E+02 -0.85736366508E+01  0.19756091853E+03  0.20120647524E+03  0.00000000000E+00 0. -1.
         22    1    3    3    0    0 -0.13332634839E+02  0.36192270540E+02  0.57361241542E+02  0.69122728750E+02  0.00000000000E+00 0.  1.
         22    1    3    3    0    0 -0.31845225629E+02 -0.69818903445E+02 -0.67286347169E+01  0.77032929315E+02  0.00000000000E+00 0.  1.
</event>
<event>
 7    1  0.6508013E-006  0.3247195E+02  0.7818608E-02  0.1608335E+00
          2   -1    0    0  502    0  0.00000000000E+00  0.00000000000E+00  0.63812016945E+02  0.63812016945E+02  0.00000000000E+00 0. -1.
          1   -1    0    0  501    0 -0.00000000000E+00 -0.00000000000E+00 -0.14314265886E+04  0.14314265886E+04  0.00000000000E+00 0. -1.
         25    2    1    2    0    0 -0.35001064965E+02 -0.34779558585E+02 -0.38464546526E+03  0.40744554123E+03  0.12500017151E+03 0.  0.
          2    1    1    2  501    0  0.25789494810E+02  0.37857660964E+01 -0.10302137207E+04  0.10305434199E+04  0.00000000000E+00 0. -1.
          1    1    1    2  502    0  0.92115701545E+01  0.30993792488E+02  0.47244614318E+02  0.57249644362E+02  0.00000000000E+00 0. -1.
         22    1    3    3    0    0 -0.79871998363E+02 -0.39788727464E+02 -0.25412443418E+03  0.26933604847E+03  0.00000000000E+00 0.  1.
         22    1    3    3    0    0  0.44870933398E+02  0.50091688797E+01 -0.13052103108E+03  0.13810949276E+03  0.00000000000E+00 0.  1.
</event>
<event>
 7    1  0.6508013E-006  0.3231464E+03  0.7818608E-02  0.1242814E+00
          2   -1    0    0  502    0  0.00000000000E+00  0.00000000000E+00  0.19577999693E+04  0.19577999693E+04  0.00000000000E+00 0. -1.
          1   -1    0    0  501    0 -0.00000000000E+00 -0.00000000000E+00 -0.29882285921E+03  0.29882285921E+03  0.00000000000E+00 0. -1.
         25    2    1    2    0    0  0.33918665589E+03 -0.13688054556E+02  0.19590436345E+03  0.41138622803E+03  0.12500063449E+03 0.  0.
          2    1    1    2  501    0 -0.22378737213E+02 -0.38682397725E+02 -0.17262621524E+03  0.17831698169E+03  0.00000000000E+00 0. -1.
          1    1    1    2  502    0 -0.31680791868E+03  0.52370452281E+02  0.16356989619E+04  0.16669196188E+04  0.00000000000E+00 0. -1.
         22    1    3    3    0    0  0.18204688364E+03 -0.31442911178E+02  0.39401414433E+02  0.18889731593E+03  0.00000000000E+00 0. -1.
         22    1    3    3    0    0  0.15713977225E+03  0.17754856622E+02  0.15650294902E+03  0.22248891210E+03  0.00000000000E+00 0. -1.
</event>
<event>
 7    1  0.6508013E-006  0.7992941E+02  0.7818608E-02  0.1500977E+00
          2   -1    0    0  502    0  0.00000000000E+00  0.00000000000E+00  0.14461723060E+03  0.14461723060E+03  0.00000000000E+00 0. -1.
          1   -1    0    0  501    0 -0.00000000000E+00 -0.00000000000E+00 -0.18978997255E+04  0.18978997255E+04  0.00000000000E+00 0. -1.
         25    2    1    2    0    0 -0.89067753324E+02  0.12239397639E+02 -0.31801845652E+03  0.35333163965E+03  0.12499856539E+03 0.  0.
          2    1    1    2  501    0  0.79217512370E+02  0.63425321495E+01 -0.15603354658E+04  0.15623579640E+04  0.00000000000E+00 0. -1.
          1    1    1    2  502    0  0.98502409541E+01 -0.18581929789E+02  0.12507142742E+03  0.12682735240E+03  0.00000000000E+00 0. -1.
         22    1    3    3    0    0 -0.31056342075E+01  0.52874043104E+02 -0.70502738599E+02  0.88181321990E+02  0.00000000000E+00 0.  1.
         22    1    3    3    0    0 -0.85962119116E+02 -0.40634645465E+02 -0.24751571792E+03  0.26515031766E+03  0.00000000000E+00 0.  1.
</event>
<event>
 7    1  0.6508013E-006  0.6656488E+02  0.7818608E-02  0.1422711E+00
          2   -1    0    0  502    0  0.00000000000E+00  0.00000000000E+00  0.20604584080E+04  0.20604584080E+04  0.00000000000E+00 0. -1.
          1   -1    0    0  501    0 -0.00000000000E+00 -0.00000000000E+00 -0.76787440653E+03  0.76787440653E+03  0.00000000000E+00 0. -1.
         25    2    1    2    0    0  0.85668510297E+02 -0.35166029543E+01  0.57005066417E+03  0.58985971010E+03  0.12500103090E+03 0.  0.
          2    1    1    2  501    0 -0.58477385445E+02 -0.31763287322E+02 -0.75617323134E+03  0.75909582190E+03  0.00000000000E+00 0. -1.
          1    1    1    2  502    0 -0.27191124852E+02  0.35279890277E+02  0.14787065687E+04  0.14793772826E+04  0.00000000000E+00 0. -1.
         22    1    3    3    0    0 -0.19294902352E+02  0.31391134032E+02  0.90434956087E+02  0.97653355473E+02  0.00000000000E+00 0.  1.
         22    1    3    3    0    0  0.10496341265E+03 -0.34907736986E+02  0.47961570809E+03  0.49220635463E+03  0.00000000000E+00 0.  1.
</event>
<event>
 7    1  0.6508013E-006  0.7245071E+02  0.7818608E-02  0.1464450E+00
          2   -1    0    0  502    0  0.00000000000E+00  0.00000000000E+00  0.18205128760E+04  0.18205128760E+04  0.00000000000E+00 0. -1.
          1   -1    0    0  501    0 -0.00000000000E+00 -0.00000000000E+00 -0.33364728299E+02  0.33364728299E+02  0.00000000000E+00 0. -1.
         25    2    1    2    0    0  0.57188873547E+02 -0.17201840232E+02  0.79915323571E+03  0.81107236002E+03  0.12500403385E+03 0.  0.
          2    1    1    2  501    0  0.18952531908E+02  0.23260350144E+02 -0.17285631184E+02  0.34627090550E+02  0.00000000000E+00 0. -1.
          1    1    1    2  502    0 -0.76141405455E+02 -0.60585099112E+01  0.10052805431E+04  0.10081781537E+04  0.00000000000E+00 0. -1.
         22    1    3    3    0    0  0.90127949563E+02 -0.39827097384E+02  0.55959903661E+03  0.56820799603E+03  0.00000000000E+00 0.  1.
         22    1    3    3    0    0 -0.32939076016E+02  0.22625257151E+02  0.23955419910E+03  0.24286436399E+03  0.00000000000E+00 0.  1.
</event>
<event>
 7    1  0.6508013E-006  0.8121980E+02  0.7818608E-02  0.1356095E+00
          2   -1    0    0  502    0  0.00000000000E+00  0.00000000000E+00  0.48770456864E+03  0.48770456864E+03  0.00000000000E+00 0. -1.
          1   -1    0    0  501    0 -0.00000000000E+00 -0.00000000000E+00 -0.26265273148E+03  0.26265273148E+03  0.00000000000E+00 0. -1.
         25    2    1    2    0    0 -0.18195391184E+02  0.16736055611E+02  0.26176688221E+03  0.29113278851E+03  0.12500092842E+03 0.  0.
          2    1    1    2  501    0  0.80556128470E+02 -0.18877823891E+02 -0.23616651336E+03  0.25024045257E+03  0.00000000000E+00 0. -1.
          1    1    1    2  502    0 -0.62360737286E+02  0.21417682798E+01  0.19945146831E+03  0.20898405905E+03  0.00000000000E+00 0. -1.
         22    1    3    3    0    0  0.14445018675E+02  0.14189456664E+02  0.25729345948E+03  0.25808898375E+03  0.00000000000E+00 0.  1.
         22    1    3    3    0    0 -0.32640409859E+02  0.25465989476E+01  0.44734227322E+01  0.33043804758E+02  0.00000000000E+00 0.  1.
</event>
<event>
 7    1  0.6508013E-006  0.1353908E+03  0.7818608E-02  0.1372721E+00
          2   -1    0    0  502    0  0.00000000000E+00  0.00000000000E+00  0.38156071288E+03  0.38156071288E+03  0.00000000000E+00 0. -1.
          1   -1    0    0  501    0 -0.00000000000E+00 -0.00000000000E+00 -0.51083448982E+03  0.51083448982E+03  0.00000000000E+00 0. -1.
         25    2    1    2    0    0 -0.33579092301E+02  0.12173037736E+03  0.22079369971E+02  0.17904898841E+03  0.12500080584E+03 0.  0.
          2    1    1    2  501    0  0.28303920857E+02  0.16136822532E+02 -0.41473676953E+03  0.41601453938E+03  0.00000000000E+00 0. -1.
          1    1    1    2  502    0  0.52751714444E+01 -0.13786719989E+03  0.26338362262E+03  0.29733167491E+03  0.00000000000E+00 0. -1.
         22    1    3    3    0    0 -0.66471941426E+02  0.12433842102E+03  0.31875418748E+01  0.14102738160E+03  0.00000000000E+00 0. -1.
         22    1    3    3    0    0  0.32892849124E+02 -0.26080436636E+01  0.18891828097E+02  0.38021606806E+02  0.00000000000E+00 0. -1.
</event>
<event>
 7    1  0.6508013E-006  0.1027003E+03  0.7818608E-02  0.1354947E+00
          2   -1    0    0  502    0  0.00000000000E+00  0.00000000000E+00  0.84252523592E+03  0.84252523592E+03  0.00000000000E+00 0. -1.
          1   -1    0    0  501    0 -0.00000000000E+00 -0.00000000000E+00 -0.76268414262E+03  0.76268414262E+03  0.00000000000E+00 0. -1.
         25    2    1    2    0    0  0.10964435451E+03  0.65828160335E+02  0.31444337535E+02  0.18156977290E+03  0.12499441947E+03 0.  0.
          2    1    1    2  501    0 -0.91361460033E+01 -0.48983434824E+02 -0.68318207094E+03  0.68499677963E+03  0.00000000000E+00 0. -1.
          1    1    1    2  502    0 -0.10050820851E+03 -0.16844725511E+02  0.73157882670E+03  0.73864282602E+03  0.00000000000E+00 0. -1.
         22    1    3    3    0    0  0.27256234079E+02 -0.14429165509E+02  0.56027379081E+02  0.63954439409E+02  0.00000000000E+00 0.  1.
         22    1    3    3    0    0  0.82388120435E+02  0.80257325844E+02 -0.24583041546E+02  0.11761533349E+03  0.00000000000E+00 0.  1.
</event>
<event>
 7    1  0.6508013E-006  0.2080536E+03  0.7818608E-02  0.1205015E+00
          2   -1    0    0  502    0  0.00000000000E+00  0.00000000000E+00  0.12119013901E+04  0.12119013901E+04  0.00000000000E+00 0. -1.
          1   -1    0    0  501    0 -0.00000000000E+00 -0.00000000000E+00 -0.15156245927E+03  0.15156245927E+03  0.00000000000E+00 0. -1.
         25    2    1    2    0    0 -0.15983072462E+03 -0.38159676841E+02  0.10606068435E+03  0.23211143754E+03  0.12499931681E+03 0.  0.
          2    1    1    2  501    0  0.26071697531E+03  0.17580180317E+02  0.11451417566E+03  0.28529966769E+03  0.00000000000E+00 0. -1.
          1    1    1    2  502    0 -0.10088625069E+03  0.20579496524E+02  0.83976407080E+03  0.84605274414E+03  0.00000000000E+00 0. -1.
         22    1    3    3    0    0 -0.13555359107E+03  0.12466502704E+02  0.11114337148E+03  0.17573570715E+03  0.00000000000E+00 0. -1.
         22    1    3    3    0    0 -0.24277133547E+02 -0.50626179545E+02 -0.50826871305E+01  0.56375730390E+02  0.00000000000E+00 0. -1.
</event>
<event>
 7    1  0.6508013E-006  0.1081158E+03  0.7818608E-02  0.1398297E+00
          2   -1    0    0  502    0  0.00000000000E+00  0.00000000000E+00  0.27566528056E+03  0.27566528056E+03  0.00000000000E+00 0. -1.
          1   -1    0    0  501    0 -0.00000000000E+00 -0.00000000000E+00 -0.43539313821E+03  0.43539313821E+03  0.00000000000E+00 0. -1.
         25    2    1    2    0    0 -0.91715833885E+02  0.60071886678E+02 -0.88551623822E+02  0.18837959881E+03  0.12500022964E+03 0.  0.
          2    1    1    2  501    0  0.23072659396E+02  0.23837512913E+02 -0.28288703032E+03  0.28482564237E+03  0.00000000000E+00 0. -1.
          1    1    1    2  502    0  0.68643174490E+02 -0.83909399591E+02  0.21171079648E+03  0.23785317759E+03  0.00000000000E+00 0. -1.
         22    1    3    3    0    0 -0.98695276683E+02  0.75907040253E+01 -0.18710440073E+02  0.10073955030E+03  0.00000000000E+00 0.  1.
         22    1    3    3    0    0  0.69794427974E+01  0.52481182653E+02 -0.69841183749E+02  0.87640048505E+02  0.00000000000E+00 0.  1.
</event>
<event>
 7    1  0.6508013E-006  0.7817028E+02  0.7818608E-02  0.1392399E+00
          2   -1    0    0  502    0  0.00000000000E+00  0.00000000000E+00  0.11669147166E+04  0.11669147166E+04  0.00000000000E+00 0. -1.
          1   -1    0    0  501    0 -0.00000000000E+00 -0.00000000000E+00 -0.62663064201E+02  0.62663064201E+02  0.00000000000E+00 0. -1.
         25    2    1    2    0    0 -0.74964506216E+01 -0.39749759697E+02  0.18826860233E+03  0.22957844518E+03  0.12499982281E+03 0.  0.
          2    1    1    2  501    0  0.35144451265E+02  0.79100300366E+02  0.38945923325E+01  0.86643856229E+02  0.00000000000E+00 0. -1.
          1    1    1    2  502    0 -0.27648000644E+02 -0.39350540670E+02  0.91208845770E+03  0.91335547935E+03  0.00000000000E+00 0. -1.
         22    1    3    3    0    0  0.66659739159E+01  0.29473967111E+02  0.19146847744E+01  0.30278968994E+02  0.00000000000E+00 0. -1.
         22    1    3    3    0    0 -0.14162424537E+02 -0.69223726808E+02  0.18635391755E+03  0.19929947619E+03  0.00000000000E+00 0. -1.
</event>
<event>
 7    1  0.6508013E-006  0.3899601E+02  0.7818608E-02  0.1527749E+00
          2   -1    0    0  502    0  0.00000000000E+00  0.00000000000E+00  0.25064521590E+04  0.25064521590E+04  0.00000000000E+00 0. -1.
          1   -1    0    0  501    0 -0.00000000000E+00 -0.00000000000E+00 -0.12677810979E+04  0.12677810979E+04  0.00000000000E+00 0. -1.
         25    2    1    2    0    0 -0.69443871367E+02  0.19065954836E+02  0.78188546064E+02  0.16408681840E+03  0.12500029333E+03 0.  0.
          2    1    1    2  501    0  0.38918266698E+02  0.28749458715E-02 -0.12243869873E+04  0.12250053576E+04  0.00000000000E+00 0. -1.
          1    1    1    2  502    0  0.30525604669E+02 -0.19068829782E+02  0.23848695023E+04  0.23851410809E+04  0.00000000000E+00 0. -1.
         22    1    3    3    0    0 -0.14307571595E+01  0.68626630535E+01 -0.32693373948E+02  0.33436505653E+02  0.00000000000E+00 0.  1.
         22    1    3    3    0    0 -0.68013114207E+02  0.12203291782E+02  0.11088192001E+03  0.13065031274E+03  0.00000000000E+00 0.  1.
</event>
<event>
 7    1  0.6508013E-006  0.1259057E+03  0.7818608E-02  0.1386847E+00
          2   -1    0    0  502    0  0.00000000000E+00  0.00000000000E+00  0.40537880586E+03  0.40537880586E+03  0.00000000000E+00 0. -1.
          1   -1    0    0  501    0 -0.00000000000E+00 -0.00000000000E+00 -0.41541233650E+03  0.41541233650E+03  0.00000000000E+00 0. -1.
         25    2    1    2    0    0 -0.15023315092E+03  0.96781464589E+01 -0.33699609684E+02  0.19855971682E+03  0.12500652501E+03 0.  0.
          2    1    1    2  501    0  0.12218844540E+03  0.40440072609E+01 -0.28597963538E+03  0.31101562989E+03  0.00000000000E+00 0. -1.
          1    1    1    2  502    0  0.28044705524E+02 -0.13722153720E+02  0.30964571442E+03  0.31121579566E+03  0.00000000000E+00 0. -1.
         22    1    3    3    0    0 -0.13789223703E+03  0.53420645924E+02 -0.38636241315E+02  0.15284238151E+03  0.00000000000E+00 0.  1.
         22    1    3    3    0    0 -0.12340913893E+02 -0.43742499465E+02  0.49366316319E+01  0.45717335301E+02  0.00000000000E+00 0.  1.
</event>
<event>
 7    1  0.6508013E-006  0.1149584E+03  0.7818608E-02  0.1269304E+00
          2   -1    0    0  502    0  0.00000000000E+00  0.00000000000E+00  0.14593344497E+04  0.14593344497E+04  0.00000000000E+00 0. -1.
          1   -1    0    0  501    0 -0.00000000000E+00 -0.00000000000E+00 -0.36038451687E+02  0.36038451687E+02  0.00000000000E+00 0. -1.
         25    2    1    2    0    0  0.10012155517E+03  0.10011604889E+03  0.62706232778E+03  0.65488926767E+03  0.12500096375E+03 0.  0.
          2    1    1    2  501    0  0.14891831898E+02 -0.95510360001E+02  0.11793739283E+03  0.15249007887E+03  0.00000000000E+00 0. -1.
          1    1    1    2  502    0 -0.11501338706E+03 -0.46056888912E+01  0.67829627739E+03  0.68799355484E+03  0.00000000000E+00 0. -1.
         22    1    3    3    0    0  0.51737850212E+02  0.67667998003E+02  0.55832560312E+03  0.56478601452E+03  0.00000000000E+00 0.  1.
         22    1    3    3    0    0  0.48383704953E+02  0.32448050889E+02  0.68736724655E+02  0.90103253148E+02  0.00000000000E+00 0.  1.
</event>
<event>
 7    1  0.6508013E-006  0.5686237E+02  0.7818608E-02  0.1550244E+00
          2   -1    0    0  502    0  0.00000000000E+00  0.00000000000E+00  0.39278241362E+03  0.39278241362E+03  0.00000000000E+00 0. -1.
          1   -1    0    0  501    0 -0.00000000000E+00 -0.00000000000E+00 -0.40604736855E+03  0.40604736855E+03  0.00000000000E+00 0. -1.
         25    2    1    2    0    0  0.40794236657E+02  0.24316749621E+02 -0.29400794958E+03  0.32298652485E+03  0.12499658698E+03 0.  0.
          2    1    1    2  501    0 -0.46074779792E+02 -0.44969167706E+02 -0.86584340158E+02  0.10789791165E+03  0.00000000000E+00 0. -1.
          1    1    1    2  502    0  0.52805431348E+01  0.20652418086E+02  0.36732733481E+03  0.36794534568E+03  0.00000000000E+00 0. -1.
         22    1    3    3    0    0  0.14533016605E+02  0.16320752715E+02 -0.29471670848E+03  0.29552582594E+03  0.00000000000E+00 0.  1.
         22    1    3    3    0    0  0.26261220052E+02  0.79959969060E+01  0.70875889586E+00  0.27460698905E+02  0.00000000000E+00 0.  1.
</event>
<event>
 7    1  0.6508013E-006  0.1455020E+03  0.7818608E-02  0.1401864E+00
          2   -1    0    0  502    0  0.00000000000E+00  0.00000000000E+00  0.18104297330E+03  0.18104297330E+03  0.00000000000E+00 0. -1.
          1   -1    0    0  501    0 -0.00000000000E+00 -0.00000000000E+00 -0.15516308901E+04  0.15516308901E+04  0.00000000000E+00 0. -1.
         25    2    1    2    0    0 -0.87038805304E+02  0.13940625909E+03 -0.14560206532E+03  0.25265625566E+03  0.12500145356E+03 0.  0.
          2    1    1    2  501    0  0.18451927209E+02 -0.15290892779E+02 -0.13129344743E+04  0.13131531590E+04  0.00000000000E+00 0. -1.
          1    1    1    2  502    0  0.68586878095E+02 -0.12411536631E+03  0.87948622854E+02  0.16686444877E+03  0.00000000000E+00 0. -1.
         22    1    3    3    0    0 -0.10840340107E+03  0.14011496779E+03 -0.10281818392E+03  0.20482939366E+03  0.00000000000E+00 0. -1.
         22    1    3    3    0    0  0.21364595769E+02 -0.70870869782E+00 -0.42783881399E+02  0.47826861992E+02  0.00000000000E+00 0. -1.
</event>
<event>
 7    1  0.6508013E-006  0.8499502E+02  0.7818608E-02  0.1363880E+00
          2   -1    0    0  502    0  0.00000000000E+00  0.00000000000E+00  0.11829125450E+04  0.11829125450E+04  0.00000000000E+00 0. -1.
          1   -1    0    0  501    0 -0.00000000000E+00 -0.00000000000E+00 -0.15320784699E+03  0.15320784699E+03  0.00000000000E+00 0. -1.
         25    2    1    2    0    0 -0.12450458274E+03  0.11822805685E+02  0.34177446258E+01  0.17685799035E+03  0.12500359160E+03 0.  0.
          2    1    1    2  501    0  0.49240087734E+02  0.26356432630E+02 -0.52813480829E+02  0.76866842906E+02  0.00000000000E+00 0. -1.
          1    1    1    2  502    0  0.75264495005E+02 -0.38179238315E+02  0.10791004342E+04  0.10823955587E+04  0.00000000000E+00 0. -1.
         22    1    3    3    0    0 -0.11417571703E+03  0.30103808480E+02 -0.43198105927E+02  0.12573149963E+03  0.00000000000E+00 0.  1.
         22    1    3    3    0    0 -0.10328865709E+02 -0.18281002796E+02  0.46615850552E+02  0.51126490714E+02  0.00000000000E+00 0.  1.
</event>
<event>
 7    1  0.6508013E-006  0.1152639E+03  0.7818608E-02  0.1395624E+00
          2   -1    0    0  502    0  0.00000000000E+00  0.00000000000E+00  0.14582701794E+03  0.14582701794E+03  0.00000000000E+00 0. -1.
          1   -1    0    0  501    0 -0.00000000000E+00 -0.00000000000E+00 -0.15073658900E+04  0.15073658900E+04  0.00000000000E+00 0. -1.
         25    2    1    2    0    0  0.73831100497E+02  0.62340362007E+02 -0.33929270883E+03  0.37427460893E+03  0.12499835392E+03 0.  0.
          2    1    1    2  501    0  0.30348719139E+02 -0.94505523835E+01 -0.11237190121E+04  0.11241684820E+04  0.00000000000E+00 0. -1.
          1    1    1    2  502    0 -0.10417981964E+03 -0.52889809623E+02  0.10147284894E+03  0.15474981698E+03  0.00000000000E+00 0. -1.
         22    1    3    3    0    0 -0.17203163709E+02 -0.20230263184E+02 -0.23694776260E+02  0.35590094298E+02  0.00000000000E+00 0.  1.
         22    1    3    3    0    0  0.91034264206E+02  0.82570625190E+02 -0.31559793257E+03  0.33868451463E+03  0.00000000000E+00 0.  1.
</event>
<event>
 7    1  0.6508013E-006  0.8350050E+02  0.7818608E-02  0.1368841E+00
          2   -1    0    0  502    0  0.00000000000E+00  0.00000000000E+00  0.18644283598E+03  0.18644283598E+03  0.00000000000E+00 0. -1.
          1   -1    0    0  501    0 -0.00000000000E+00 -0.00000000000E+00 -0.21575103213E+04  0.21575103213E+04  0.00000000000E+00 0. -1.
         25    2    1    2    0    0  0.38988296642E+02 -0.47417117662E+01 -0.70585204089E+02  0.14882818194E+03  0.12499994240E+03 0.  0.
          2    1    1    2  501    0 -0.77548123424E+02 -0.33843943268E+02 -0.20418475448E+04  0.20435998924E+04  0.00000000000E+00 0. -1.
          1    1    1    2  502    0  0.38559826782E+02  0.38585655034E+02  0.14136526357E+03  0.15152508294E+03  0.00000000000E+00 0. -1.
         22    1    3    3    0    0  0.23062599051E+02 -0.43693699670E+02 -0.89856364960E+02  0.10254359653E+03  0.00000000000E+00 0.  1.
         22    1    3    3    0    0  0.15925697592E+02  0.38951987904E+02  0.19271160872E+02  0.46284585412E+02  0.00000000000E+00 0.  1.
</event>
<event>
 7    1  0.6508013E-006  0.5284494E+02  0.7818608E-02  0.1547355E+00
          2   -1    0    0  502    0  0.00000000000E+00  0.00000000000E+00  0.16565532257E+04  0.16565532257E+04  0.00000000000E+00 0. -1.
          1   -1    0    0  501    0 -0.00000000000E+00 -0.00000000000E+00 -0.27836683358E+03  0.27836683358E+03  0.00000000000E+00 0. -1.
         25    2    1    2    0    0 -0.28196522056E+02  0.64481925368E+02  0.47037039656E+02  0.15096701136E+03  0.12500237143E+03 0.  0.
          2    1    1    2  501    0  0.19777864185E+02 -0.12445271613E+02 -0.22535151746E+03  0.22655982680E+03  0.00000000000E+00 0. -1.
          1    1    1    2  502    0  0.84186578719E+01 -0.52036653755E+02  0.15565008699E+04  0.15573932211E+04  0.00000000000E+00 0. -1.
         22    1    3    3    0    0 -0.65625013813E+02  0.71315161964E+02  0.55928123333E+02  0.11189481553E+03  0.00000000000E+00 0. -1.
         22    1    3    3    0    0  0.37428491757E+02 -0.68332365957E+01 -0.88910836777E+01  0.39072195824E+02  0.00000000000E+00 0. -1.
</event>
<event>
 7    1  0.6508013E-006  0.1320898E+03  0.7818608E-02  0.1355415E+00
          2   -1    0    0  502    0  0.00000000000E+00  0.00000000000E+00  0.12938644197E+04  0.12938644197E+04  0.00000000000E+00 0. -1.
          1   -1    0    0  501    0 -0.00000000000E+00 -0.00000000000E+00 -0.16309930478E+03  0.16309930478E+03  0.00000000000E+00 0. -1.
         25    2    1    2    0    0 -0.15178399129E+03  0.46634438148E+02  0.94791692148E+02  0.22321126527E+03  0.12499861283E+03 0.  0.
          2    1    1    2  501    0  0.12410011334E+03 -0.19751814629E+02 -0.58491002128E+02  0.13860797106E+03  0.00000000000E+00 0. -1.
          1    1    1    2  502    0  0.27683877946E+02 -0.26882623519E+02  0.10944644249E+04  0.10951444881E+04  0.00000000000E+00 0. -1.
         22    1    3    3    0    0 -0.12646054269E+03  0.64830634060E+02  0.11769629966E+03  0.18452018568E+03  0.00000000000E+00 0.  1.
         22    1    3    3    0    0 -0.25323448597E+02 -0.18196195913E+02 -0.22904607508E+02  0.38691079588E+02  0.00000000000E+00 0.  1.
</event>
<event>
 7    1  0.6508013E-006  0.9303348E+02  0.7818608E-02  0.1459317E+00
          2   -1    0    0  502    0  0.00000000000E+00  0.00000000000E+00  0.15739661415E+04  0.15739661415E+04  0.00000000000E+00 0. -1.
          1   -1    0    0  501    0 -0.00000000000E+00 -0.00000000000E+00 -0.24245746638E+03  0.24245746638E+03  0.00000000000E+00 0. -1.
         25    2    1    2    0    0 -0.55372784054E+02  0.45266719589E+02  0.20337190881E+03  0.24919924012E+03  0.12499962747E+03 0.  0.
          2    1    1    2  501    0  0.65762716212E+02 -0.67179341727E+02 -0.20936501910E+03  0.22950274513E+03  0.00000000000E+00 0. -1.
          1    1    1    2  502    0 -0.10389932158E+02  0.21912622139E+02  0.13375017854E+04  0.13377216226E+04  0.00000000000E+00 0. -1.
         22    1    3    3    0    0 -0.27331862255E+02 -0.42844275393E+02  0.60442912792E+02  0.78968400864E+02  0.00000000000E+00 0. -1.
         22    1    3    3    0    0 -0.28040921799E+02  0.88110994981E+02  0.14292899601E+03  0.17023083926E+03  0.00000000000E+00 0. -1.
</event>
<event>
 7    1  0.6508013E-006  0.1200300E+03  0.7818608E-02  0.1326300E+00
          2   -1    0    0  502    0  0.00000000000E+00  0.00000000000E+00  0.59099876505E+03  0.59099876505E+03  0.00000000000E+00 0. -1.
          1   -1    0    0  501    0 -0.00000000000E+00 -0.00000000000E+00 -0.21239287384E+04  0.21239287384E+04  0.00000000000E+00 0. -1.
         25    2    1    2    0    0  0.54752494035E+02  0.38119087652E+02  0.15121079090E+02  0.14249055130E+03  0.12499603886E+03 0.  0.
          2    1    1    2  501    0 -0.10206332013E+03 -0.65436155782E+02 -0.20569972722E+04  0.20605670554E+04  0.00000000000E+00 0. -1.
          1    1    1    2  502    0  0.47310826091E+02  0.27317068130E+02  0.50894621984E+03  0.51186989672E+03  0.00000000000E+00 0. -1.
         22    1    3    3    0    0  0.29430782760E+02  0.83764879086E+02  0.26584640212E+01  0.88824508854E+02  0.00000000000E+00 0. -1.
         22    1    3    3    0    0  0.25321711275E+02 -0.45645791434E+02  0.12462615069E+02  0.53666042447E+02  0.00000000000E+00 0. -1.
</event>
<event>
 7    1  0.6508013E-006  0.8943479E+02  0.7818608E-02  0.1425866E+00
          2   -1    0    0  502    0  0.00000000000E+00  0.00000000000E+00  0.20337987101E+04  0.20337987101E+04  0.00000000000E+00 0. -1.
          1   -1    0    0  501    0 -0.00000000000E+00 -0.00000000000E+00 -0.16188734714E+04  0.16188734714E+04  0.00000000000E+00 0. -1.
         25    2    1    2    0    0  0.66466055539E+02  0.87679402811E+02  0.19132862465E+03  0.25364809883E+03  0.12500120485E+03 0.  0.
          2    1    1    2  501    0 -0.34538758328E+02 -0.82391383014E+02 -0.15863122442E+04  0.15888259194E+04  0.00000000000E+00 0. -1.
          1    1    1    2  502    0 -0.31927297211E+02 -0.52880197977E+01  0.18099088583E+04  0.18101981634E+04  0.00000000000E+00 0. -1.
         22    1    3    3    0    0  0.10849059032E+02 -0.22767053298E+02  0.90932892966E+02  0.94365416445E+02  0.00000000000E+00 0.  1.
         22    1    3    3    0    0  0.55616996507E+02  0.11044645611E+03  0.10039573169E+03  0.15928268239E+03  0.00000000000E+00 0.  1.
</event>
<event>
 7    1  0.6508013E-006  0.8814060E+02  0.7818608E-02  0.1392457E+00
          2   -1    0    0  502    0  0.00000000000E+00  0.00000000000E+00  0.33881383262E+03  0.33881383262E+03  0.00000000000E+00 0. -1.
          1   -1    0    0  501    0 -0.00000000000E+00 -0.00000000000E+00 -0.12844715926E+04  0.12844715926E+04  0.00000000000E+00 0. -1.
         25    2    1    2    0    0 -0.85043996023E+02 -0.19901102666E+02 -0.39208562235E+02  0.15744963972E+03  0.12499817018E+03 0.  0.
          2    1    1    2  501    0 -0.88915222876E+00  0.42623109268E+02 -0.11786853593E+04  0.11794561019E+04  0.00000000000E+00 0. -1.
          1    1    1    2  502    0  0.85933148251E+02 -0.22722006602E+02  0.27223616153E+03  0.28637968363E+03  0.00000000000E+00 0. -1.
         22    1    3    3    0    0 -0.80745670273E+02 -0.19485441049E+02  0.29844009385E+02  0.88262169568E+02  0.00000000000E+00 0. -1.
         22    1    3    3    0    0 -0.42983257497E+01 -0.41566161725E+00 -0.69052571620E+02  0.69187470153E+02  0.00000000000E+00 0. -1.
</event>
<event>
 7    1  0.6508013E-006  0.8159350E+02  0.7818608E-02  0.1363533E+00
          2   -1    0    0  502    0  0.00000000000E+00  0.00000000000E+00  0.42679539584E+03  0.42679539584E+03  0.00000000000E+00 0. -1.
          1   -1    0    0  501    0 -0.00000000000E+00 -0.00000000000E+00 -0.32841106312E+03  0.32841106312E+03  0.00000000000E+00 0. -1.
         25    2    1    2    0    0  0.29243978903E+02  0.21370409127E+01  0.54312244769E+01  0.12851016555E+03  0.12500234880E+03 0.  0.
          2    1    1    2  501    0  0.55204189426E+02 -0.18891532897E+02 -0.25842224058E+03  0.26492724845E+03  0.00000000000E+00 0. -1.
          1    1    1    2  502    0 -0.84448168329E+02  0.16754491984E+02  0.35137534881E+03  0.36176904496E+03  0.00000000000E+00 0. -1.
         22    1    3    3    0    0  0.14994575892E+02  0.40824136569E+02 -0.45527738060E+02  0.62962070850E+02  0.00000000000E+00 0. -1.
         22    1    3    3    0    0  0.14249403011E+02 -0.38687095656E+02  0.50958962537E+02  0.65548094704E+02  0.00000000000E+00 0. -1.
</event>
<event>
 7    1  0.6508013E-006  0.1101838E+03  0.7818608E-02  0.1287897E+00
          2   -1    0    0  502    0  0.00000000000E+00  0.00000000000E+00  0.30198880927E+03  0.30198880927E+03  0.00000000000E+00 0. -1.
          1   -1    0    0  501    0 -0.00000000000E+00 -0.00000000000E+00 -0.28622993855E+04  0.28622993855E+04  0.00000000000E+00 0. -1.
         25    2    1    2    0    0 -0.11810895043E+03 -0.11112699985E+03 -0.62893276955E+03  0.66142222634E+03  0.12499599441E+03 0.  0.
          2    1    1    2  501    0  0.11964067455E+02  0.83613450270E+02 -0.22057640707E+04  0.22073806838E+04  0.00000000000E+00 0. -1.
          1    1    1    2  502    0  0.10614488297E+03  0.27513549583E+02  0.27438626394E+03  0.29548528463E+03  0.00000000000E+00 0. -1.
         22    1    3    3    0    0 -0.14057615656E+03 -0.88351852749E+02 -0.57711456174E+03  0.60052387384E+03  0.00000000000E+00 0.  1.
         22    1    3    3    0    0  0.22467206132E+02 -0.22775147105E+02 -0.51818207808E+02  0.60898352502E+02  0.00000000000E+00 0.  1.
</event>
<event>
 7    1  0.6508013E-006  0.6119130E+02  0.7818608E-02  0.1491916E+00
          2   -1    0    0  502    0  0.00000000000E+00  0.00000000000E+00  0.97050767654E+03  0.97050767654E+03  0.00000000000E+00 0. -1.
          1   -1    0    0  501    0 -0.00000000000E+00 -0.00000000000E+00 -0.20139110619E+03  0.20139110619E+03  0.00000000000E+00 0. -1.
         25    2    1    2    0    0  0.10182561356E+02  0.31212365400E+02  0.81081119627E+01  0.12949127354E+03  0.12499740851E+03 0.  0.
          2    1    1    2  501    0  0.15024911945E+02  0.25090660192E+02 -0.13811145385E+03  0.14117387468E+03  0.00000000000E+00 0. -1.
          1    1    1    2  502    0 -0.25207473301E+02 -0.56303025592E+02  0.89911991223E+03  0.90123363451E+03  0.00000000000E+00 0. -1.
         22    1    3    3    0    0  0.42131432968E+02 -0.27061519195E+02  0.31360497493E+02  0.59083536354E+02  0.00000000000E+00 0.  1.
         22    1    3    3    0    0 -0.31948871612E+02  0.58273884595E+02 -0.23252385530E+02  0.70407737187E+02  0.00000000000E+00 0.  1.
</event>
<event>
 7    1  0.6508013E-006  0.5352885E+02  0.7818608E-02  0.1517509E+00
          2   -1    0    0  502    0  0.00000000000E+00  0.00000000000E+00  0.12228411015E+04  0.12228411015E+04  0.00000000000E+00 0. -1.
          1   -1    0    0  501    0 -0.00000000000E+00 -0.00000000000E+00 -0.19605875257E+03  0.19605875257E+03  0.00000000000E+00 0. -1.
         25    2    1    2    0    0 -0.34070926365E+02 -0.24495531226E+02  0.21826478262E+03  0.25500162320E+03  0.12500181370E+03 0.  0.
          2    1    1    2  501    0  0.12364758343E+02 -0.25201833477E+02 -0.17583058620E+03  0.17805733543E+03  0.00000000000E+00 0. -1.
          1    1    1    2  502    0  0.21706168021E+02  0.49697364704E+02  0.98434815253E+03  0.98584089547E+03  0.00000000000E+00 0. -1.
         22    1    3    3    0    0 -0.14273065751E+02  0.42912171112E+02  0.30562804482E+02  0.54582596615E+02  0.00000000000E+00 0.  1.
         22    1    3    3    0    0 -0.19797860613E+02 -0.67407702338E+02  0.18770197814E+03  0.20041902659E+03  0.00000000000E+00 0.  1.
</event>
<event>
 7    1  0.6508013E-006  0.4978985E+02  0.7818608E-02  0.1484858E+00
          2   -1    0    0  502    0  0.00000000000E+00  0.00000000000E+00  0.68955687823E+03  0.68955687823E+03  0.00000000000E+00 0. -1.
          1   -1    0    0  501    0 -0.00000000000E+00 -0.00000000000E+00 -0.62110645321E+03  0.62110645321E+03  0.00000000000E+00 0. -1.
         25    2    1    2    0    0  0.18088687126E+02  0.17760167434E+02 -0.17420888175E+03  0.21590887578E+03  0.12500113604E+03 0.  0.
          2    1    1    2  501    0 -0.24152509750E+01 -0.52111031708E+02 -0.42391442537E+03  0.42711220200E+03  0.00000000000E+00 0. -1.
          1    1    1    2  502    0 -0.15673436151E+02  0.34350864274E+02  0.66657373214E+03  0.66764225365E+03  0.00000000000E+00 0. -1.
         22    1    3    3    0    0 -0.41849673880E+02 -0.29349907157E+02 -0.64142901460E+02  0.82019046945E+02  0.00000000000E+00 0.  1.
         22    1    3    3    0    0  0.59938361006E+02  0.47110074592E+02 -0.11006598029E+03  0.13388982883E+03  0.00000000000E+00 0.  1.
</event>
<event>
 7    1  0.6508013E-006  0.1643648E+03  0.7818608E-02  0.1306462E+00
          2   -1    0    0  502    0  0.00000000000E+00  0.00000000000E+00  0.76190973711E+03  0.76190973711E+03  0.00000000000E+00 0. -1.
          1   -1    0    0  501    0 -0.00000000000E+00 -0.00000000000E+00 -0.23834525845E+03  0.23834525845E+03  0.00000000000E+00 0. -1.
         25    2    1    2    0    0 -0.31522203227E+02 -0.11947382829E+03  0.24317235494E+03  0.30004233144E+03  0.12499984603E+03 0.  0.
          2    1    1    2  501    0  0.29044889953E+02  0.16708880533E+03 -0.17420338245E+03  0.24312361661E+03  0.00000000000E+00 0. -1.
          1    1    1    2  502    0  0.24773132743E+01 -0.47614977038E+02  0.45459550617E+03  0.45708904750E+03  0.00000000000E+00 0. -1.
         22    1    3    3    0    0  0.32766871197E+02 -0.68135795396E+01  0.13132927869E+02  0.35952280993E+02  0.00000000000E+00 0. -1.
         22    1    3    3    0    0 -0.64289074424E+02 -0.11266024875E+03  0.23003942707E+03  0.26409005045E+03  0.00000000000E+00 0. -1.
</event>
<event>
 7    1  0.6508013E-006  0.9239205E+02  0.7818608E-02  0.1428271E+00
          2   -1    0    0  502    0  0.00000000000E+00  0.00000000000E+00  0.11722214437E+04  0.11722214437E+04  0.00000000000E+00 0. -1.
          1   -1    0    0  501    0 -0.00000000000E+00 -0.00000000000E+00 -0.53889658403E+03  0.53889658403E+03  0.00000000000E+00 0. -1.
         25    2    1    2    0    0  0.33732365119E+02  0.11478171951E+03  0.73165682019E+02  0.18786006629E+03  0.12500188754E+03 0.  0.
          2    1    1    2  501    0  0.22196057677E+01 -0.30678027002E+02 -0.47904747183E+03  0.48003390324E+03  0.00000000000E+00 0. -1.
          1    1    1    2  502    0 -0.35951970887E+02 -0.84103692510E+02  0.10392066495E+04  0.10432240582E+04  0.00000000000E+00 0. -1.
         22    1    3    3    0    0  0.53457003778E+02  0.11661888900E+03  0.94054235440E+02  0.15907173139E+03  0.00000000000E+00 0.  1.
         22    1    3    3    0    0 -0.19724638659E+02 -0.18371694858E+01 -0.20888553421E+02  0.28788334894E+02  0.00000000000E+00 0.  1.
</event>
<event>
 7    1  0.6508013E-006  0.5384379E+02  0.7818608E-02  0.1485346E+00
          2   -1    0    0  502    0  0.00000000000E+00  0.00000000000E+00  0.54511045653E+03  0.54511045653E+03  0.00000000000E+00 0. -1.
          1   -1    0    0  501    0 -0.00000000000E+00 -0.00000000000E+00 -0.33243989872E+03  0.33243989872E+03  0.00000000000E+00 0. -1.
         25    2    1    2    0    0  0.31720629914E+02 -0.39638929011E+02 -0.17711198943E+03  0.22264686911E+03  0.12500211385E+03 0.  0.
          2    1    1    2  501    0 -0.15250173609E+01  0.56929111139E+02 -0.12583038112E+03  0.13811782718E+03  0.00000000000E+00 0. -1.
          1    1    1    2  502    0 -0.30195612553E+02 -0.17290182127E+02  0.51561292836E+03  0.51678565896E+03  0.00000000000E+00 0. -1.
         22    1    3    3    0    0  0.52917453409E+02 -0.32583477531E+02 -0.18784819331E+03  0.19786076825E+03  0.00000000000E+00 0. -1.
         22    1    3    3    0    0 -0.21196823495E+02 -0.70554514804E+01  0.10736203877E+02  0.24786100855E+02  0.00000000000E+00 0. -1.
</event>
<event>
 7    1  0.6508013E-006  0.8287960E+02  0.7818608E-02  0.1484898E+00
          2   -1    0    0  502    0  0.00000000000E+00  0.00000000000E+00  0.34653137450E+03  0.34653137450E+03  0.00000000000E+00 0. -1.
          1   -1    0    0  501    0 -0.00000000000E+00 -0.00000000000E+00 -0.12367683573E+04  0.12367683573E+04  0.00000000000E+00 0. -1.
         25    2    1    2    0    0 -0.60093841189E+02 -0.52266045226E+02 -0.71727435407E+03  0.73242752860E+03  0.12499830562E+03 0.  0.
          2    1    1    2  501    0  0.14791045878E+02 -0.17188576053E+02 -0.50658829267E+03  0.50709557329E+03  0.00000000000E+00 0. -1.
          1    1    1    2  502    0  0.45302795312E+02  0.69454621279E+02  0.33362566391E+03  0.34377662995E+03  0.00000000000E+00 0. -1.
         22    1    3    3    0    0 -0.33329432493E+02 -0.76037150706E+02 -0.65774863319E+03  0.66296739273E+03  0.00000000000E+00 0.  1.
         22    1    3    3    0    0 -0.26764408697E+02  0.23771105480E+02 -0.59525720884E+02  0.69460135872E+02  0.00000000000E+00 0.  1.
</event>
<event>
 7    1  0.6508013E-006  0.3066632E+02  0.7818608E-02  0.1631737E+00
          2   -1    0    0  502    0  0.00000000000E+00  0.00000000000E+00  0.76451256446E+03  0.76451256446E+03  0.00000000000E+00 0. -1.
          1   -1    0    0  501    0 -0.00000000000E+00 -0.00000000000E+00 -0.30091249229E+02  0.30091249229E+02  0.00000000000E+00 0. -1.
         25    2    1    2    0    0  0.15038204442E+01  0.74004791307E+01  0.65009682388E+03  0.66205043544E+03  0.12501147978E+03 0.  0.
          2    1    1    2  501    0 -0.15976354513E+02 -0.26622580017E+02 -0.11986821538E+02  0.33281970508E+02  0.00000000000E+00 0. -1.
          1    1    1    2  502    0  0.14472534069E+02  0.19222100886E+02  0.96311312882E+02  0.99271407736E+02  0.00000000000E+00 0. -1.
         22    1    3    3    0    0  0.38797482377E+02  0.52103830771E+02  0.28255337199E+03  0.28992492449E+03  0.00000000000E+00 0.  1.
         22    1    3    3    0    0 -0.37293661933E+02 -0.44703351641E+02  0.36754345189E+03  0.37212551095E+03  0.00000000000E+00 0.  1.
</event>
<event>
 7    1  0.6508013E-006  0.3067963E+03  0.7818608E-02  0.1171676E+00
          2   -1    0    0  502    0  0.00000000000E+00  0.00000000000E+00  0.26478988940E+04  0.26478988940E+04  0.00000000000E+00 0. -1.
          1   -1    0    0  501    0 -0.00000000000E+00 -0.00000000000E+00 -0.26156977803E+03  0.26156977803E+03  0.00000000000E+00 0. -1.
         25    2    1    2    0    0  0.13617924372E+03 -0.16440519855E+03  0.11995624786E+04  0.12248072909E+04  0.12501561529E+03 0.  0.
          2    1    1    2  501    0 -0.20182434466E+03  0.24120240628E+03 -0.14693870873E+03  0.34713491760E+03  0.00000000000E+00 0. -1.
          1    1    1    2  502    0  0.65645100943E+02 -0.76797207726E+02  0.13337053462E+04  0.13375264636E+04  0.00000000000E+00 0. -1.
         22    1    3    3    0    0  0.53113090349E+02 -0.27623449494E+02  0.12736791838E+03  0.14073607200E+03  0.00000000000E+00 0.  1.
         22    1    3    3    0    0  0.83066153373E+02 -0.13678174906E+03  0.10721945602E+04  0.10840712189E+04  0.00000000000E+00 0.  1.
</event>
<event>
 7    1  0.6508013E-006  0.1071139E+03  0.7818608E-02  0.1434882E+00
          2   -1    0    0  502    0  0.00000000000E+00  0.00000000000E+00  0.50249500622E+03  0.50249500622E+03  0.00000000000E+00 0. -1.
          1   -1    0    0  501    0 -0.00000000000E+00 -0.00000000000E+00 -0.13179832523E+04  0.13179832523E+04  0.00000000000E+00 0. -1.
         25    2    1    2    0    0 -0.62939503068E+01  0.83138762474E+02  0.33681263036E+03  0.36880838224E+03  0.12500082883E+03 0.  0.
          2    1    1    2  501    0 -0.11308753719E+01 -0.10725864253E+03 -0.12986946026E+04  0.13031167891E+04  0.00000000000E+00 0. -1.
          1    1    1    2  502    0  0.74248256787E+01  0.24119880055E+02  0.14639372615E+03  0.14855308716E+03  0.00000000000E+00 0. -1.
         22    1    3    3    0    0  0.38834741843E+02 -0.10506761297E+02  0.52876373554E+02  0.66441252902E+02  0.00000000000E+00 0. -1.
         22    1    3    3    0    0 -0.45128692150E+02  0.93645523772E+02  0.28393625681E+03  0.30236712934E+03  0.00000000000E+00 0. -1.
</event>
<event>
 7    1  0.6508013E-006  0.1358255E+03  0.7818608E-02  0.1334211E+00
          2   -1    0    0  502    0  0.00000000000E+00  0.00000000000E+00  0.12265319233E+04  0.12265319233E+04  0.00000000000E+00 0. -1.
          1   -1    0    0  501    0 -0.00000000000E+00 -0.00000000000E+00 -0.76030192980E+02  0.76030192980E+02  0.00000000000E+00 0. -1.
         25    2    1    2    0    0 -0.76619272413E+01  0.12367843171E+03  0.17249632038E+03  0.24644629500E+03  0.12500294466E+03 0.  0.
          2    1    1    2  501    0 -0.44849024218E+02  0.40735065536E+01 -0.19513521132E+02  0.49079587773E+02  0.00000000000E+00 0. -1.
          1    1    1    2  502    0  0.52510951459E+02 -0.12775193826E+03  0.99751893112E+03  0.10070362336E+04  0.00000000000E+00 0. -1.
         22    1    3    3    0    0  0.19834128482E+02  0.12684664870E+03  0.17673445024E+03  0.21844571600E+03  0.00000000000E+00 0. -1.
         22    1    3    3    0    0 -0.27496055723E+02 -0.31682169892E+01 -0.42381298607E+01  0.28000578993E+02  0.00000000000E+00 0. -1.
</event>
<event>
 7    1  0.6508013E-006  0.9944245E+02  0.7818608E-02  0.1285402E+00
          2   -1    0    0  502    0  0.00000000000E+00  0.00000000000E+00  0.26736554296E+04  0.26736554296E+04  0.00000000000E+00 0. -1.
          1   -1    0    0  501    0 -0.00000000000E+00 -0.00000000000E+00 -0.87437588128E+03  0.87437588128E+03  0.00000000000E+00 0. -1.
         25    2    1    2    0    0  0.21895863559E+02  0.12122024219E+02 -0.12752001094E+01  0.12748846360E+03  0.12500123961E+03 0.  0.
          2    1    1    2  501    0 -0.62018582586E+02  0.78866816989E+02 -0.80593537537E+03  0.81215645579E+03  0.00000000000E+00 0. -1.
          1    1    1    2  502    0  0.40122719027E+02 -0.90988841208E+02  0.26064901238E+04  0.26083863915E+04  0.00000000000E+00 0. -1.
         22    1    3    3    0    0 -0.15590941067E+02 -0.43498630468E+02  0.28297596675E+02  0.54184520608E+02  0.00000000000E+00 0.  1.
         22    1    3    3    0    0  0.37486804626E+02  0.55620654687E+02 -0.29572796784E+02  0.73303942995E+02  0.00000000000E+00 0.  1.
</event>
<event>
 7    1  0.6508013E-006  0.5845758E+02  0.7818608E-02  0.1420020E+00
          2   -1    0    0  502    0  0.00000000000E+00  0.00000000000E+00  0.39729984192E+03  0.39729984192E+03  0.00000000000E+00 0. -1.
          1   -1    0    0  501    0 -0.00000000000E+00 -0.00000000000E+00 -0.66466185194E+03  0.66466185194E+03  0.00000000000E+00 0. -1.
         25    2    1    2    0    0  0.18488247968E+02  0.71039515060E+02  0.69500764200E+02  0.16076617115E+03  0.12500790994E+03 0.  0.
          2    1    1    2  501    0 -0.50192533290E+02 -0.30102737205E+02 -0.61525328692E+03  0.61803080202E+03  0.00000000000E+00 0. -1.
          1    1    1    2  502    0  0.31704285322E+02 -0.40936777854E+02  0.27839051269E+03  0.28316472070E+03  0.00000000000E+00 0. -1.
         22    1    3    3    0    0 -0.19914383125E+02  0.24108576237E+02 -0.30586448386E+02  0.43741706966E+02  0.00000000000E+00 0.  1.
         22    1    3    3    0    0  0.38402631093E+02  0.46930938823E+02  0.10008721259E+03  0.11702446418E+03  0.00000000000E+00 0.  1.
</event>
<event>
 7    1  0.6508013E-006  0.1835015E+03  0.7818608E-02  0.1254347E+00
          2   -1    0    0  502    0  0.00000000000E+00  0.00000000000E+00  0.81609648596E+03  0.81609648596E+03  0.00000000000E+00 0. -1.
          1   -1    0    0  501    0 -0.00000000000E+00 -0.00000000000E+00 -0.74321203113E+03  0.74321203113E+03  0.00000000000E+00 0. -1.
         25    2    1    2    0    0  0.14310911250E+03  0.85030217089E+02  0.40283752706E+03  0.45344591700E+03  0.12499908215E+03 0.  0.
          2    1    1    2  501    0 -0.60821672720E+01  0.69851630055E+02 -0.68844226024E+03  0.69200360451E+03  0.00000000000E+00 0. -1.
          1    1    1    2  502    0 -0.13702694523E+03 -0.15488184714E+03  0.35848918801E+03  0.41385899557E+03  0.00000000000E+00 0. -1.
         22    1    3    3    0    0  0.14337112466E+03  0.94165087532E+02  0.26731470627E+03  0.31761532596E+03  0.00000000000E+00 0.  1.
         22    1    3    3    0    0 -0.26201215485E+00 -0.91348704432E+01  0.13552282079E+03  0.13583059105E+03  0.00000000000E+00 0.  1.
</event>
<event>
 7    1  0.6508013E-006  0.7816291E+02  0.7818608E-02  0.1394256E+00
          2   -1    0    0  502    0  0.00000000000E+00  0.00000000000E+00  0.17222330825E+04  0.17222330825E+04  0.00000000000E+00 0. -1.
          1   -1    0    0  501    0 -0.00000000000E+00 -0.00000000000E+00 -0.19678187100E+02  0.19678187100E+02  0.00000000000E+00 0. -1.
         25    2    1    2    0    0  0.30811636718E+02  0.27583722457E+02  0.59605815269E+03  0.61042646485E+03  0.12499971561E+03 0.  0.
          2    1    1    2  501    0  0.43734082287E+02  0.18246862654E+02  0.41773297749E+02  0.63171404568E+02  0.00000000000E+00 0. -1.
          1    1    1    2  502    0 -0.74545719005E+02 -0.45830585111E+02  0.10647234450E+04  0.10683134002E+04  0.00000000000E+00 0. -1.
         22    1    3    3    0    0 -0.10265526849E+02 -0.43742107686E+02  0.14103891475E+03  0.14802272967E+03  0.00000000000E+00 0.  1.
         22    1    3    3    0    0  0.41077163567E+02  0.71325830143E+02  0.45501923794E+03  0.46240373518E+03  0.00000000000E+00 0.  1.
</event>
<event>
 7    1  0.6508013E-006  0.6597605E+02  0.7818608E-02  0.1409093E+00
          2   -1    0    0  502    0  0.00000000000E+00  0.00000000000E+00  0.74827875695E+03  0.74827875695E+03  0.00000000000E+00 0. -1.
          1   -1    0    0  501    0 -0.00000000000E+00 -0.00000000000E+00 -0.92934844097E+03  0.92934844097E+03  0.00000000000E+00 0. -1.
         25    2    1    2    0    0  0.55911461178E+02 -0.52497760333E+02  0.30491904589E+03  0.33835600375E+03  0.12500821733E+03 0.  0.
          2    1    1    2  501    0 -0.48003628744E+02 -0.13746419238E+02 -0.90933274468E+03  0.91070266990E+03  0.00000000000E+00 0. -1.
          1    1    1    2  502    0 -0.79078324346E+01  0.66244179572E+02  0.42334401477E+03  0.42856852426E+03  0.00000000000E+00 0. -1.
         22    1    3    3    0    0  0.38332766449E+02 -0.33661056528E+02  0.30819055687E+03  0.31238419783E+03  0.00000000000E+00 0. -1.
         22    1    3    3    0    0  0.17578694730E+02 -0.18836703806E+02 -0.32715109834E+01  0.25971805921E+02  0.00000000000E+00 0. -1.
</event>
<event>
 7    1  0.6508013E-006  0.3776759E+02  0.7818608E-02  0.1527161E+00
          2   -1    0    0  502    0  0.00000000000E+00  0.00000000000E+00  0.17446739343E+04  0.17446739343E+04  0.00000000000E+00 0. -1.
          1   -1    0    0  501    0 -0.00000000000E+00 -0.00000000000E+00 -0.15126228121E+04  0.15126228121E+04  0.00000000000E+00 0. -1.
         25    2    1    2    0    0 -0.18508118425E+00  0.32494301911E+02  0.32594971513E+03  0.35060470614E+03  0.12499811704E+03 0.  0.
          2    1    1    2  501    0 -0.34009673928E+02 -0.16423542493E+02 -0.14998037882E+04  0.15002792386E+04  0.00000000000E+00 0. -1.
          1    1    1    2  502    0  0.34194755113E+02 -0.16070759418E+02  0.14059051952E+04  0.14064128016E+04  0.00000000000E+00 0. -1.
         22    1    3    3    0    0  0.20760426107E+02  0.57595935417E+02  0.30651941147E+03  0.31257388994E+03  0.00000000000E+00 0.  1.
         22    1    3    3    0    0 -0.20945507291E+02 -0.25101633505E+02  0.19430303666E+02  0.38030816201E+02  0.00000000000E+00 0.  1.
</event>
<event>
 7    1  0.6508013E-006  0.1574280E+03  0.7818608E-02  0.1299870E+00
          2   -1    0    0  502    0  0.00000000000E+00  0.00000000000E+00  0.21350237270E+04  0.21350237270E+04  0.00000000000E+00 0. -1.
          1   -1    0    0  501    0 -0.00000000000E+00 -0.00000000000E+00 -0.16188435337E+03  0.16188435337E+03  0.00000000000E+00 0. -1.
         25    2    1    2    0    0 -0.72314169470E+02 -0.13779573305E+03  0.26344251944E+03  0.33051969401E+03  0.12499721569E+03 0.  0.
          2    1    1    2  501    0  0.23155751536E+02  0.15729060005E+03 -0.78569273791E+02  0.17734049869E+03  0.00000000000E+00 0. -1.
          1    1    1    2  502    0  0.49158417935E+02 -0.19494866994E+02  0.17882661280E+04  0.17890478877E+04  0.00000000000E+00 0. -1.
         22    1    3    3    0    0 -0.53831824493E+02 -0.15135268475E+03  0.16831740251E+03  0.23267197617E+03  0.00000000000E+00 0.  1.
         22    1    3    3    0    0 -0.18482344977E+02  0.13556951700E+02  0.95125116929E+02  0.97847717838E+02  0.00000000000E+00 0.  1.
</event>
<event>
 7    1  0.6508013E-006  0.1854090E+03  0.7818608E-02  0.1288436E+00
          2   -1    0    0  502    0  0.00000000000E+00  0.00000000000E+00  0.71198013094E+03  0.71198013094E+03  0.00000000000E+00 0. -1.
          1   -1    0    0  501    0 -0.00000000000E+00 -0.00000000000E+00 -0.60241333258E+03  0.60241333258E+03  0.00000000000E+00 0. -1.
         25    2    1    2    0    0  0.15976419755E+03  0.76342723075E+02  0.11057617037E+02  0.21702581511E+03  0.12500049337E+03 0.  0.
          2    1    1    2  501    0 -0.14168562036E+03 -0.12289756531E+03 -0.48070730750E+03  0.51600207564E+03  0.00000000000E+00 0. -1.
          1    1    1    2  502    0 -0.18078577191E+02  0.46554842237E+02  0.57921648882E+03  0.58136557278E+03  0.00000000000E+00 0. -1.
         22    1    3    3    0    0  0.12327738437E+03  0.84629627034E+02 -0.38997043462E+02  0.15453238064E+03  0.00000000000E+00 0.  1.
         22    1    3    3    0    0  0.36486813185E+02 -0.82869039589E+01  0.50054660499E+02  0.62493434466E+02  0.00000000000E+00 0.  1.
</event>
<event>
 7    1  0.6508013E-006  0.1558471E+03  0.7818608E-02  0.1239645E+00
          2   -1    0    0  502    0  0.00000000000E+00  0.00000000000E+00  0.93221265636E+03  0.93221265636E+03  0.00000000000E+00 0. -1.
          1   -1    0    0  501    0 -0.00000000000E+00 -0.00000000000E+00 -0.25560572884E+03  0.25560572884E+03  0.00000000000E+00 0. -1.
         25    2    1    2    0    0  0.88100241370E+02  0.21807579072E+03  0.64472790407E+02  0.27404527925E+03  0.12500148538E+03 0.  0.
          2    1    1    2  501    0 -0.61225862946E+02 -0.12624023098E+03 -0.11435870838E+03  0.18100584630E+03  0.00000000000E+00 0. -1.
          1    1    1    2  502    0 -0.26874378424E+02 -0.91835559740E+02  0.72649284550E+03  0.73276725964E+03  0.00000000000E+00 0. -1.
         22    1    3    3    0    0  0.84323269602E+02  0.54471468247E+02  0.42169812643E+02  0.10888456157E+03  0.00000000000E+00 0.  1.
         22    1    3    3    0    0  0.37769717684E+01  0.16360432248E+03  0.22302977764E+02  0.16516071768E+03  0.00000000000E+00 0.  1.
</event>
<event>
 7    1  0.6508013E-006  0.6481157E+02  0.7818608E-02  0.1514553E+00
          2   -1    0    0  502    0  0.00000000000E+00  0.00000000000E+00  0.22290922204E+04  0.22290922204E+04  0.00000000000E+00 0. -1.
          1   -1    0    0  501    0 -0.00000000000E+00 -0.00000000000E+00 -0.78908034603E+02  0.78908034603E+02  0.00000000000E+00 0. -1.
         25    2    1    2    0    0  0.70624409038E+02 -0.52010200887E+02  0.15428206264E+03  0.21707158892E+03  0.12499700683E+03 0.  0.
          2    1    1    2  501    0 -0.16660601911E+02  0.16785682586E+02 -0.44029549250E+02  0.49979355769E+02  0.00000000000E+00 0. -1.
          1    1    1    2  502    0 -0.53963807126E+02  0.35224518300E+02  0.20399316724E+04  0.20409493103E+04  0.00000000000E+00 0. -1.
         22    1    3    3    0    0  0.95650988722E+02 -0.43207563395E+02  0.15860897726E+03  0.19019151623E+03  0.00000000000E+00 0.  1.
         22    1    3    3    0    0 -0.25026579684E+02 -0.88026374915E+01 -0.43269146261E+01  0.26880072688E+02  0.00000000000E+00 0.  1.
</event>
<event>
 7    1  0.6508013E-006  0.2434403E+03  0.7818608E-02  0.1259783E+00
          2   -1    0    0  502    0  0.00000000000E+00  0.00000000000E+00  0.15059645139E+04  0.15059645139E+04  0.00000000000E+00 0. -1.
          1   -1    0    0  501    0 -0.00000000000E+00 -0.00000000000E+00 -0.11353004085E+04  0.11353004085E+04  0.00000000000E+00 0. -1.
         25    2    1    2    0    0  0.22142890187E+03  0.26808848795E+02  0.14900571517E+03  0.29593583175E+03  0.12500336156E+03 0.  0.
          2    1    1    2  501    0 -0.23305062492E+03 -0.75531670166E+02 -0.10472039936E+04  0.10754784196E+04  0.00000000000E+00 0. -1.
          1    1    1    2  502    0  0.11621723049E+02  0.48722821370E+02  0.12688623837E+04  0.12698506710E+04  0.00000000000E+00 0. -1.
         22    1    3    3    0    0  0.76505920356E+02  0.46313372076E+02  0.32802974316E+01  0.89492148447E+02  0.00000000000E+00 0. -1.
         22    1    3    3    0    0  0.14492298151E+03 -0.19504523281E+02  0.14572541774E+03  0.20644368330E+03  0.00000000000E+00 0. -1.
</event>
<event>
 7    1  0.6508013E-006  0.1467002E+03  0.7818608E-02  0.1242945E+00
          2   -1    0    0  502    0  0.00000000000E+00  0.00000000000E+00  0.14679794203E+04  0.14679794203E+04  0.00000000000E+00 0. -1.
          1   -1    0    0  501    0 -0.00000000000E+00 -0.00000000000E+00 -0.44256717773E+03  0.44256717773E+03  0.00000000000E+00 0. -1.
         25    2    1    2    0    0 -0.18554304308E+03 -0.62047290922E+02  0.14405216238E+01  0.23217147675E+03  0.12500172945E+03 0.  0.
          2    1    1    2  501    0  0.14060738495E+03 -0.25391907448E+02 -0.30970742163E+03  0.34107751711E+03  0.00000000000E+00 0. -1.
          1    1    1    2  502    0  0.44935658133E+02  0.87439198370E+02  0.13336791426E+04  0.13372976042E+04  0.00000000000E+00 0. -1.
         22    1    3    3    0    0 -0.28283843996E+02 -0.23186401351E+02  0.51010975009E+02  0.62767066286E+02  0.00000000000E+00 0.  1.
         22    1    3    3    0    0 -0.15725919908E+03 -0.38860889571E+02 -0.49570453385E+02  0.16940441046E+03  0.00000000000E+00 0.  1.
</event>
<event>
 7    1  0.6508013E-006  0.2452203E+02  0.7818608E-02  0.1684792E+00
          2   -1    0    0  502    0  0.00000000000E+00  0.00000000000E+00  0.13508686779E+04  0.13508686779E+04  0.00000000000E+00 0. -1.
          1   -1    0    0  501    0 -0.00000000000E+00 -0.00000000000E+00 -0.61694649020E+02  0.61694649020E+02  0.00000000000E+00 0. -1.
         25    2    1    2    0    0  0.34885878161E+02  0.93203077267E+01  0.10066237579E+03  0.16450442080E+03  0.12499959173E+03 0.  0.
          2    1    1    2  501    0 -0.14863227937E+02 -0.19290072444E+02 -0.24673810353E+02  0.34667266360E+02  0.00000000000E+00 0. -1.
          1    1    1    2  502    0 -0.20022650224E+02  0.99697647169E+01  0.12131854634E+04  0.12133916397E+04  0.00000000000E+00 0. -1.
         22    1    3    3    0    0  0.41973074515E+02 -0.47745605410E+02  0.22432941740E+02  0.67413787131E+02  0.00000000000E+00 0.  1.
         22    1    3    3    0    0 -0.70871963549E+01  0.57065913136E+02  0.78229434049E+02  0.97090633667E+02  0.00000000000E+00 0.  1.
</event>
<event>
 7    1  0.6508013E-006  0.7883139E+02  0.7818608E-02  0.1428689E+00
          2   -1    0    0  502    0  0.00000000000E+00  0.00000000000E+00  0.80008439203E+03  0.80008439203E+03  0.00000000000E+00 0. -1.
          1   -1    0    0  501    0 -0.00000000000E+00 -0.00000000000E+00 -0.10224909941E+04  0.10224909941E+04  0.00000000000E+00 0. -1.
         25    2    1    2    0    0  0.68212744273E+02  0.62749194893E+02  0.37743588449E+02  0.16011508696E+03  0.12498729000E+03 0.  0.
          2    1    1    2  501    0  0.54888747040E+01 -0.35513181560E+02 -0.95876632244E+03  0.95943951078E+03  0.00000000000E+00 0. -1.
          1    1    1    2  502    0 -0.73701618977E+02 -0.27236013332E+02  0.69861613194E+03  0.70302078836E+03  0.00000000000E+00 0. -1.
         22    1    3    3    0    0 -0.32521781168E+02 -0.42003684922E+01 -0.18561469561E+01  0.32844400243E+02  0.00000000000E+00 0.  1.
         22    1    3    3    0    0  0.10073452544E+03  0.66949563385E+02  0.39599735405E+02  0.12727068672E+03  0.00000000000E+00 0.  1.
</event>
<event>
 7    1  0.6508013E-006  0.6048923E+02  0.7818608E-02  0.1456066E+00
          2   -1    0    0  502    0  0.00000000000E+00  0.00000000000E+00  0.40500824343E+04  0.40500824343E+04  0.00000000000E+00 0. -1.
          1   -1    0    0  501    0 -0.00000000000E+00 -0.00000000000E+00 -0.22945350194E+04  0.22945350194E+04  0.00000000000E+00 0. -1.
         25    2    1    2    0    0 -0.47973207820E+02 -0.85422843142E+02 -0.28276530637E+03  0.32431095071E+03  0.12499153357E+03 0.  0.
          2    1    1    2  501    0  0.13578393443E+02  0.35697657988E+02 -0.19905868854E+04  0.19909532500E+04  0.00000000000E+00 0. -1.
          1    1    1    2  502    0  0.34394814378E+02  0.49725185154E+02  0.40288996066E+04  0.40293532530E+04  0.00000000000E+00 0. -1.
         22    1    3    3    0    0  0.50334242542E+01 -0.61397074782E+02 -0.25009544573E+03  0.25757070510E+03  0.00000000000E+00 0.  1.
         22    1    3    3    0    0 -0.53006632074E+02 -0.24025768360E+02 -0.32669860635E+02  0.66740245602E+02  0.00000000000E+00 0.  1.
</event>
<event>
 7    1  0.6508013E-006  0.6481462E+02  0.7818608E-02  0.1445378E+00
          2   -1    0    0  502    0  0.00000000000E+00  0.00000000000E+00  0.33652290718E+04  0.33652290718E+04  0.00000000000E+00 0. -1.
          1   -1    0    0  501    0 -0.00000000000E+00 -0.00000000000E+00 -0.69909570562E+02  0.69909570562E+02  0.00000000000E+00 0. -1.
         25    2    1    2    0    0 -0.18513775220E+02 -0.75140389594E+02  0.53027551459E+03  0.55028499372E+03  0.12503045599E+03 0.  0.
          2    1    1    2  501    0  0.36329493176E+02  0.12927958416E+02 -0.53289159499E+02  0.65777645924E+02  0.00000000000E+00 0. -1.
          1    1    1    2  502    0 -0.17815717956E+02  0.62212431177E+02  0.28183331461E+04  0.28190760027E+04  0.00000000000E+00 0. -1.
         22    1    3    3    0    0 -0.95426332773E+01  0.24217733612E+02  0.28131154958E+02  0.38326522807E+02  0.00000000000E+00 0.  1.
         22    1    3    3    0    0 -0.89711419423E+01 -0.99358123206E+02  0.50214435963E+03  0.51195847091E+03  0.00000000000E+00 0.  1.
</event>
<event>
 7    1  0.6508013E-006  0.4551628E+02  0.7818608E-02  0.1483246E+00
          2   -1    0    0  502    0  0.00000000000E+00  0.00000000000E+00  0.37811012608E+02  0.37811012608E+02  0.00000000000E+00 0. -1.
          1   -1    0    0  501    0 -0.00000000000E+00 -0.00000000000E+00 -0.22705920883E+04  0.22705920883E+04  0.00000000000E+00 0. -1.
         25    2    1    2    0    0 -0.11090976092E+02 -0.29546811785E+02 -0.29022726278E+03  0.31757413490E+03  0.12500177302E+03 0.  0.
          2    1    1    2  501    0  0.45709075314E+02  0.61676065221E+01 -0.19481382263E+04  0.19486841477E+04  0.00000000000E+00 0. -1.
          1    1    1    2  502    0 -0.34618099222E+02  0.23379205263E+02  0.55844133920E+01  0.42144818251E+02  0.00000000000E+00 0. -1.
         22    1    3    3    0    0 -0.65141275856E+02 -0.12797531555E+02 -0.10808468356E+03  0.12684424092E+03  0.00000000000E+00 0.  1.
         22    1    3    3    0    0  0.54050299764E+02 -0.16749280230E+02 -0.18214257923E+03  0.19072989399E+03  0.00000000000E+00 0.  1.
</event>
<event>
 7    1  0.6508013E-006  0.9673091E+02  0.7818608E-02  0.1310626E+00
          2   -1    0    0  502    0  0.00000000000E+00  0.00000000000E+00  0.26894535149E+02  0.26894535149E+02  0.00000000000E+00 0. -1.
          1   -1    0    0  501    0 -0.00000000000E+00 -0.00000000000E+00 -0.12440051197E+04  0.12440051197E+04  0.00000000000E+00 0. -1.
         25    2    1    2    0    0 -0.51889025362E+02  0.10476080968E+03 -0.71655833045E+03  0.73671477407E+03  0.12500207677E+03 0.  0.
          2    1    1    2  501    0 -0.38290495202E+02 -0.67961208586E+02 -0.31625698364E+03  0.32573511876E+03  0.00000000000E+00 0. -1.
          1    1    1    2  502    0  0.90179520565E+02 -0.36799601091E+02 -0.18429527045E+03  0.20844976201E+03  0.00000000000E+00 0. -1.
         22    1    3    3    0    0  0.30691679813E+02  0.65461923048E+02 -0.21346508658E+03  0.22537654219E+03  0.00000000000E+00 0. -1.
         22    1    3    3    0    0 -0.82580705175E+02  0.39298886628E+02 -0.50309324387E+03  0.51133823188E+03  0.00000000000E+00 0. -1.
</event>
<event>
 7    1  0.6508013E-006  0.6282398E+02  0.7818608E-02  0.1411852E+00
          2   -1    0    0  502    0  0.00000000000E+00  0.00000000000E+00  0.56276087963E+03  0.56276087963E+03  0.00000000000E+00 0. -1.
          1   -1    0    0  501    0 -0.00000000000E+00 -0.00000000000E+00 -0.10265580406E+04  0.10265580406E+04  0.00000000000E+00 0. -1.
         25    2    1    2    0    0  0.46079561578E+01 -0.86141355358E+02 -0.15871554191E+03  0.21967891091E+03  0.12500653700E+03 0.  0.
          2    1    1    2  501    0 -0.38841247723E+02  0.33546133026E+02 -0.83472025704E+03  0.83629653418E+03  0.00000000000E+00 0. -1.
          1    1    1    2  502    0  0.34233291565E+02  0.52595222332E+02  0.52963863796E+03  0.53334347515E+03  0.00000000000E+00 0. -1.
         22    1    3    3    0    0 -0.52405959901E+02 -0.64833358781E+02 -0.56477962049E+02  0.10069513018E+03  0.00000000000E+00 0.  1.
         22    1    3    3    0    0  0.57013916059E+02 -0.21307996577E+02 -0.10223757986E+03  0.11898378074E+03  0.00000000000E+00 0.  1.
</event>
<event>
 7    1  0.6508013E-006  0.2306843E+03  0.7818608E-02  0.1291072E+00
          2   -1    0    0  502    0  0.00000000000E+00  0.00000000000E+00  0.16360727532E+04  0.16360727532E+04  0.00000000000E+00 0. -1.
          1   -1    0    0  501    0 -0.00000000000E+00 -0.00000000000E+00 -0.18088297584E+04  0.18088297584E+04  0.00000000000E+00 0. -1.
         25    2    1    2    0    0  0.17530263970E+03 -0.81773469427E+02  0.67383915489E+02  0.23996632628E+03  0.12500131956E+03 0.  0.
          2    1    1    2  501    0 -0.21120021277E+03  0.97424143385E+02 -0.17144260115E+04  0.17301310767E+04  0.00000000000E+00 0. -1.
          1    1    1    2  502    0  0.35897573062E+02 -0.15650673958E+02  0.14742850909E+04  0.14748051086E+04  0.00000000000E+00 0. -1.
         22    1    3    3    0    0  0.11081519229E+03 -0.65195477691E+02  0.10273918079E+03  0.16457763039E+03  0.00000000000E+00 0. -1.
         22    1    3    3    0    0  0.64487447411E+02 -0.16577991736E+02 -0.35355265303E+02  0.75388695891E+02  0.00000000000E+00 0. -1.
</event>
<event>
 7    1  0.6508013E-006  0.1845353E+03  0.7818608E-02  0.1217469E+00
          2   -1    0    0  502    0  0.00000000000E+00  0.00000000000E+00  0.25475372239E+04  0.25475372239E+04  0.00000000000E+00 0. -1.
          1   -1    0    0  501    0 -0.00000000000E+00 -0.00000000000E+00 -0.15601743037E+03  0.15601743037E+03  0.00000000000E+00 0. -1.
         25    2    1    2    0    0  0.34014523597E+02  0.16745287428E+03  0.17271835376E+04  0.17401100046E+04  0.12498961006E+03 0.  0.
          2    1    1    2  501    0 -0.81333209392E+02  0.60989866693E+02 -0.11291538928E+03  0.15193663128E+03  0.00000000000E+00 0. -1.
          1    1    1    2  502    0  0.47318685795E+02 -0.22844274098E+03  0.77725164527E+03  0.81150801845E+03  0.00000000000E+00 0. -1.
         22    1    3    3    0    0  0.14584196353E+02  0.16793513026E+02  0.37414418488E+02  0.43526538730E+02  0.00000000000E+00 0. -1.
         22    1    3    3    0    0  0.19430327243E+02  0.15065936126E+03  0.16897691191E+04  0.16965834658E+04  0.00000000000E+00 0. -1.
</event>
<event>
 7    1  0.6508013E-006  0.9624925E+02  0.7818608E-02  0.1301625E+00
          2   -1    0    0  502    0  0.00000000000E+00  0.00000000000E+00  0.79752708135E+03  0.79752708135E+03  0.00000000000E+00 0. -1.
          1   -1    0    0  501    0 -0.00000000000E+00 -0.00000000000E+00 -0.92589672800E+02  0.92589672800E+02  0.00000000000E+00 0. -1.
         25    2    1    2    0    0 -0.20152816836E+02  0.14168814582E+02 -0.61153616596E+01  0.12753664017E+03  0.12498522154E+03 0.  0.
          2    1    1    2  501    0  0.23850799846E+01  0.85076441103E+02  0.60895166818E+02  0.10465137734E+03  0.00000000000E+00 0. -1.
          1    1    1    2  502    0  0.17767736852E+02 -0.99245255686E+02  0.65015760339E+03  0.65792873664E+03  0.00000000000E+00 0. -1.
         22    1    3    3    0    0 -0.16127837344E+02 -0.28500348568E+02  0.48247411606E+02  0.58311145870E+02  0.00000000000E+00 0. -1.
         22    1    3    3    0    0 -0.40249794923E+01  0.42669163151E+02 -0.54362773266E+02  0.69225494300E+02  0.00000000000E+00 0. -1.
</event>
<event>
 7    1  0.6508013E-006  0.7749280E+02  0.7818608E-02  0.1353312E+00
          2   -1    0    0  502    0  0.00000000000E+00  0.00000000000E+00  0.15722029126E+04  0.15722029126E+04  0.00000000000E+00 0. -1.
          1   -1    0    0  501    0 -0.00000000000E+00 -0.00000000000E+00 -0.50963772751E+03  0.50963772751E+03  0.00000000000E+00 0. -1.
         25    2    1    2    0    0 -0.48057720035E+02  0.84279227942E+01  0.40436577133E+03  0.42604820947E+03  0.12499930172E+03 0.  0.
          2    1    1    2  501    0  0.94624298912E+01  0.66286362993E+02 -0.49501143190E+03  0.49951950633E+03  0.00000000000E+00 0. -1.
          1    1    1    2  502    0  0.38595290144E+02 -0.74714285787E+02  0.11532108456E+04  0.11562729242E+04  0.00000000000E+00 0. -1.
         22    1    3    3    0    0  0.19903347810E+02  0.73020898649E+01  0.30455246358E+03  0.30528948040E+03  0.00000000000E+00 0. -1.
         22    1    3    3    0    0 -0.67961067845E+02  0.11258329293E+01  0.99813307753E+02  0.12075872907E+03  0.00000000000E+00 0. -1.
</event>
<event>
 7    1  0.6508013E-006  0.6568484E+02  0.7818608E-02  0.1406057E+00
          2   -1    0    0  502    0  0.00000000000E+00  0.00000000000E+00  0.19015064154E+04  0.19015064154E+04  0.00000000000E+00 0. -1.
          1   -1    0    0  501    0 -0.00000000000E+00 -0.00000000000E+00 -0.20525013950E+04  0.20525013950E+04  0.00000000000E+00 0. -1.
         25    2    1    2    0    0  0.67618531225E+01  0.36957377377E+02  0.12536614773E+04  0.12604378898E+04  0.12500001646E+03 0.  0.
          2    1    1    2  501    0 -0.57803263260E+02 -0.31234653669E+02 -0.20475620857E+04  0.20486159512E+04  0.00000000000E+00 0. -1.
          1    1    1    2  502    0  0.51041410137E+02 -0.57227237087E+01  0.64290562877E+03  0.64495396938E+03  0.00000000000E+00 0. -1.
         22    1    3    3    0    0 -0.82889368045E+01  0.82158074664E+02  0.83592532773E+03  0.83999393406E+03  0.00000000000E+00 0. -1.
         22    1    3    3    0    0  0.15050789927E+02 -0.45200697287E+02  0.41773614955E+03  0.42044395578E+03  0.00000000000E+00 0. -1.
</event>
<event>
 7    1  0.6508013E-006  0.1722004E+03  0.7818608E-02  0.1289976E+00
          2   -1    0    0  502    0  0.00000000000E+00  0.00000000000E+00  0.21060170738E+04  0.21060170738E+04  0.00000000000E+00 0. -1.
          1   -1    0    0  501    0 -0.00000000000E+00 -0.00000000000E+00 -0.24865608009E+04  0.24865608009E+04  0.00000000000E+00 0. -1.
         25    2    1    2    0    0 -0.20303456256E+03  0.85901801869E+02 -0.87238665722E+03  0.90845240331E+03  0.12500054491E+03 0.  0.
          2    1    1    2  501    0  0.38193330846E+02 -0.36748079183E+02 -0.15921568147E+04  0.15930387548E+04  0.00000000000E+00 0. -1.
          1    1    1    2  502    0  0.16484123172E+03 -0.49153722686E+02  0.20839997448E+04  0.20910867166E+04  0.00000000000E+00 0. -1.
         22    1    3    3    0    0 -0.24151240554E+01 -0.16636500033E+02 -0.16966431731E+03  0.17049512171E+03  0.00000000000E+00 0. -1.
         22    1    3    3    0    0 -0.20061943851E+03  0.10253830190E+03 -0.70272233991E+03  0.73795728160E+03  0.00000000000E+00 0. -1.
</event>
<event>
 7    1  0.6508013E-006  0.1437884E+03  0.7818608E-02  0.1324756E+00
          2   -1    0    0  502    0  0.00000000000E+00  0.00000000000E+00  0.54311769236E+03  0.54311769236E+03  0.00000000000E+00 0. -1.
          1   -1    0    0  501    0 -0.00000000000E+00 -0.00000000000E+00 -0.45360109343E+03  0.45360109343E+03  0.00000000000E+00 0. -1.
         25    2    1    2    0    0  0.72449990074E+02 -0.12860167081E+03  0.24564800729E+03  0.31265785627E+03  0.12499840323E+03 0.  0.
          2    1    1    2  501    0 -0.27964429034E+02  0.14118979325E+03 -0.40558099504E+03  0.43036323094E+03  0.00000000000E+00 0. -1.
          1    1    1    2  502    0 -0.44485561040E+02 -0.12588122434E+02  0.24944958668E+03  0.25369769858E+03  0.00000000000E+00 0. -1.
         22    1    3    3    0    0  0.94126828198E+02 -0.78385633809E+02  0.10354549060E+03  0.16039275544E+03  0.00000000000E+00 0. -1.
         22    1    3    3    0    0 -0.21676838124E+02 -0.50216037002E+02  0.14210251669E+03  0.15226510084E+03  0.00000000000E+00 0. -1.
</event>
<event>
 7    1  0.6508013E-006  0.2262581E+03  0.7818608E-02  0.1135243E+00
          2   -1    0    0  502    0  0.00000000000E+00  0.00000000000E+00  0.33152393428E+03  0.33152393428E+03  0.00000000000E+00 0. -1.
          1   -1    0    0  501    0 -0.00000000000E+00 -0.00000000000E+00 -0.83485022180E+03  0.83485022180E+03  0.00000000000E+00 0. -1.
         25    2    1    2    0    0 -0.33862495373E+02  0.12431198201E+03 -0.96359085505E+02  0.20373924187E+03  0.12499787140E+03 0.  0.
          2    1    1    2  501    0  0.23143594047E+03 -0.19665595061E+03 -0.60293627350E+03  0.67510614525E+03  0.00000000000E+00 0. -1.
          1    1    1    2  502    0 -0.19757344510E+03  0.72343968602E+02  0.19596907149E+03  0.28752876896E+03  0.00000000000E+00 0. -1.
         22    1    3    3    0    0 -0.42456930462E+02  0.18109332568E+02  0.16038490235E+02  0.48864834384E+02  0.00000000000E+00 0. -1.
         22    1    3    3    0    0  0.85944350892E+01  0.10620264944E+03 -0.11239757574E+03  0.15487440749E+03  0.00000000000E+00 0. -1.
</event>
<event>
 7    1  0.6508013E-006  0.1024407E+03  0.7818608E-02  0.1388594E+00
          2   -1    0    0  502    0  0.00000000000E+00  0.00000000000E+00  0.24586340664E+04  0.24586340664E+04  0.00000000000E+00 0. -1.
          1   -1    0    0  501    0 -0.00000000000E+00 -0.00000000000E+00 -0.15358165854E+03  0.15358165854E+03  0.00000000000E+00 0. -1.
         25    2    1    2    0    0 -0.28214066495E+02 -0.11795951855E+03  0.46845402075E+03  0.49978596462E+03  0.12500543711E+03 0.  0.
          2    1    1    2  501    0 -0.22581336590E+02  0.30359690541E+02 -0.13399587162E+03  0.13923548823E+03  0.00000000000E+00 0. -1.
          1    1    1    2  502    0  0.50795403084E+02  0.87599828011E+02  0.19705942588E+04  0.19731942721E+04  0.00000000000E+00 0. -1.
         22    1    3    3    0    0 -0.74577097767E+02 -0.52888158848E+02  0.20456234109E+03  0.22406394679E+03  0.00000000000E+00 0.  1.
         22    1    3    3    0    0  0.46363031272E+02 -0.65071359704E+02  0.26389167966E+03  0.27572201783E+03  0.00000000000E+00 0.  1.
</event>
<event>
 7    1  0.6508013E-006  0.5696454E+02  0.7818608E-02  0.1463549E+00
          2   -1    0    0  502    0  0.00000000000E+00  0.00000000000E+00  0.22086079667E+04  0.22086079667E+04  0.00000000000E+00 0. -1.
          1   -1    0    0  501    0 -0.00000000000E+00 -0.00000000000E+00 -0.18541289359E+02  0.18541289359E+02  0.00000000000E+00 0. -1.
         25    2    1    2    0    0  0.23350127013E+02 -0.68835772332E+00  0.37354164214E+03  0.39459281840E+03  0.12499772659E+03 0.  0.
          2    1    1    2  501    0  0.30922143356E+02  0.22784811086E+02  0.41434870405E+02  0.56499336735E+02  0.00000000000E+00 0. -1.
          1    1    1    2  502    0 -0.54272270369E+02 -0.22096453363E+02  0.17750901648E+04  0.17760571009E+04  0.00000000000E+00 0. -1.
         22    1    3    3    0    0 -0.41477071206E+02  0.14263020634E+02  0.61502821098E+02  0.75540573180E+02  0.00000000000E+00 0. -1.
         22    1    3    3    0    0  0.64827198219E+02 -0.14951378357E+02  0.31203882104E+03  0.31905224522E+03  0.00000000000E+00 0. -1.
</event>
<event>
 7    1  0.6508013E-006  0.1026040E+03  0.7818608E-02  0.1383940E+00
          2   -1    0    0  502    0  0.00000000000E+00  0.00000000000E+00  0.27734519198E+03  0.27734519198E+03  0.00000000000E+00 0. -1.
          1   -1    0    0  501    0 -0.00000000000E+00 -0.00000000000E+00 -0.28135030988E+04  0.28135030988E+04  0.00000000000E+00 0. -1.
         25    2    1    2    0    0  0.58698155823E+02 -0.77535395126E+02  0.24477670360E+02  0.16025291160E+03  0.12499851333E+03 0.  0.
          2    1    1    2  501    0 -0.31133908103E+02 -0.23857976503E+02 -0.27305421672E+04  0.27308238775E+04  0.00000000000E+00 0. -1.
          1    1    1    2  502    0 -0.27564247719E+02  0.10139337163E+03  0.16990658999E+03  0.19977150168E+03  0.00000000000E+00 0. -1.
         22    1    3    3    0    0  0.64517375014E+02 -0.10299777140E+03 -0.40121606599E+01  0.12160234383E+03  0.00000000000E+00 0.  1.
         22    1    3    3    0    0 -0.58192191915E+01  0.25462376273E+02  0.28489831020E+02  0.38650567770E+02  0.00000000000E+00 0.  1.
</event>
<event>
 7    1  0.6508013E-006  0.1464592E+03  0.7818608E-02  0.1225839E+00
          2   -1    0    0  502    0  0.00000000000E+00  0.00000000000E+00  0.17937215937E+04  0.17937215937E+04  0.00000000000E+00 0. -1.
          1   -1    0    0  501    0 -0.00000000000E+00 -0.00000000000E+00 -0.23098375506E+04  0.23098375506E+04  0.00000000000E+00 0. -1.
         25    2    1    2    0    0 -0.15099661414E+03 -0.20734804939E+03  0.11032097212E+03  0.30592289146E+03  0.12499963025E+03 0.  0.
          2    1    1    2  501    0  0.61312755393E+02  0.13167627469E+03 -0.22074755194E+04  0.22122490962E+04  0.00000000000E+00 0. -1.
          1    1    1    2  502    0  0.89683858748E+02  0.75671774699E+02  0.15810385903E+04  0.15853871565E+04  0.00000000000E+00 0. -1.
         22    1    3    3    0    0 -0.14058166150E+03 -0.19398429427E+03  0.13575754205E+03  0.27536016451E+03  0.00000000000E+00 0. -1.
         22    1    3    3    0    0 -0.10414952636E+02 -0.13363755114E+02 -0.25436569924E+02  0.30562726951E+02  0.00000000000E+00 0. -1.
</event>
<event>
 7    1  0.6508013E-006  0.7234876E+02  0.7818608E-02  0.1365033E+00
          2   -1    0    0  502    0  0.00000000000E+00  0.00000000000E+00  0.10077401477E+04  0.10077401477E+04  0.00000000000E+00 0. -1.
          1   -1    0    0  501    0 -0.00000000000E+00 -0.00000000000E+00 -0.19652550480E+03  0.19652550480E+03  0.00000000000E+00 0. -1.
         25    2    1    2    0    0 -0.25577883345E+02 -0.81982770981E+02  0.41727547737E+02  0.15729286316E+03  0.12499781481E+03 0.  0.
          2    1    1    2  501    0  0.62104254248E+02  0.19130808023E+02 -0.12958520942E+03  0.14496638476E+03  0.00000000000E+00 0. -1.
          1    1    1    2  502    0 -0.36526370903E+02  0.62851962958E+02  0.89907230461E+03  0.90200640459E+03  0.00000000000E+00 0. -1.
         22    1    3    3    0    0  0.49850184569E+02 -0.28398188566E+02  0.44577989809E+01  0.57544504405E+02  0.00000000000E+00 0.  1.
         22    1    3    3    0    0 -0.75428067914E+02 -0.53584582415E+02  0.37269748756E+02  0.99748358754E+02  0.00000000000E+00 0.  1.
</event>
<event>
 7    1  0.6508013E-006  0.5432878E+02  0.7818608E-02  0.1490973E+00
          2   -1    0    0  502    0  0.00000000000E+00  0.00000000000E+00  0.22951052170E+04  0.22951052170E+04  0.00000000000E+00 0. -1.
          1   -1    0    0  501    0 -0.00000000000E+00 -0.00000000000E+00 -0.79515515703E+02  0.79515515703E+02  0.00000000000E+00 0. -1.
         25    2    1    2    0    0  0.24422998672E+02 -0.33216489958E+02  0.32857196675E+03  0.35395549630E+03  0.12500055183E+03 0.  0.
          2    1    1    2  501    0 -0.52690159609E+02  0.15887559349E+02 -0.55327420859E+02  0.78037112713E+02  0.00000000000E+00 0. -1.
          1    1    1    2  502    0  0.28267160937E+02  0.17328930609E+02  0.19423451554E+04  0.19426281237E+04  0.00000000000E+00 0. -1.
         22    1    3    3    0    0  0.51232577462E+02 -0.46555996117E+02  0.90162646942E+02  0.11367295488E+03  0.00000000000E+00 0.  1.
         22    1    3    3    0    0 -0.26809578791E+02  0.13339506159E+02  0.23840931980E+03  0.24028254142E+03  0.00000000000E+00 0.  1.
</event>
<event>
 7    1  0.6508013E-006  0.2224604E+03  0.7818608E-02  0.1239359E+00
          2   -1    0    0  502    0  0.00000000000E+00  0.00000000000E+00  0.34698251495E+03  0.34698251495E+03  0.00000000000E+00 0. -1.
          1   -1    0    0  501    0 -0.00000000000E+00 -0.00000000000E+00 -0.32387378297E+04  0.32387378297E+04  0.00000000000E+00 0. -1.
         25    2    1    2    0    0 -0.64689796413E+02 -0.21197814165E+03 -0.13773359377E+03  0.28933474645E+03  0.12499820142E+03 0.  0.
          2    1    1    2  501    0 -0.16267412521E+01  0.22302206727E+03 -0.30168562811E+04  0.30250889755E+04  0.00000000000E+00 0. -1.
          1    1    1    2  502    0  0.66316537665E+02 -0.11043925624E+02  0.26283456016E+03  0.27129662267E+03  0.00000000000E+00 0. -1.
         22    1    3    3    0    0  0.46460331228E+01 -0.95996863239E+02  0.38479661722E+00  0.96109996587E+02  0.00000000000E+00 0. -1.
         22    1    3    3    0    0 -0.69335829535E+02 -0.11598127841E+03 -0.13811839039E+03  0.19322474987E+03  0.00000000000E+00 0. -1.
</event>
<event>
 7    1  0.6508013E-006  0.2058148E+03  0.7818608E-02  0.1270594E+00
          2   -1    0    0  502    0  0.00000000000E+00  0.00000000000E+00  0.67314901120E+03  0.67314901120E+03  0.00000000000E+00 0. -1.
          1   -1    0    0  501    0 -0.00000000000E+00 -0.00000000000E+00 -0.10106543471E+04  0.10106543471E+04  0.00000000000E+00 0. -1.
         25    2    1    2    0    0  0.51441976769E+02  0.22925544123E+03 -0.12466404430E+03  0.29388823103E+03  0.12499933636E+03 0.  0.
          2    1    1    2  501    0 -0.46775594602E+02 -0.25599880597E+02 -0.78281667428E+03  0.78463064921E+03  0.00000000000E+00 0. -1.
          1    1    1    2  502    0 -0.46663821669E+01 -0.20365556063E+03  0.56997538269E+03  0.60528447805E+03  0.00000000000E+00 0. -1.
         22    1    3    3    0    0  0.89929973041E+02  0.12308278369E+03 -0.82588605535E+02  0.17337142053E+03  0.00000000000E+00 0. -1.
         22    1    3    3    0    0 -0.38487996272E+02  0.10617265754E+03 -0.42075438761E+02  0.12051681050E+03  0.00000000000E+00 0. -1.
</event>
<event>
 7    1  0.6508013E-006  0.9389572E+02  0.7818608E-02  0.1368809E+00
          2   -1    0    0  502    0  0.00000000000E+00  0.00000000000E+00  0.10336794554E+04  0.10336794554E+04  0.00000000000E+00 0. -1.
          1   -1    0    0  501    0 -0.00000000000E+00 -0.00000000000E+00 -0.59053880063E+03  0.59053880063E+03  0.00000000000E+00 0. -1.
         25    2    1    2    0    0 -0.33029853872E+02 -0.12309365660E+03  0.34498275730E+03  0.38843451964E+03  0.12500101466E+03 0.  0.
          2    1    1    2  501    0  0.51450877795E+02  0.78202321946E+02 -0.56406785370E+03  0.57178259816E+03  0.00000000000E+00 0. -1.
          1    1    1    2  502    0 -0.18421023923E+02  0.44891334659E+02  0.66222575114E+03  0.66400113819E+03  0.00000000000E+00 0. -1.
         22    1    3    3    0    0  0.46700033884E+02 -0.61066339226E+02  0.16532831550E+03  0.18232784444E+03  0.00000000000E+00 0. -1.
         22    1    3    3    0    0 -0.79729887756E+02 -0.62027317378E+02  0.17965444181E+03  0.20610667520E+03  0.00000000000E+00 0. -1.
</event>
<event>
 7    1  0.6508013E-006  0.1399003E+03  0.7818608E-02  0.1311647E+00
          2   -1    0    0  502    0  0.00000000000E+00  0.00000000000E+00  0.31092687018E+04  0.31092687018E+04  0.00000000000E+00 0. -1.
          1   -1    0    0  501    0 -0.00000000000E+00 -0.00000000000E+00 -0.14445549082E+04  0.14445549082E+04  0.00000000000E+00 0. -1.
         25    2    1    2    0    0  0.85494853589E+02 -0.34376990325E+02  0.90263211677E+02  0.17962007720E+03  0.12499910918E+03 0.  0.
          2    1    1    2  501    0 -0.11899864849E+03  0.76008516800E+02 -0.13960748817E+04  0.14031974374E+04  0.00000000000E+00 0. -1.
          1    1    1    2  502    0  0.33503794898E+02 -0.41631526475E+02  0.29705254637E+04  0.29710060954E+04  0.00000000000E+00 0. -1.
         22    1    3    3    0    0  0.64038392602E+02 -0.79952300740E+02  0.44950873568E+02  0.11186539749E+03  0.00000000000E+00 0. -1.
         22    1    3    3    0    0  0.21456460987E+02  0.45575310415E+02  0.45312338108E+02  0.67754679708E+02  0.00000000000E+00 0. -1.
</event>
<event>
 7    1  0.6508013E-006  0.1488990E+03  0.7818608E-02  0.1242063E+00
          2   -1    0    0  502    0  0.00000000000E+00  0.00000000000E+00  0.15837960404E+04  0.15837960404E+04  0.00000000000E+00 0. -1.
          1   -1    0    0  501    0 -0.00000000000E+00 -0.00000000000E+00 -0.95265555181E+02  0.95265555181E+02  0.00000000000E+00 0. -1.
         25    2    1    2    0    0  0.11329920537E+03 -0.24990447204E+02  0.86380105096E+03  0.88047586861E+03  0.12499706868E+03 0.  0.
          2    1    1    2  501    0 -0.94719849089E+02  0.12093468101E+03 -0.12298894640E+02  0.15410486589E+03  0.00000000000E+00 0. -1.
          1    1    1    2  502    0 -0.18579356284E+02 -0.95944233802E+02  0.63702832889E+03  0.64448086107E+03  0.00000000000E+00 0. -1.
         22    1    3    3    0    0  0.56314693621E+01  0.34412386026E+02  0.36819613788E+03  0.36984364495E+03  0.00000000000E+00 0. -1.
         22    1    3    3    0    0  0.10766773601E+03 -0.59402833230E+02  0.49560491308E+03  0.51063222367E+03  0.00000000000E+00 0. -1.
</event>
<event>
 7    1  0.6508013E-006  0.1220448E+03  0.7818608E-02  0.1269654E+00
          2   -1    0    0  502    0  0.00000000000E+00  0.00000000000E+00  0.14001416439E+04  0.14001416439E+04  0.00000000000E+00 0. -1.
          1   -1    0    0  501    0 -0.00000000000E+00 -0.00000000000E+00 -0.11863701631E+03  0.11863701631E+03  0.00000000000E+00 0. -1.
         25    2    1    2    0    0 -0.76984656424E+02  0.61278717677E+02  0.25795782367E+03  0.30306504500E+03  0.12499785656E+03 0.  0.
          2    1    1    2  501    0 -0.52782658502E+02 -0.73812992703E+02 -0.69886256072E+02  0.11453582722E+03  0.00000000000E+00 0. -1.
          1    1    1    2  502    0  0.12976731493E+03  0.12534275026E+02  0.10934330600E+04  0.11011777880E+04  0.00000000000E+00 0. -1.
         22    1    3    3    0    0 -0.88592760720E+02  0.45795431708E+02  0.91054985315E+02  0.13504410083E+03  0.00000000000E+00 0.  1.
         22    1    3    3    0    0  0.11608104296E+02  0.15483285969E+02  0.16690283836E+03  0.16802094418E+03  0.00000000000E+00 0.  1.
</event>
<event>
 7    1  0.6508013E-006  0.2104291E+03  0.7818608E-02  0.1269568E+00
          2   -1    0    0  502    0  0.00000000000E+00  0.00000000000E+00  0.26156415625E+03  0.26156415625E+03  0.00000000000E+00 0. -1.
          1   -1    0    0  501    0 -0.00000000000E+00 -0.00000000000E+00 -0.21215041399E+04  0.21215041399E+04  0.00000000000E+00 0. -1.
         25    2    1    2    0    0 -0.11017273615E+03 -0.14340589006E+03 -0.13742969925E+03  0.25926040570E+03  0.12500301849E+03 0.  0.
          2    1    1    2  501    0  0.92012728631E+02  0.19284937793E+03 -0.19136504742E+04  0.19255428747E+04  0.00000000000E+00 0. -1.
          1    1    1    2  502    0  0.18160007519E+02 -0.49443487867E+02  0.19114018975E+03  0.19826501583E+03  0.00000000000E+00 0. -1.
         22    1    3    3    0    0 -0.55146347228E+01 -0.93419189511E+02 -0.10100222205E+03  0.13769170281E+03  0.00000000000E+00 0.  1.
         22    1    3    3    0    0 -0.10465810143E+03 -0.49986700551E+02 -0.36427477204E+02  0.12156870289E+03  0.00000000000E+00 0.  1.
</event>
<event>
 7    1  0.6508013E-006  0.3811910E+02  0.7818608E-02  0.1537672E+00
          2   -1    0    0  502    0  0.00000000000E+00  0.00000000000E+00  0.84057035917E+03  0.84057035917E+03  0.00000000000E+00 0. -1.
          1   -1    0    0  501    0 -0.00000000000E+00 -0.00000000000E+00 -0.24547479990E+04  0.24547479990E+04  0.00000000000E+00 0. -1.
         25    2    1    2    0    0 -0.40331725128E+01  0.26887205388E+02  0.70547370039E+02  0.14609452142E+03  0.12500995751E+03 0.  0.
          2    1    1    2  501    0  0.35750846412E+02 -0.13326201226E+02 -0.24164174907E+04  0.24167186845E+04  0.00000000000E+00 0. -1.
          1    1    1    2  502    0 -0.31717673899E+02 -0.13561004162E+02  0.73169248079E+03  0.73250515228E+03  0.00000000000E+00 0. -1.
         22    1    3    3    0    0 -0.48226742556E+02 -0.81388310764E+00 -0.10832247704E+02  0.49434994625E+02  0.00000000000E+00 0.  1.
         22    1    3    3    0    0  0.44193570043E+02  0.27701088496E+02  0.81379617744E+02  0.96659526799E+02  0.00000000000E+00 0.  1.
</event>
<event>
 7    1  0.6508013E-006  0.5909643E+02  0.7818608E-02  0.1404334E+00
          2   -1    0    0  502    0  0.00000000000E+00  0.00000000000E+00  0.36434585452E+03  0.36434585452E+03  0.00000000000E+00 0. -1.
          1   -1    0    0  501    0 -0.00000000000E+00 -0.00000000000E+00 -0.12173128015E+04  0.12173128015E+04  0.00000000000E+00 0. -1.
         25    2    1    2    0    0 -0.62500783115E+02 -0.13466880292E+02 -0.27974913267E+02  0.14316261227E+03  0.12500093209E+03 0.  0.
          2    1    1    2  501    0  0.22281315618E+02  0.55069753829E+02 -0.11282266826E+04  0.11297896185E+04  0.00000000000E+00 0. -1.
          1    1    1    2  502    0  0.40219467497E+02 -0.41602873537E+02  0.30323464892E+03  0.30870642519E+03  0.00000000000E+00 0. -1.
         22    1    3    3    0    0 -0.11739233709E+02 -0.59156217729E+02  0.15416104469E+02  0.62248887388E+02  0.00000000000E+00 0.  1.
         22    1    3    3    0    0 -0.50761549405E+02  0.45689337436E+02 -0.43391017736E+02  0.80913724878E+02  0.00000000000E+00 0.  1.
</event>
<event>
 7    1  0.6508013E-006  0.4337154E+02  0.7818608E-02  0.1566877E+00
          2   -1    0    0  502    0  0.00000000000E+00  0.00000000000E+00  0.21945177036E+04  0.21945177036E+04  0.00000000000E+00 0. -1.
          1   -1    0    0  501    0 -0.00000000000E+00 -0.00000000000E+00 -0.69786222272E+01  0.69786222272E+01  0.00000000000E+00 0. -1.
         25    2    1    2    0    0 -0.15704389635E+02  0.58404068544E+02  0.84058358329E+03  0.85197675969E+03  0.12500390180E+03 0.  0.
          2    1    1    2  501    0 -0.86171456901E+01 -0.23623410616E+02  0.17516343286E+03  0.17695917308E+03  0.00000000000E+00 0. -1.
          1    1    1    2  502    0  0.24321535325E+02 -0.34780657928E+02  0.11717920652E+04  0.11725603931E+04  0.00000000000E+00 0. -1.
         22    1    3    3    0    0 -0.68881007663E+02  0.40753998861E+02  0.40761810553E+03  0.41540101299E+03  0.00000000000E+00 0.  1.
         22    1    3    3    0    0  0.53176618028E+02  0.17650069683E+02  0.43296547776E+03  0.43657574669E+03  0.00000000000E+00 0.  1.
</event>
<event>
 7    1  0.6508013E-006  0.2046558E+03  0.7818608E-02  0.1314055E+00
          2   -1    0    0  502    0  0.00000000000E+00  0.00000000000E+00  0.14984992765E+04  0.14984992765E+04  0.00000000000E+00 0. -1.
          1   -1    0    0  501    0 -0.00000000000E+00 -0.00000000000E+00 -0.21506548823E+04  0.21506548823E+04  0.00000000000E+00 0. -1.
         25    2    1    2    0    0  0.98683761876E+02 -0.13854695350E+03  0.32205643738E+03  0.38505651775E+03  0.12495771213E+03 0.  0.
          2    1    1    2  501    0 -0.12522636723E+03  0.16248674074E+03 -0.21139093335E+04  0.21238399785E+04  0.00000000000E+00 0. -1.
          1    1    1    2  502    0  0.26542605353E+02 -0.23939787237E+02  0.11396972903E+04  0.11402576625E+04  0.00000000000E+00 0. -1.
         22    1    3    3    0    0  0.91675906871E+02 -0.39044983476E+02  0.97816771207E+02  0.13963202843E+03  0.00000000000E+00 0. -1.
         22    1    3    3    0    0  0.70078550053E+01 -0.99501970027E+02  0.22423966618E+03  0.24542448932E+03  0.00000000000E+00 0. -1.
</event>
<event>
 7    1  0.6508013E-006  0.3189886E+02  0.7818608E-02  0.1608971E+00
          2   -1    0    0  502    0  0.00000000000E+00  0.00000000000E+00  0.39617058602E+03  0.39617058602E+03  0.00000000000E+00 0. -1.
          1   -1    0    0  501    0 -0.00000000000E+00 -0.00000000000E+00 -0.47380335718E+03  0.47380335718E+03  0.00000000000E+00 0. -1.
         25    2    1    2    0    0 -0.42840046163E+02  0.13677558115E+02 -0.30030296554E+02  0.13619833777E+03  0.12500329335E+03 0.  0.
          2    1    1    2  501    0  0.23671519948E+02  0.11764995143E+02 -0.38950066238E+03  0.39039662135E+03  0.00000000000E+00 0. -1.
          1    1    1    2  502    0  0.19168526215E+02 -0.25442553258E+02  0.34189818777E+03  0.34337898409E+03  0.00000000000E+00 0. -1.
         22    1    3    3    0    0  0.43471022724E+02  0.14981018231E+02 -0.46004310116E+01  0.46209573569E+02  0.00000000000E+00 0. -1.
         22    1    3    3    0    0 -0.86311068887E+02 -0.13034601167E+01 -0.25429865543E+02  0.89988764200E+02  0.00000000000E+00 0. -1.
</event>
<event>
 7    1  0.6508013E-006  0.7159486E+02  0.7818608E-02  0.1434808E+00
          2   -1    0    0  502    0  0.00000000000E+00  0.00000000000E+00  0.12459711159E+04  0.12459711159E+04  0.00000000000E+00 0. -1.
          1   -1    0    0  501    0 -0.00000000000E+00 -0.00000000000E+00 -0.13054608751E+03  0.13054608751E+03  0.00000000000E+00 0. -1.
         25    2    1    2    0    0 -0.30538935207E+02 -0.77809937904E+02  0.19871382737E+03  0.24920364591E+03  0.12501303510E+03 0.  0.
          2    1    1    2  501    0  0.53222081807E+02  0.47599555667E+02 -0.92803008594E+02  0.11709272435E+03  0.00000000000E+00 0. -1.
          1    1    1    2  502    0 -0.22683146600E+02  0.30210382237E+02  0.10095142096E+04  0.10102208331E+04  0.00000000000E+00 0. -1.
         22    1    3    3    0    0 -0.62417150527E+01  0.19760984502E+02  0.11926797799E+03  0.12105497135E+03  0.00000000000E+00 0. -1.
         22    1    3    3    0    0 -0.24297220155E+02 -0.97570922406E+02  0.79445849387E+02  0.12814867456E+03  0.00000000000E+00 0. -1.
</event>
<event>
 7    1  0.6508013E-006  0.1025478E+03  0.7818608E-02  0.1301865E+00
          2   -1    0    0  502    0  0.00000000000E+00  0.00000000000E+00  0.13908023169E+04  0.13908023169E+04  0.00000000000E+00 0. -1.
          1   -1    0    0  501    0 -0.00000000000E+00 -0.00000000000E+00 -0.18783420460E+03  0.18783420460E+03  0.00000000000E+00 0. -1.
         25    2    1    2    0    0 -0.59915027138E+02 -0.10143685337E+03  0.93196201364E+02  0.19542279465E+03  0.12500116409E+03 0.  0.
          2    1    1    2  501    0  0.79705930808E+02  0.24654091918E+00 -0.12276557678E+03  0.14637104574E+03  0.00000000000E+00 0. -1.
          1    1    1    2  502    0 -0.19790903669E+02  0.10119031245E+03  0.12325374877E+04  0.12368426811E+04  0.00000000000E+00 0. -1.
         22    1    3    3    0    0  0.12900484948E+02 -0.65187454101E+02  0.92730047847E+02  0.11408193747E+03  0.00000000000E+00 0.  1.
         22    1    3    3    0    0 -0.72815512086E+02 -0.36249399266E+02  0.46615351647E+00  0.81340857179E+02  0.00000000000E+00 0.  1.
</event>
<event>
 7    1  0.8543571E-006  0.3774952E+02  0.7818608E-02  0.1534952E+00
          2   -1    0    0  502    0  0.00000000000E+00  0.00000000000E+00  0.19933455218E+04  0.19933455218E+04  0.00000000000E+00 0. -1.
          1   -1    0    0  501    0 -0.00000000000E+00 -0.00000000000E+00 -0.94635193785E+03  0.94635193785E+03  0.00000000000E+00 0. -1.
         25    2    1    2    0    0  0.50507602017E+02 -0.29728492987E+02 -0.16453992605E+03  0.21478683126E+03  0.12500077785E+03 0.  0.
          2    1    1    2  501    0 -0.37419687173E+02 -0.32258706072E+01 -0.75606266834E+03  0.75699497864E+03  0.00000000000E+00 0. -1.
          1    1    1    2  502    0 -0.13087914844E+02  0.32954363594E+02  0.19675961783E+04  0.19679156497E+04  0.00000000000E+00 0. -1.
         22    1    3    3    0    0 -0.32510515341E+02 -0.37523454837E+02 -0.90743111508E+02  0.10343720586E+03  0.00000000000E+00 0.  1.
         22    1    3    3    0    0  0.83018117358E+02  0.77949618500E+01 -0.73796814537E+02  0.11134962540E+03  0.00000000000E+00 0.  1.
</event>
<event>
 7    1  0.6508013E-006  0.5255839E+02  0.7818608E-02  0.1519156E+00
          2   -1    0    0  502    0  0.00000000000E+00  0.00000000000E+00  0.92628512418E+03  0.92628512418E+03  0.00000000000E+00 0. -1.
          1   -1    0    0  501    0 -0.00000000000E+00 -0.00000000000E+00 -0.54371153111E+03  0.54371153111E+03  0.00000000000E+00 0. -1.
         25    2    1    2    0    0 -0.71271349971E+02 -0.29403536854E+02  0.61747193113E+02  0.15933762790E+03  0.12502635923E+03 0.  0.
          2    1    1    2  501    0  0.42996940387E+02  0.29728169964E+02 -0.49328989224E+03  0.49605183072E+03  0.00000000000E+00 0. -1.
          1    1    1    2  502    0  0.28274409584E+02 -0.32463311034E+00  0.81411629221E+03  0.81460719667E+03  0.00000000000E+00 0. -1.
         22    1    3    3    0    0 -0.42017847596E+02  0.39892069707E+02 -0.58183915613E+01  0.58229978726E+02  0.00000000000E+00 0.  1.
         22    1    3    3    0    0 -0.29253502375E+02 -0.69295606561E+02  0.67565584674E+02  0.10110764918E+03  0.00000000000E+00 0.  1.
</event>
<event>
 7    1  0.6508013E-006  0.8807822E+02  0.7818608E-02  0.1402530E+00
          2   -1    0    0  502    0  0.00000000000E+00  0.00000000000E+00  0.46375552806E+02  0.46375552806E+02  0.00000000000E+00 0. -1.
          1   -1    0    0  501    0 -0.00000000000E+00 -0.00000000000E+00 -0.14290593156E+04  0.14290593156E+04  0.00000000000E+00 0. -1.
         25    2    1    2    0    0  0.46051183246E+02 -0.25948047923E+02 -0.48286608673E+03  0.50157684297E+03  0.12500263607E+03 0.  0.
          2    1    1    2  501    0  0.34271170435E+02 -0.19398766010E+02 -0.87824831282E+03  0.87913077765E+03  0.00000000000E+00 0. -1.
          1    1    1    2  502    0 -0.80322353682E+02  0.45346813933E+02 -0.21569363203E+02  0.94727247737E+02  0.00000000000E+00 0. -1.
         22    1    3    3    0    0  0.53620698178E+02 -0.95997953929E+01 -0.71845321180E+02  0.90161441427E+02  0.00000000000E+00 0.  1.
         22    1    3    3    0    0 -0.75695149319E+01 -0.16348252530E+02 -0.41102076555E+03  0.41141540155E+03  0.00000000000E+00 0.  1.
</event>
<event>
 7    1  0.6508013E-006  0.4720064E+02  0.7818608E-02  0.1522316E+00
          2   -1    0    0  502    0  0.00000000000E+00  0.00000000000E+00  0.53015268642E+02  0.53015268642E+02  0.00000000000E+00 0. -1.
          1   -1    0    0  501    0 -0.00000000000E+00 -0.00000000000E+00 -0.43917573371E+03  0.43917573371E+03  0.00000000000E+00 0. -1.
         25    2    1    2    0    0  0.31658640431E+02 -0.76489288033E+01 -0.10131962782E+03  0.16419748173E+03  0.12503747598E+03 0.  0.
          2    1    1    2  501    0 -0.29722786383E+02  0.38416403581E+02 -0.29227332972E+03  0.29628189847E+03  0.00000000000E+00 0. -1.
          1    1    1    2  502    0 -0.19358540471E+01 -0.30767474778E+02  0.74324924749E+01  0.31711622151E+02  0.00000000000E+00 0. -1.
         22    1    3    3    0    0 -0.41107759415E+02  0.17374587313E+02 -0.65650923005E+02  0.79383675021E+02  0.00000000000E+00 0. -1.
         22    1    3    3    0    0  0.72766399846E+02 -0.25023516117E+02 -0.35668704818E+02  0.84813806711E+02  0.00000000000E+00 0. -1.
</event>
<event>
 7    1  0.6508013E-006  0.2216633E+03  0.7818608E-02  0.1292996E+00
          2   -1    0    0  502    0  0.00000000000E+00  0.00000000000E+00  0.66850306623E+03  0.66850306623E+03  0.00000000000E+00 0. -1.
          1   -1    0    0  501    0 -0.00000000000E+00 -0.00000000000E+00 -0.13741597500E+03  0.13741597500E+03  0.00000000000E+00 0. -1.
         25    2    1    2    0    0  0.37174680895E+02  0.19540049399E+03  0.19639755487E+03  0.30620707956E+03  0.12500986385E+03 0.  0.
          2    1    1    2  501    0 -0.55491962298E+02 -0.23099262863E+03  0.93627244746E+02  0.25534880716E+03  0.00000000000E+00 0. -1.
          1    1    1    2  502    0  0.18317281403E+02  0.35592134636E+02  0.24106229161E+03  0.24436315451E+03  0.00000000000E+00 0. -1.
         22    1    3    3    0    0  0.50655312612E+02  0.16971051426E+03  0.20953557365E+03  0.27435884526E+03  0.00000000000E+00 0. -1.
         22    1    3    3    0    0 -0.13480631718E+02  0.25689979733E+02 -0.13138018786E+02  0.31848234297E+02  0.00000000000E+00 0. -1.
</event>
<event>
 7    1  0.6508013E-006  0.1021359E+03  0.7818608E-02  0.1319612E+00
          2   -1    0    0  502    0  0.00000000000E+00  0.00000000000E+00  0.59776912301E+03  0.59776912301E+03  0.00000000000E+00 0. -1.
          1   -1    0    0  501    0 -0.00000000000E+00 -0.00000000000E+00 -0.20654336762E+03  0.20654336762E+03  0.00000000000E+00 0. -1.
         25    2    1    2    0    0 -0.10569858623E+03  0.76825444853E+02  0.11756780474E+03  0.21568660626E+03  0.12499673315E+03 0.  0.
          2    1    1    2  501    0  0.54627613527E+01 -0.67917047179E+02 -0.14384508234E+03  0.15916650016E+03  0.00000000000E+00 0. -1.
          1    1    1    2  502    0  0.10023582488E+03 -0.89083976742E+01  0.41750303299E+03  0.42945938422E+03  0.00000000000E+00 0. -1.
         22    1    3    3    0    0 -0.47042771346E+02 -0.18596730262E+02  0.85216855814E+02  0.99099814466E+02  0.00000000000E+00 0.  1.
         22    1    3    3    0    0 -0.58655814882E+02  0.95422175114E+02  0.32350948930E+02  0.11658679179E+03  0.00000000000E+00 0.  1.
</event>
<event>
 7    1  0.6508013E-006  0.8882192E+02  0.7818608E-02  0.1366576E+00
          2   -1    0    0  502    0  0.00000000000E+00  0.00000000000E+00  0.20420865585E+04  0.20420865585E+04  0.00000000000E+00 0. -1.
          1   -1    0    0  501    0 -0.00000000000E+00 -0.00000000000E+00 -0.25964914991E+03  0.25964914991E+03  0.00000000000E+00 0. -1.
         25    2    1    2    0    0 -0.10807256884E+03 -0.44743048637E+02 -0.17172793130E+03  0.24248406673E+03  0.12500567863E+03 0.  0.
          2    1    1    2  501    0  0.19413455812E+02  0.48515809748E+02 -0.38314223831E+02  0.64796958338E+02  0.00000000000E+00 0. -1.
          1    1    1    2  502    0  0.88659113030E+02 -0.37727611113E+01  0.19924795637E+04  0.19944546834E+04  0.00000000000E+00 0. -1.
         22    1    3    3    0    0 -0.48102703116E+02 -0.94551071907E+00  0.73027152741E+01  0.48663062871E+02  0.00000000000E+00 0.  1.
         22    1    3    3    0    0 -0.59969865725E+02 -0.43797537918E+02 -0.17903064657E+03  0.19382100386E+03  0.00000000000E+00 0.  1.
</event>
<event>
 7    1  0.6508013E-006  0.1385830E+03  0.7818608E-02  0.1319900E+00
          2   -1    0    0  502    0  0.00000000000E+00  0.00000000000E+00  0.10223419364E+04  0.10223419364E+04  0.00000000000E+00 0. -1.
          1   -1    0    0  501    0 -0.00000000000E+00 -0.00000000000E+00 -0.18244029787E+03  0.18244029787E+03  0.00000000000E+00 0. -1.
         25    2    1    2    0    0 -0.61713994525E+02 -0.84172884005E+02  0.12392163971E+03  0.20464007236E+03  0.12500917930E+03 0.  0.
          2    1    1    2  501    0  0.59964520704E+02  0.13422993283E+03 -0.10308009110E+03  0.17955200859E+03  0.00000000000E+00 0. -1.
          1    1    1    2  502    0  0.17494738213E+01 -0.50057048821E+02  0.81906008990E+03  0.82059015328E+03  0.00000000000E+00 0. -1.
         22    1    3    3    0    0 -0.54140812584E+02 -0.46368470912E+02 -0.36431768905E+01  0.71376014317E+02  0.00000000000E+00 0. -1.
         22    1    3    3    0    0 -0.75731819419E+01 -0.37804413092E+02  0.12756481660E+03  0.13326405805E+03  0.00000000000E+00 0. -1.
</event>
<event>
 7    1  0.6508013E-006  0.1028695E+03  0.7818608E-02  0.1377948E+00
          2   -1    0    0  502    0  0.00000000000E+00  0.00000000000E+00  0.54990304816E+03  0.54990304816E+03  0.00000000000E+00 0. -1.
          1   -1    0    0  501    0 -0.00000000000E+00 -0.00000000000E+00 -0.68124935828E+03  0.68124935828E+03  0.00000000000E+00 0. -1.
         25    2    1    2    0    0 -0.84889332987E+02  0.92510125756E+02  0.18620574153E+03  0.25702258001E+03  0.12499482481E+03 0.  0.
          2    1    1    2  501    0  0.40891402208E+02 -0.39235841799E+01 -0.63771476083E+03  0.63903647585E+03  0.00000000000E+00 0. -1.
          1    1    1    2  502    0  0.43997930779E+02 -0.88586541576E+02  0.32016270917E+03  0.33509335059E+03  0.00000000000E+00 0. -1.
         22    1    3    3    0    0 -0.58544143721E+02 -0.19633118495E+02  0.71181465509E+02  0.94232038808E+02  0.00000000000E+00 0. -1.
         22    1    3    3    0    0 -0.26345189267E+02  0.11214324425E+03  0.11502427603E+03  0.16279054120E+03  0.00000000000E+00 0. -1.
</event>
<event>
 7    1  0.6508013E-006  0.8560505E+02  0.7818608E-02  0.1423858E+00
          2   -1    0    0  502    0  0.00000000000E+00  0.00000000000E+00  0.27970207988E+03  0.27970207988E+03  0.00000000000E+00 0. -1.
          1   -1    0    0  501    0 -0.00000000000E+00 -0.00000000000E+00 -0.17408265889E+03  0.17408265889E+03  0.00000000000E+00 0. -1.
         25    2    1    2    0    0 -0.50606914480E+02 -0.75339947922E+02  0.94736600101E+02  0.18120946396E+03  0.12499871553E+03 0.  0.
          2    1    1    2  501    0  0.71124378668E+02  0.47812452127E+02 -0.11424842994E+03  0.14281950694E+03  0.00000000000E+00 0. -1.
          1    1    1    2  502    0 -0.20517464188E+02  0.27527495795E+02  0.12513125083E+03  0.12975576787E+03  0.00000000000E+00 0. -1.
         22    1    3    3    0    0 -0.74475723570E+02  0.83879670486E+00  0.41586347065E+02  0.85303934513E+02  0.00000000000E+00 0.  1.
         22    1    3    3    0    0  0.23868809089E+02 -0.76178744627E+02  0.53150253036E+02  0.95905529445E+02  0.00000000000E+00 0.  1.
</event>
<event>
 7    1  0.6508013E-006  0.5685083E+02  0.7818608E-02  0.1501862E+00
          2   -1    0    0  502    0  0.00000000000E+00  0.00000000000E+00  0.36051420960E+03  0.36051420960E+03  0.00000000000E+00 0. -1.
          1   -1    0    0  501    0 -0.00000000000E+00 -0.00000000000E+00 -0.44473490107E+03  0.44473490107E+03  0.00000000000E+00 0. -1.
         25    2    1    2    0    0 -0.21312318877E+02 -0.34317702775E+02  0.19504067602E+03  0.23515403935E+03  0.12499854903E+03 0.  0.
          2    1    1    2  501    0  0.49923721381E+02  0.27596932921E+02 -0.42125095482E+03  0.42509567817E+03  0.00000000000E+00 0. -1.
          1    1    1    2  502    0 -0.28611402504E+02  0.67207698534E+01  0.14198958734E+03  0.14499939315E+03  0.00000000000E+00 0. -1.
         22    1    3    3    0    0 -0.50840446429E+02 -0.19266879274E+02  0.19455379368E+03  0.20200777773E+03  0.00000000000E+00 0.  1.
         22    1    3    3    0    0  0.29528127552E+02 -0.15050823501E+02  0.48688234135E+00  0.33146261617E+02  0.00000000000E+00 0.  1.
</event>
<event>
 7    1  0.6508013E-006  0.9515224E+02  0.7818608E-02  0.1403459E+00
          2   -1    0    0  502    0  0.00000000000E+00  0.00000000000E+00  0.21007587455E+04  0.21007587455E+04  0.00000000000E+00 0. -1.
          1   -1    0    0  501    0 -0.00000000000E+00 -0.00000000000E+00 -0.14653269694E+03  0.14653269694E+03  0.00000000000E+00 0. -1.
         25    2    1    2    0    0 -0.29754212232E+02  0.12111946790E+03  0.23010755040E+03  0.29005249698E+03  0.12500291038E+03 0.  0.
          2    1    1    2  501    0  0.71396102731E+01 -0.92869137410E+02 -0.97744163990E+02  0.13501693343E+03  0.00000000000E+00 0. -1.
          1    1    1    2  502    0  0.22614601958E+02 -0.28250330489E+02  0.18218626621E+04  0.18222220120E+04  0.00000000000E+00 0. -1.
         22    1    3    3    0    0 -0.16555446362E+02  0.99166252335E+02  0.24181930526E+03  0.26188662586E+03  0.00000000000E+00 0. -1.
         22    1    3    3    0    0 -0.13198765870E+02  0.21953215564E+02 -0.11711754863E+02  0.28165871122E+02  0.00000000000E+00 0. -1.
</event>
<event>
 7    1  0.6508013E-006  0.7972808E+02  0.7818608E-02  0.1385674E+00
          2   -1    0    0  502    0  0.00000000000E+00  0.00000000000E+00  0.54366735791E+02  0.54366735791E+02  0.00000000000E+00 0. -1.
          1   -1    0    0  501    0 -0.00000000000E+00 -0.00000000000E+00 -0.92701802107E+03  0.92701802107E+03  0.00000000000E+00 0. -1.
         25    2    1    2    0    0 -0.32659464197E+02  0.78757106708E+02 -0.14272282779E+03  0.20800127938E+03  0.12500161676E+03 0.  0.
          2    1    1    2  501    0 -0.36144194813E+02 -0.34221512857E+02 -0.67001217186E+03  0.67185848599E+03  0.00000000000E+00 0. -1.
          1    1    1    2  502    0  0.68803659009E+02 -0.44535593851E+02 -0.59916285631E+02  0.10152499149E+03  0.00000000000E+00 0. -1.
         22    1    3    3    0    0  0.38060829928E+02 -0.54437869477E+00 -0.12793920698E+02  0.40157284891E+02  0.00000000000E+00 0. -1.
         22    1    3    3    0    0 -0.70720294125E+02  0.79301485403E+02 -0.12992890709E+03  0.16784399449E+03  0.00000000000E+00 0. -1.
</event>
<event>
 7    1  0.6508013E-006  0.8250309E+02  0.7818608E-02  0.1421123E+00
          2   -1    0    0  502    0  0.00000000000E+00  0.00000000000E+00  0.86988782244E+03  0.86988782244E+03  0.00000000000E+00 0. -1.
          1   -1    0    0  501    0 -0.00000000000E+00 -0.00000000000E+00 -0.59689149399E+03  0.59689149399E+03  0.00000000000E+00 0. -1.
         25    2    1    2    0    0  0.18367587239E+01  0.73912557568E+02  0.26878725091E+03  0.30551092333E+03  0.12499559262E+03 0.  0.
          2    1    1    2  501    0 -0.38209513417E+02 -0.73308082567E+02 -0.57500292763E+03  0.58091514757E+03  0.00000000000E+00 0. -1.
          1    1    1    2  502    0  0.36372754693E+02 -0.60447500012E+00  0.57921200517E+03  0.58035324554E+03  0.00000000000E+00 0. -1.
         22    1    3    3    0    0  0.13638999349E+02 -0.26625734437E+02  0.17637687657E+02  0.34728087529E+02  0.00000000000E+00 0.  1.
         22    1    3    3    0    0 -0.11802240625E+02  0.10053829200E+03  0.25114956325E+03  0.27078283580E+03  0.00000000000E+00 0.  1.
</event>
<event>
 7    1  0.6508013E-006  0.5202270E+02  0.7818608E-02  0.1467747E+00
          2   -1    0    0  502    0  0.00000000000E+00  0.00000000000E+00  0.17039065491E+04  0.17039065491E+04  0.00000000000E+00 0. -1.
          1   -1    0    0  501    0 -0.00000000000E+00 -0.00000000000E+00 -0.17785600448E+03  0.17785600448E+03  0.00000000000E+00 0. -1.
         25    2    1    2    0    0  0.55099653523E+01  0.28016854929E+02  0.79405194312E+02  0.15082402639E+03  0.12500959233E+03 0.  0.
          2    1    1    2  501    0  0.32717446359E+02 -0.42290563171E+02 -0.13684631289E+03  0.14692119106E+03  0.00000000000E+00 0. -1.
          1    1    1    2  502    0 -0.38227411711E+02  0.14273708242E+02  0.15834916632E+04  0.15840173362E+04  0.00000000000E+00 0. -1.
         22    1    3    3    0    0  0.48643453448E+02 -0.21235802761E+02  0.75425496563E+01  0.53610026465E+02  0.00000000000E+00 0. -1.
         22    1    3    3    0    0 -0.43133488096E+02  0.49252657690E+02  0.71862644655E+02  0.97213999927E+02  0.00000000000E+00 0. -1.
</event>
<event>
 7    1  0.8076528E-006  0.1075845E+03  0.7818608E-02  0.1269457E+00
          2   -1    0    0  502    0  0.00000000000E+00  0.00000000000E+00  0.15348943779E+04  0.15348943779E+04  0.00000000000E+00 0. -1.
          1   -1    0    0  501    0 -0.00000000000E+00 -0.00000000000E+00 -0.12264557624E+04  0.12264557624E+04  0.00000000000E+00 0. -1.
         25    2    1    2    0    0 -0.37257790189E+02  0.52135082563E+02 -0.32578225888E+03  0.35477470379E+03  0.12499920194E+03 0.  0.
          2    1    1    2  501    0  0.12872623632E+03 -0.44826608396E+01 -0.87973313167E+03  0.88911243447E+03  0.00000000000E+00 0. -1.
          1    1    1    2  502    0 -0.91468446135E+02 -0.47652421724E+02  0.15139540060E+04  0.15174630020E+04  0.00000000000E+00 0. -1.
         22    1    3    3    0    0 -0.50934175726E+01  0.75718209133E+02 -0.10020640328E+03  0.12570009290E+03  0.00000000000E+00 0. -1.
         22    1    3    3    0    0 -0.32164372617E+02 -0.23583126570E+02 -0.22557585560E+03  0.22907461089E+03  0.00000000000E+00 0. -1.
</event>
<event>
 7    1  0.6508013E-006  0.9765237E+02  0.7818608E-02  0.1335531E+00
          2   -1    0    0  502    0  0.00000000000E+00  0.00000000000E+00  0.22077005443E+04  0.22077005443E+04  0.00000000000E+00 0. -1.
          1   -1    0    0  501    0 -0.00000000000E+00 -0.00000000000E+00 -0.16379012499E+03  0.16379012499E+03  0.00000000000E+00 0. -1.
         25    2    1    2    0    0  0.45599575337E+02  0.88020996034E+01  0.43591099857E+03  0.45586165022E+03  0.12503858301E+03 0.  0.
          2    1    1    2  501    0  0.60356744941E+02 -0.13825297197E+02 -0.14591518124E+03  0.15850967042E+03  0.00000000000E+00 0. -1.
          1    1    1    2  502    0 -0.10595632028E+03  0.50231975933E+01  0.17539146020E+04  0.17571193487E+04  0.00000000000E+00 0. -1.
         22    1    3    3    0    0  0.11310334985E+02 -0.49210756389E+02  0.87766242455E+02  0.10125480500E+03  0.00000000000E+00 0.  1.
         22    1    3    3    0    0  0.34289240352E+02  0.58012855993E+02  0.34814475611E+03  0.35460684521E+03  0.00000000000E+00 0.  1.
</event>
<event>
 7    1  0.6508013E-006  0.7737115E+02  0.7818608E-02  0.1478042E+00
          2   -1    0    0  502    0  0.00000000000E+00  0.00000000000E+00  0.12989725294E+04  0.12989725294E+04  0.00000000000E+00 0. -1.
          1   -1    0    0  501    0 -0.00000000000E+00 -0.00000000000E+00 -0.45642030146E+02  0.45642030146E+02  0.00000000000E+00 0. -1.
         25    2    1    2    0    0  0.41531488545E+02  0.68677794468E+02  0.63221330193E+03  0.64943043873E+03  0.12499892647E+03 0.  0.
          2    1    1    2  501    0 -0.24540272909E+02  0.69067838912E+01 -0.30059927661E+02  0.39414818396E+02  0.00000000000E+00 0. -1.
          1    1    1    2  502    0 -0.16991215636E+02 -0.75584578360E+02  0.65117712503E+03  0.65576930246E+03  0.00000000000E+00 0. -1.
         22    1    3    3    0    0  0.59980410691E+02  0.96292669473E+02  0.52813536310E+03  0.54018227444E+03  0.00000000000E+00 0. -1.
         22    1    3    3    0    0 -0.18448922146E+02 -0.27614875005E+02  0.10407793883E+03  0.10924816429E+03  0.00000000000E+00 0. -1.
</event>
<event>
 7    1  0.7596260E-006  0.4364757E+02  0.7818608E-02  0.1488072E+00
          2   -1    0    0  502    0  0.00000000000E+00  0.00000000000E+00  0.17058286074E+04  0.17058286074E+04  0.00000000000E+00 0. -1.
          1   -1    0    0  501    0 -0.00000000000E+00 -0.00000000000E+00 -0.59639376135E+03  0.59639376135E+03  0.00000000000E+00 0. -1.
         25    2    1    2    0    0  0.41435864636E+02 -0.83814395627E+01 -0.97611223698E+02  0.16412739405E+03  0.12499068397E+03 0.  0.
          2    1    1    2  501    0 -0.26541235402E+02 -0.32696278321E+02 -0.46428592007E+03  0.46619191259E+03  0.00000000000E+00 0. -1.
          1    1    1    2  502    0 -0.14894629233E+02  0.41077717884E+02  0.16713319898E+04  0.16719030621E+04  0.00000000000E+00 0. -1.
         22    1    3    3    0    0 -0.42810008751E+02  0.10766365893E+02 -0.44674466972E+02  0.62804613549E+02  0.00000000000E+00 0.  1.
         22    1    3    3    0    0  0.84245873387E+02 -0.19147805455E+02 -0.52936756726E+02  0.10132278050E+03  0.00000000000E+00 0.  1.
</event>
<event>
 7    1  0.6508013E-006  0.3042559E+03  0.7818608E-02  0.1115537E+00
          2   -1    0    0  502    0  0.00000000000E+00  0.00000000000E+00  0.11840637144E+04  0.11840637144E+04  0.00000000000E+00 0. -1.
          1   -1    0    0  501    0 -0.00000000000E+00 -0.00000000000E+00 -0.12516758766E+04  0.12516758766E+04  0.00000000000E+00 0. -1.
         25    2    1    2    0    0  0.12298575287E+03 -0.10758510549E+01  0.20144836929E+03  0.26708258980E+03  0.12500004568E+03 0.  0.
          2    1    1    2  501    0 -0.31744103764E+03  0.46571949752E+02 -0.11868190176E+04  0.12294214654E+04  0.00000000000E+00 0. -1.
          1    1    1    2  502    0  0.19445528477E+03 -0.45496098697E+02  0.91775848618E+03  0.93923553581E+03  0.00000000000E+00 0. -1.
         22    1    3    3    0    0  0.13698262547E+03  0.30831707387E+02  0.16508844631E+03  0.21672339275E+03  0.00000000000E+00 0.  1.
         22    1    3    3    0    0 -0.13996872597E+02 -0.31907558442E+02  0.36359922972E+02  0.50359197042E+02  0.00000000000E+00 0.  1.
</event>
<event>
 7    1  0.6508013E-006  0.6624722E+02  0.7818608E-02  0.1463587E+00
          2   -1    0    0  502    0  0.00000000000E+00  0.00000000000E+00  0.92510627229E+03  0.92510627229E+03  0.00000000000E+00 0. -1.
          1   -1    0    0  501    0 -0.00000000000E+00 -0.00000000000E+00 -0.15503473460E+03  0.15503473460E+03  0.00000000000E+00 0. -1.
         25    2    1    2    0    0  0.59832491447E+02  0.10564581357E+02  0.34924248331E+03  0.37588140167E+03  0.12499991424E+03 0.  0.
          2    1    1    2  501    0 -0.62674806802E+02  0.22331550648E+02 -0.13338737673E+03  0.14906046368E+03  0.00000000000E+00 0. -1.
          1    1    1    2  502    0  0.28423153541E+01 -0.32896132004E+02  0.55421643110E+03  0.55519914154E+03  0.00000000000E+00 0. -1.
         22    1    3    3    0    0  0.65351848910E+02  0.52751216399E+02  0.29623931471E+03  0.30791441436E+03  0.00000000000E+00 0.  1.
         22    1    3    3    0    0 -0.55193574625E+01 -0.42186635042E+02  0.53003168595E+02  0.67966987311E+02  0.00000000000E+00 0.  1.
</event>
<event>
 7    1  0.6508013E-006  0.9187949E+02  0.7818608E-02  0.1325020E+00
          2   -1    0    0  502    0  0.00000000000E+00  0.00000000000E+00  0.64849646474E+03  0.64849646474E+03  0.00000000000E+00 0. -1.
          1   -1    0    0  501    0 -0.00000000000E+00 -0.00000000000E+00 -0.18907768813E+03  0.18907768813E+03  0.00000000000E+00 0. -1.
         25    2    1    2    0    0  0.29573244838E+02 -0.90053628880E+02 -0.11133461732E+02  0.15726542005E+03  0.12499690191E+03 0.  0.
          2    1    1    2  501    0  0.42575143521E+02  0.87827637536E+02 -0.79288760168E+02  0.12574992744E+03  0.00000000000E+00 0. -1.
          1    1    1    2  502    0 -0.72148388359E+02  0.22259913443E+01  0.54984099851E+03  0.55455880538E+03  0.00000000000E+00 0. -1.
         22    1    3    3    0    0  0.44129575133E+02  0.55555074869E+00  0.33316145880E+02  0.55296415927E+02  0.00000000000E+00 0. -1.
         22    1    3    3    0    0 -0.14556330295E+02 -0.90609179629E+02 -0.44449607612E+02  0.10196900412E+03  0.00000000000E+00 0. -1.
</event>
<event>
 7    1  0.6508013E-006  0.1478172E+03  0.7818608E-02  0.1252664E+00
          2   -1    0    0  502    0  0.00000000000E+00  0.00000000000E+00  0.11513652507E+04  0.11513652507E+04  0.00000000000E+00 0. -1.
          1   -1    0    0  501    0 -0.00000000000E+00 -0.00000000000E+00 -0.93940603955E+03  0.93940603955E+03  0.00000000000E+00 0. -1.
         25    2    1    2    0    0  0.22122996554E+03 -0.23082585990E+02  0.68920258494E+02  0.26429318628E+03  0.12500153141E+03 0.  0.
          2    1    1    2  501    0 -0.85135266372E+02 -0.24205920941E+02 -0.83409574260E+03  0.83877866450E+03  0.00000000000E+00 0. -1.
          1    1    1    2  502    0 -0.13609469917E+03  0.47288506931E+02  0.97713469523E+03  0.98769943943E+03  0.00000000000E+00 0. -1.
         22    1    3    3    0    0  0.23696465695E+03 -0.16583671569E+02  0.59694240689E+02  0.24492992708E+03  0.00000000000E+00 0.  1.
         22    1    3    3    0    0 -0.15734691412E+02 -0.64989144205E+01  0.92260178055E+01  0.19363259204E+02  0.00000000000E+00 0.  1.
</event>
<event>
 7    1  0.6508013E-006  0.3713276E+02  0.7818608E-02  0.1551253E+00
          2   -1    0    0  502    0  0.00000000000E+00  0.00000000000E+00  0.62869910537E+03  0.62869910537E+03  0.00000000000E+00 0. -1.
          1   -1    0    0  501    0 -0.00000000000E+00 -0.00000000000E+00 -0.18586830309E+04  0.18586830309E+04  0.00000000000E+00 0. -1.
         25    2    1    2    0    0 -0.18195245633E+02  0.71986355669E+01  0.93378682636E+01  0.12686617871E+03  0.12499977679E+03 0.  0.
          2    1    1    2  501    0  0.28926355913E+02  0.23406915215E+02 -0.17992572692E+04  0.17996420029E+04  0.00000000000E+00 0. -1.
          1    1    1    2  502    0 -0.10731110280E+02 -0.30605550782E+02  0.55993547539E+03  0.56087395471E+03  0.00000000000E+00 0. -1.
         22    1    3    3    0    0  0.53598881203E+02  0.10640595373E+02  0.42262325440E+01  0.54808059422E+02  0.00000000000E+00 0.  1.
         22    1    3    3    0    0 -0.71794126836E+02 -0.34419598060E+01  0.51116357195E+01  0.72058119287E+02  0.00000000000E+00 0.  1.
</event>
<event>
 7    1  0.6508013E-006  0.9165889E+02  0.7818608E-02  0.1365575E+00
          2   -1    0    0  502    0  0.00000000000E+00  0.00000000000E+00  0.16913374793E+04  0.16913374793E+04  0.00000000000E+00 0. -1.
          1   -1    0    0  501    0 -0.00000000000E+00 -0.00000000000E+00 -0.74937769444E+02  0.74937769444E+02  0.00000000000E+00 0. -1.
         25    2    1    2    0    0 -0.55742827784E+02  0.97634243026E+02  0.11979161741E+03  0.20643336274E+03  0.12499997357E+03 0.  0.
          2    1    1    2  501    0  0.71593231458E+02 -0.49094455868E+02  0.29263345099E+02  0.91608950185E+02  0.00000000000E+00 0. -1.
          1    1    1    2  502    0 -0.15850403674E+02 -0.48539787158E+02  0.14673447474E+04  0.14682329358E+04  0.00000000000E+00 0. -1.
         22    1    3    3    0    0  0.53726021588E+01  0.10093658182E+02  0.96479006746E+02  0.97154235791E+02  0.00000000000E+00 0.  1.
         22    1    3    3    0    0 -0.61115429943E+02  0.87540584844E+02  0.23312610661E+02  0.10927912695E+03  0.00000000000E+00 0.  1.
</event>
<event>
 7    1  0.6820704E-006  0.9306173E+02  0.7818608E-02  0.1328854E+00
          2   -1    0    0  502    0  0.00000000000E+00  0.00000000000E+00  0.70996548291E+03  0.70996548291E+03  0.00000000000E+00 0. -1.
          1   -1    0    0  501    0 -0.00000000000E+00 -0.00000000000E+00 -0.31557976179E+04  0.31557976179E+04  0.00000000000E+00 0. -1.
         25    2    1    2    0    0 -0.59567120697E+02 -0.67912165093E+02 -0.85968538466E+03  0.87340864458E+03  0.12499358297E+03 0.  0.
          2    1    1    2  501    0 -0.30447567269E+01  0.96648198929E+02 -0.22865387806E+04  0.22885824740E+04  0.00000000000E+00 0. -1.
          1    1    1    2  502    0  0.62611877423E+02 -0.28736033836E+02  0.70039203033E+03  0.70377198224E+03  0.00000000000E+00 0. -1.
         22    1    3    3    0    0 -0.63786943775E+02 -0.23414243335E+02 -0.77203428305E+03  0.77501866764E+03  0.00000000000E+00 0.  1.
         22    1    3    3    0    0  0.42198230785E+01 -0.44497921758E+02 -0.87651101609E+02  0.98389976934E+02  0.00000000000E+00 0.  1.
</event>
<event>
 7    1  0.6508013E-006  0.5522059E+02  0.7818608E-02  0.1460161E+00
          2   -1    0    0  502    0  0.00000000000E+00  0.00000000000E+00  0.80466586284E+03  0.80466586284E+03  0.00000000000E+00 0. -1.
          1   -1    0    0  501    0 -0.00000000000E+00 -0.00000000000E+00 -0.43463723247E+03  0.43463723247E+03  0.00000000000E+00 0. -1.
         25    2    1    2    0    0  0.31116186507E+02 -0.87759362967E+02 -0.19996002629E+02  0.15714627075E+03  0.12500074975E+03 0.  0.
          2    1    1    2  501    0 -0.22820693533E+02  0.33588629820E+02 -0.34384966689E+03  0.34623918543E+03  0.00000000000E+00 0. -1.
          1    1    1    2  502    0 -0.82954929742E+01  0.54170733148E+02  0.73387429989E+03  0.73591763913E+03  0.00000000000E+00 0. -1.
         22    1    3    3    0    0 -0.41963983611E+02 -0.51749322437E+01  0.87653362210E+01  0.43180863392E+02  0.00000000000E+00 0. -1.
         22    1    3    3    0    0  0.73080170118E+02 -0.82584430724E+02 -0.28761338850E+02  0.11396540736E+03  0.00000000000E+00 0. -1.
</event>
<event>
 7    1  0.6508013E-006  0.8456111E+02  0.7818608E-02  0.1475641E+00
          2   -1    0    0  502    0  0.00000000000E+00  0.00000000000E+00  0.63651154387E+03  0.63651154387E+03  0.00000000000E+00 0. -1.
          1   -1    0    0  501    0 -0.00000000000E+00 -0.00000000000E+00 -0.55079542729E+02  0.55079542729E+02  0.00000000000E+00 0. -1.
         25    2    1    2    0    0  0.90304881944E+02  0.28495510883E+00  0.46006436013E+03  0.48521964131E+03  0.12499532768E+03 0.  0.
          2    1    1    2  501    0 -0.11769978665E+02 -0.20601793734E+02 -0.27814873249E+02  0.36559998314E+02  0.00000000000E+00 0. -1.
          1    1    1    2  502    0 -0.78534903279E+02  0.20316838625E+02  0.14918251426E+03  0.16981144698E+03  0.00000000000E+00 0. -1.
         22    1    3    3    0    0 -0.85807328461E+01 -0.18501462119E+02  0.26438385142E+03  0.26516929303E+03  0.00000000000E+00 0. -1.
         22    1    3    3    0    0  0.98885614790E+02  0.18786417227E+02  0.19568050872E+03  0.22005034828E+03  0.00000000000E+00 0. -1.
</event>
<event>
 7    1  0.6508013E-006  0.9938941E+02  0.7818608E-02  0.1313550E+00
          2   -1    0    0  502    0  0.00000000000E+00  0.00000000000E+00  0.16126467279E+04  0.16126467279E+04  0.00000000000E+00 0. -1.
          1   -1    0    0  501    0 -0.00000000000E+00 -0.00000000000E+00 -0.11687543045E+04  0.11687543045E+04  0.00000000000E+00 0. -1.
         25    2    1    2    0    0 -0.82318371632E+02  0.98871594176E+02  0.26266348411E+02  0.18130079206E+03  0.12501259817E+03 0.  0.
          2    1    1    2  501    0  0.95734213141E+02 -0.26161407626E+02 -0.10880715844E+04  0.10925883175E+04  0.00000000000E+00 0. -1.
          1    1    1    2  502    0 -0.13415841509E+02 -0.72710186550E+02  0.15056976594E+04  0.15075119229E+04  0.00000000000E+00 0. -1.
         22    1    3    3    0    0 -0.94275617734E+01  0.80134956673E+02 -0.31302652258E+02  0.86546786424E+02  0.00000000000E+00 0. -1.
         22    1    3    3    0    0 -0.72890809858E+02  0.18736637503E+02  0.57569000669E+02  0.94754005640E+02  0.00000000000E+00 0. -1.
</event>
<event>
 7    1  0.6508013E-006  0.7479493E+02  0.7818608E-02  0.1386838E+00
          2   -1    0    0  502    0  0.00000000000E+00  0.00000000000E+00  0.18362773315E+03  0.18362773315E+03  0.00000000000E+00 0. -1.
          1   -1    0    0  501    0 -0.00000000000E+00 -0.00000000000E+00 -0.21786072889E+04  0.21786072889E+04  0.00000000000E+00 0. -1.
         25    2    1    2    0    0 -0.67518389692E+02 -0.14292924888E+02 -0.65223322379E+03  0.66767957306E+03  0.12499925371E+03 0.  0.
          2    1    1    2  501    0  0.67464139755E+02 -0.38268215601E+02 -0.15137093039E+04  0.15156951287E+04  0.00000000000E+00 0. -1.
          1    1    1    2  502    0  0.54249937635E-01  0.52561140489E+02  0.17096297188E+03  0.17886032033E+03  0.00000000000E+00 0. -1.
         22    1    3    3    0    0 -0.80469676882E+02 -0.55447037508E+02 -0.39868675124E+03  0.41048857290E+03  0.00000000000E+00 0. -1.
         22    1    3    3    0    0  0.12951287189E+02  0.41154112621E+02 -0.25354647255E+03  0.25719100017E+03  0.00000000000E+00 0. -1.
</event>
<event>
 7    1  0.6508013E-006  0.8662635E+02  0.7818608E-02  0.1311342E+00
          2   -1    0    0  502    0  0.00000000000E+00  0.00000000000E+00  0.20976115949E+03  0.20976115949E+03  0.00000000000E+00 0. -1.
          1   -1    0    0  501    0 -0.00000000000E+00 -0.00000000000E+00 -0.18466895514E+03  0.18466895514E+03  0.00000000000E+00 0. -1.
         25    2    1    2    0    0 -0.13557535423E+02 -0.53419500380E+01  0.63639019443E+02  0.14102013865E+03  0.12499764602E+03 0.  0.
          2    1    1    2  501    0  0.95961779351E+02  0.31779016622E+02 -0.10390244006E+03  0.14496305062E+03  0.00000000000E+00 0. -1.
          1    1    1    2  502    0 -0.82404243927E+02 -0.26437066585E+02  0.65355624969E+02  0.10844692537E+03  0.00000000000E+00 0. -1.
         22    1    3    3    0    0  0.16967869985E+02 -0.57446172575E+02  0.52422959421E+02  0.79599861996E+02  0.00000000000E+00 0.  1.
         22    1    3    3    0    0 -0.30525405408E+02  0.52104222537E+02  0.11216060022E+02  0.61420276651E+02  0.00000000000E+00 0.  1.
</event>
<event>
 7    1  0.6508013E-006  0.1188696E+03  0.7818608E-02  0.1342307E+00
          2   -1    0    0  502    0  0.00000000000E+00  0.00000000000E+00  0.19270511182E+04  0.19270511182E+04  0.00000000000E+00 0. -1.
          1   -1    0    0  501    0 -0.00000000000E+00 -0.00000000000E+00 -0.83526909367E+02  0.83526909367E+02  0.00000000000E+00 0. -1.
         25    2    1    2    0    0  0.58784945619E+02  0.12727875612E+03  0.37675453359E+03  0.42098679795E+03  0.12502141367E+03 0.  0.
          2    1    1    2  501    0  0.22335354485E+02 -0.42445056001E+02 -0.49418286311E+02  0.68866667269E+02  0.00000000000E+00 0. -1.
          1    1    1    2  502    0 -0.81120300104E+02 -0.84833700122E+02  0.15161879615E+04  0.15207245623E+04  0.00000000000E+00 0. -1.
         22    1    3    3    0    0  0.81556822428E+02  0.13073641387E+03  0.36252342142E+03  0.39391211745E+03  0.00000000000E+00 0. -1.
         22    1    3    3    0    0 -0.22771876809E+02 -0.34576577455E+01  0.14231112164E+02  0.27074680495E+02  0.00000000000E+00 0. -1.
</event>
<event>
 7    1  0.6508013E-006  0.6916582E+02  0.7818608E-02  0.1394754E+00
          2   -1    0    0  502    0  0.00000000000E+00  0.00000000000E+00  0.18924504087E+04  0.18924504087E+04  0.00000000000E+00 0. -1.
          1   -1    0    0  501    0 -0.00000000000E+00 -0.00000000000E+00 -0.16483173354E+03  0.16483173354E+03  0.00000000000E+00 0. -1.
         25    2    1    2    0    0  0.26333736467E+02  0.10893993261E+03  0.28333780589E+03  0.32934026795E+03  0.12499330084E+03 0.  0.
          2    1    1    2  501    0 -0.37691319011E+02 -0.56823432870E+02 -0.13315800239E+03  0.14960144268E+03  0.00000000000E+00 0. -1.
          1    1    1    2  502    0  0.11357582544E+02 -0.52116499735E+02  0.15774388717E+04  0.15783404316E+04  0.00000000000E+00 0. -1.
         22    1    3    3    0    0  0.25826560996E+02  0.79746699430E+02  0.28784024216E+03  0.29979751888E+03  0.00000000000E+00 0.  1.
         22    1    3    3    0    0  0.50717547122E+00  0.29193233175E+02 -0.45024362667E+01  0.29542749068E+02  0.00000000000E+00 0.  1.
</event>
<event>
 7    1  0.6508013E-006  0.1008906E+03  0.7818608E-02  0.1413488E+00
          2   -1    0    0  502    0  0.00000000000E+00  0.00000000000E+00  0.69277380217E+03  0.69277380217E+03  0.00000000000E+00 0. -1.
          1   -1    0    0  501    0 -0.00000000000E+00 -0.00000000000E+00 -0.75968207786E+02  0.75968207786E+02  0.00000000000E+00 0. -1.
         25    2    1    2    0    0  0.63136137046E+02 -0.10092071803E+03  0.84092445770E+02  0.19201957170E+03  0.12501525248E+03 0.  0.
          2    1    1    2  501    0 -0.30830410396E+02  0.67195444337E+01 -0.31250817660E+01  0.31708557498E+02  0.00000000000E+00 0. -1.
          1    1    1    2  502    0 -0.32305726650E+02  0.94201173592E+02  0.53583823038E+03  0.54501388076E+03  0.00000000000E+00 0. -1.
         22    1    3    3    0    0  0.46577208678E+02 -0.98099248714E+02  0.24037457438E+01  0.10862171496E+03  0.00000000000E+00 0. -1.
         22    1    3    3    0    0  0.16558928368E+02 -0.28214693121E+01  0.81688700026E+02  0.83397856745E+02  0.00000000000E+00 0. -1.
</event>
<event>
 7    1  0.6508013E-006  0.4368663E+02  0.7818608E-02  0.1520205E+00
          2   -1    0    0  502    0  0.00000000000E+00  0.00000000000E+00  0.82611217493E+03  0.82611217493E+03  0.00000000000E+00 0. -1.
          1   -1    0    0  501    0 -0.00000000000E+00 -0.00000000000E+00 -0.45212812280E+02  0.45212812280E+02  0.00000000000E+00 0. -1.
         25    2    1    2    0    0 -0.25581117820E+02  0.22512923799E+01  0.50116508148E+03  0.51715786961E+03  0.12500544509E+03 0.  0.
          2    1    1    2  501    0  0.25949163245E+02 -0.36029892894E+02 -0.22689138428E+02  0.49862904626E+02  0.00000000000E+00 0. -1.
          1    1    1    2  502    0 -0.36804542439E+00  0.33778600514E+02  0.30242341960E+03  0.30430421297E+03  0.00000000000E+00 0. -1.
         22    1    3    3    0    0 -0.51247232694E+02  0.10933386645E+02  0.83271159821E+02  0.98386502429E+02  0.00000000000E+00 0. -1.
         22    1    3    3    0    0  0.25666114873E+02 -0.86820942647E+01  0.41789392166E+03  0.41877136719E+03  0.00000000000E+00 0. -1.
</event>
<event>
 7    1  0.6508013E-006  0.8413308E+02  0.7818608E-02  0.1344341E+00
          2   -1    0    0  502    0  0.00000000000E+00  0.00000000000E+00  0.26233227740E+03  0.26233227740E+03  0.00000000000E+00 0. -1.
          1   -1    0    0  501    0 -0.00000000000E+00 -0.00000000000E+00 -0.10899026033E+04  0.10899026033E+04  0.00000000000E+00 0. -1.
         25    2    1    2    0    0  0.10875491253E+03 -0.12244097523E+02 -0.47656316233E+02  0.17284093017E+03  0.12500125496E+03 0.  0.
          2    1    1    2  501    0 -0.48355568405E+02 -0.45779171680E+02 -0.96968179819E+03  0.97196542290E+03  0.00000000000E+00 0. -1.
          1    1    1    2  502    0 -0.60399344126E+02  0.58023269203E+02  0.18976778850E+03  0.20742852767E+03  0.00000000000E+00 0. -1.
         22    1    3    3    0    0  0.60661910506E+02 -0.54243871231E+02  0.15714902811E+02  0.82880776557E+02  0.00000000000E+00 0. -1.
         22    1    3    3    0    0  0.48093002025E+02  0.41999773708E+02 -0.63371219044E+02  0.89960153615E+02  0.00000000000E+00 0. -1.
</event>
<event>
 7    1  0.6508013E-006  0.1033913E+03  0.7818608E-02  0.1328639E+00
          2   -1    0    0  502    0  0.00000000000E+00  0.00000000000E+00  0.31542061901E+03  0.31542061901E+03  0.00000000000E+00 0. -1.
          1   -1    0    0  501    0 -0.00000000000E+00 -0.00000000000E+00 -0.10146094794E+04  0.10146094794E+04  0.00000000000E+00 0. -1.
         25    2    1    2    0    0  0.11441642322E+02 -0.41690578466E+02  0.39185079129E+02  0.13795336643E+03  0.12500658131E+03 0.  0.
          2    1    1    2  501    0 -0.29127692444E+02  0.10124622181E+03 -0.95802930601E+03  0.96380463325E+03  0.00000000000E+00 0. -1.
          1    1    1    2  502    0  0.17686050122E+02 -0.59555643341E+02  0.21965536651E+03  0.22827209873E+03  0.00000000000E+00 0. -1.
         22    1    3    3    0    0  0.48358917411E+02 -0.68407307229E+02  0.11312418731E+02  0.84534699343E+02  0.00000000000E+00 0.  1.
         22    1    3    3    0    0 -0.36917275089E+02  0.26716728762E+02  0.27872660398E+02  0.53418667088E+02  0.00000000000E+00 0.  1.
</event>
<event>
 7    1  0.6508013E-006  0.8685004E+02  0.7818608E-02  0.1361628E+00
          2   -1    0    0  502    0  0.00000000000E+00  0.00000000000E+00  0.14601289487E+03  0.14601289487E+03  0.00000000000E+00 0. -1.
          1   -1    0    0  501    0 -0.00000000000E+00 -0.00000000000E+00 -0.21342916711E+04  0.21342916711E+04  0.00000000000E+00 0. -1.
         25    2    1    2    0    0  0.68054641799E+02 -0.10045346835E+03 -0.30530195411E+03  0.35150477354E+03  0.12499595618E+03 0.  0.
          2    1    1    2  501    0 -0.53352920752E+02  0.15988556183E+02 -0.17904516736E+04  0.17913177729E+04  0.00000000000E+00 0. -1.
          1    1    1    2  502    0 -0.14701721047E+02  0.84464912170E+02  0.10747485148E+03  0.13748201951E+03  0.00000000000E+00 0. -1.
         22    1    3    3    0    0 -0.44657210496E+01 -0.60694026553E+02 -0.38110281783E+02  0.71805996276E+02  0.00000000000E+00 0. -1.
         22    1    3    3    0    0  0.72520362848E+02 -0.39759441800E+02 -0.26719167233E+03  0.27969877726E+03  0.00000000000E+00 0. -1.
</event>
<event>
 7    1  0.6508013E-006  0.1213851E+03  0.7818608E-02  0.1279922E+00
          2   -1    0    0  502    0  0.00000000000E+00  0.00000000000E+00  0.11229261150E+03  0.11229261150E+03  0.00000000000E+00 0. -1.
          1   -1    0    0  501    0 -0.00000000000E+00 -0.00000000000E+00 -0.50966568123E+03  0.50966568123E+03  0.00000000000E+00 0. -1.
         25    2    1    2    0    0 -0.37702651574E+02 -0.14458484821E+03 -0.14714540430E+03  0.24414516379E+03  0.12501528997E+03 0.  0.
          2    1    1    2  501    0 -0.38545755450E+02  0.11262418349E+03 -0.26800115202E+03  0.29324835797E+03  0.00000000000E+00 0. -1.
          1    1    1    2  502    0  0.76248407024E+02  0.31960664723E+02  0.17773486590E+02  0.84564770968E+02  0.00000000000E+00 0. -1.
         22    1    3    3    0    0 -0.38996379710E+02 -0.13138554181E+03 -0.16960825020E+03  0.21805925058E+03  0.00000000000E+00 0.  1.
         22    1    3    3    0    0  0.12937281359E+01 -0.13199306408E+02  0.22462845900E+02  0.26085913211E+02  0.00000000000E+00 0.  1.
</event>
<event>
 7    1  0.6508013E-006  0.8588282E+02  0.7818608E-02  0.1330984E+00
          2   -1    0    0  502    0  0.00000000000E+00  0.00000000000E+00  0.28054586203E+03  0.28054586203E+03  0.00000000000E+00 0. -1.
          1   -1    0    0  501    0 -0.00000000000E+00 -0.00000000000E+00 -0.58006167568E+03  0.58006167568E+03  0.00000000000E+00 0. -1.
         25    2    1    2    0    0 -0.38106215070E+02  0.28579690007E+02  0.61243240046E+02  0.14712007746E+03  0.12499880172E+03 0.  0.
          2    1    1    2  501    0  0.82902849485E+02  0.29393338195E+02 -0.52569966871E+03  0.53300749757E+03  0.00000000000E+00 0. -1.
          1    1    1    2  502    0 -0.44796634415E+02 -0.57973028202E+02  0.16494061501E+03  0.18047996269E+03  0.00000000000E+00 0. -1.
         22    1    3    3    0    0 -0.28249421900E+02  0.10931650637E+02  0.99414544104E+02  0.10392681272E+03  0.00000000000E+00 0.  1.
         22    1    3    3    0    0 -0.98567931703E+01  0.17648039370E+02 -0.38171304058E+02  0.43193264737E+02  0.00000000000E+00 0.  1.
</event>
<event>
 7    1  0.6508013E-006  0.1083458E+03  0.7818608E-02  0.1336296E+00
          2   -1    0    0  502    0  0.00000000000E+00  0.00000000000E+00  0.94710100202E+03  0.94710100202E+03  0.00000000000E+00 0. -1.
          1   -1    0    0  501    0 -0.00000000000E+00 -0.00000000000E+00 -0.10472107577E+03  0.10472107577E+03  0.00000000000E+00 0. -1.
         25    2    1    2    0    0 -0.12100277159E+03 -0.86791153822E+02  0.86221889761E+02  0.21268295241E+03  0.12500179542E+03 0.  0.
          2    1    1    2  501    0  0.78142784356E+02  0.51629588180E+02  0.13747970285E+02  0.94662113908E+02  0.00000000000E+00 0. -1.
          1    1    1    2  502    0  0.42859987233E+02  0.35161565642E+02  0.74241006621E+03  0.74447701147E+03  0.00000000000E+00 0. -1.
         22    1    3    3    0    0 -0.44805531755E+01  0.29474304549E+02  0.13648729599E+02  0.32788684101E+02  0.00000000000E+00 0. -1.
         22    1    3    3    0    0 -0.11652221841E+03 -0.11626545837E+03  0.72573160162E+02  0.17989426831E+03  0.00000000000E+00 0. -1.
</event>
<event>
 7    1  0.6508013E-006  0.1015666E+03  0.7818608E-02  0.1360446E+00
          2   -1    0    0  502    0  0.00000000000E+00  0.00000000000E+00  0.10052361782E+03  0.10052361782E+03  0.00000000000E+00 0. -1.
          1   -1    0    0  501    0 -0.00000000000E+00 -0.00000000000E+00 -0.11153127219E+04  0.11153127219E+04  0.00000000000E+00 0. -1.
         25    2    1    2    0    0  0.66999385354E+02  0.20056716637E+02 -0.20920686161E+03  0.25354524267E+03  0.12500595834E+03 0.  0.
          2    1    1    2  501    0  0.40050229068E+02 -0.26640689697E+02 -0.84622922351E+03  0.84759521349E+03  0.00000000000E+00 0. -1.
          1    1    1    2  502    0 -0.10704961442E+03  0.65839730593E+01  0.40646981008E+02  0.11469588360E+03  0.00000000000E+00 0. -1.
         22    1    3    3    0    0  0.46613226367E+02  0.39593645346E+02 -0.21600984358E+03  0.22450100701E+03  0.00000000000E+00 0.  1.
         22    1    3    3    0    0  0.20386158987E+02 -0.19536928708E+02  0.68029819757E+01  0.29044235665E+02  0.00000000000E+00 0.  1.
</event>
<event>
 7    1  0.6508013E-006  0.1009347E+03  0.7818608E-02  0.1383473E+00
          2   -1    0    0  502    0  0.00000000000E+00  0.00000000000E+00  0.53294378037E+03  0.53294378037E+03  0.00000000000E+00 0. -1.
          1   -1    0    0  501    0 -0.00000000000E+00 -0.00000000000E+00 -0.40742416528E+03  0.40742416528E+03  0.00000000000E+00 0. -1.
         25    2    1    2    0    0  0.35698942293E+02  0.98749979153E+02  0.19135081318E+01  0.16325896701E+03  0.12499542364E+03 0.  0.
          2    1    1    2  501    0 -0.39956424028E+02  0.23250714911E+01 -0.31980706158E+03  0.32230184364E+03  0.00000000000E+00 0. -1.
          1    1    1    2  502    0  0.42574817350E+01 -0.10107505064E+03  0.44341316854E+03  0.45480713500E+03  0.00000000000E+00 0. -1.
         22    1    3    3    0    0  0.78582831043E+02  0.35065662494E+02  0.68474308998E+01  0.86323515515E+02  0.00000000000E+00 0.  1.
         22    1    3    3    0    0 -0.42883888750E+02  0.63684316659E+02 -0.49339227679E+01  0.76935451493E+02  0.00000000000E+00 0.  1.
</event>
<event>
 7    1  0.9855729E-006  0.9226302E+02  0.7818608E-02  0.1299393E+00
          2   -1    0    0  502    0  0.00000000000E+00  0.00000000000E+00  0.96446497315E+03  0.96446497315E+03  0.00000000000E+00 0. -1.
          1   -1    0    0  501    0 -0.00000000000E+00 -0.00000000000E+00 -0.15742500762E+04  0.15742500762E+04  0.00000000000E+00 0. -1.
         25    2    1    2    0    0 -0.80091649330E+02  0.23891361942E+01 -0.62717923542E+03  0.64451571281E+03  0.12500532173E+03 0.  0.
          2    1    1    2  501    0  0.52726560394E+02 -0.90500523951E+02 -0.93323961225E+03  0.93909882807E+03  0.00000000000E+00 0. -1.
          1    1    1    2  502    0  0.27365088936E+02  0.88111387757E+02  0.95063374465E+03  0.95510050843E+03  0.00000000000E+00 0. -1.
         22    1    3    3    0    0  0.46837867900E+01 -0.24608410622E+02 -0.23605845919E+02  0.34420164055E+02  0.00000000000E+00 0. -1.
         22    1    3    3    0    0 -0.84775436120E+02  0.26997546816E+02 -0.60357338950E+03  0.61009554876E+03  0.00000000000E+00 0. -1.
</event>
<event>
 7    1  0.6508013E-006  0.5131394E+02  0.7818608E-02  0.1487576E+00
          2   -1    0    0  502    0  0.00000000000E+00  0.00000000000E+00  0.21342454603E+03  0.21342454603E+03  0.00000000000E+00 0. -1.
          1   -1    0    0  501    0 -0.00000000000E+00 -0.00000000000E+00 -0.88942961273E+03  0.88942961273E+03  0.00000000000E+00 0. -1.
         25    2    1    2    0    0 -0.26637294336E+02 -0.79324927652E+02 -0.34925415256E+03  0.38027149235E+03  0.12500382083E+03 0.  0.
          2    1    1    2  501    0  0.22214681452E+02  0.43652624384E+02 -0.52187846529E+03  0.52417189568E+03  0.00000000000E+00 0. -1.
          1    1    1    2  502    0  0.44226128848E+01  0.35672303269E+02  0.19512755115E+03  0.19841077073E+03  0.00000000000E+00 0. -1.
         22    1    3    3    0    0 -0.63274449724E+02 -0.77396132532E+02 -0.16927057454E+03  0.19658673588E+03  0.00000000000E+00 0. -1.
         22    1    3    3    0    0  0.36637155388E+02 -0.19287951199E+01 -0.17998357802E+03  0.18368475647E+03  0.00000000000E+00 0. -1.
</event>
<event>
 7    1  0.6508013E-006  0.9408949E+02  0.7818608E-02  0.1321064E+00
          2   -1    0    0  502    0  0.00000000000E+00  0.00000000000E+00  0.21846396286E+02  0.21846396286E+02  0.00000000000E+00 0. -1.
          1   -1    0    0  501    0 -0.00000000000E+00 -0.00000000000E+00 -0.27324178106E+04  0.27324178106E+04  0.00000000000E+00 0. -1.
         25    2    1    2    0    0 -0.13212766569E+03  0.72263030736E+02 -0.11505151808E+04  0.11670435479E+04  0.12500318320E+03 0.  0.
          2    1    1    2  501    0  0.84588337440E+02 -0.16849793671E+02 -0.14641387264E+04  0.14666769626E+04  0.00000000000E+00 0. -1.
          1    1    1    2  502    0  0.47539328248E+02 -0.55413237066E+02 -0.95917507081E+02  0.12054369638E+03  0.00000000000E+00 0. -1.
         22    1    3    3    0    0 -0.11647991839E+03  0.48218893688E+02 -0.49168779404E+03  0.50759188322E+03  0.00000000000E+00 0. -1.
         22    1    3    3    0    0 -0.15647747300E+02  0.24044137049E+02 -0.65882738679E+03  0.65945166473E+03  0.00000000000E+00 0. -1.
</event>
<event>
 7    1  0.6508013E-006  0.3097848E+02  0.7818608E-02  0.1615492E+00
          2   -1    0    0  502    0  0.00000000000E+00  0.00000000000E+00  0.23860385400E+04  0.23860385400E+04  0.00000000000E+00 0. -1.
          1   -1    0    0  501    0 -0.00000000000E+00 -0.00000000000E+00 -0.51906248382E+02  0.51906248382E+02  0.00000000000E+00 0. -1.
         25    2    1    2    0    0  0.10179778380E+02  0.73963068838E+01  0.55934601814E+03  0.57328120875E+03  0.12500017222E+03 0.  0.
          2    1    1    2  501    0 -0.29441792972E+02  0.10346107975E+02 -0.39415008674E+02  0.50273293431E+02  0.00000000000E+00 0. -1.
          1    1    1    2  502    0  0.19262014592E+02 -0.17742414859E+02  0.18142012821E+04  0.18143902862E+04  0.00000000000E+00 0. -1.
         22    1    3    3    0    0  0.52524122572E+02  0.38409434967E+02  0.40648505828E+03  0.41166026132E+03  0.00000000000E+00 0.  1.
         22    1    3    3    0    0 -0.42344344191E+02 -0.31013128083E+02  0.15286095985E+03  0.16162094742E+03  0.00000000000E+00 0.  1.
</event>
<event>
 7    1  0.6508013E-006  0.5245848E+02  0.7818608E-02  0.1475575E+00
          2   -1    0    0  502    0  0.00000000000E+00  0.00000000000E+00  0.25877985099E+04  0.25877985099E+04  0.00000000000E+00 0. -1.
          1   -1    0    0  501    0 -0.00000000000E+00 -0.00000000000E+00 -0.32433235701E+03  0.32433235701E+03  0.00000000000E+00 0. -1.
         25    2    1    2    0    0  0.84554453492E+02 -0.30436667398E+02  0.87429284691E+03  0.88774251542E+03  0.12499178051E+03 0.  0.
          2    1    1    2  501    0 -0.47000893407E+02  0.23094057410E+02 -0.31523267044E+03  0.31955290013E+03  0.00000000000E+00 0. -1.
          1    1    1    2  502    0 -0.37553560084E+02  0.73426099877E+01  0.17044059765E+04  0.17048354514E+04  0.00000000000E+00 0. -1.
         22    1    3    3    0    0  0.69404516303E+02  0.39599320896E+02  0.53787493761E+03  0.54377802604E+03  0.00000000000E+00 0. -1.
         22    1    3    3    0    0  0.15149937189E+02 -0.70035988293E+02  0.33641790930E+03  0.34396448938E+03  0.00000000000E+00 0. -1.
</event>
<event>
 7    1  0.6508013E-006  0.1120340E+03  0.7818608E-02  0.1376743E+00
          2   -1    0    0  502    0  0.00000000000E+00  0.00000000000E+00  0.21066738585E+03  0.21066738585E+03  0.00000000000E+00 0. -1.
          1   -1    0    0  501    0 -0.00000000000E+00 -0.00000000000E+00 -0.35044786801E+03  0.35044786801E+03  0.00000000000E+00 0. -1.
         25    2    1    2    0    0  0.11760841652E+03  0.88735452805E+02  0.13751902327E+03  0.23715449883E+03  0.12500021733E+03 0.  0.
          2    1    1    2  501    0 -0.91427279233E+02 -0.61065453238E+02 -0.25966878498E+03  0.28198548697E+03  0.00000000000E+00 0. -1.
          1    1    1    2  502    0 -0.26181137289E+02 -0.27669999567E+02 -0.17630720450E+02  0.41975268068E+02  0.00000000000E+00 0. -1.
         22    1    3    3    0    0  0.32019226446E+02  0.11769837546E+01 -0.19904352175E+02  0.37720013103E+02  0.00000000000E+00 0. -1.
         22    1    3    3    0    0  0.85589190077E+02  0.87558469050E+02  0.15742337544E+03  0.19943448572E+03  0.00000000000E+00 0. -1.
</event>
<event>
 7    1  0.6508013E-006  0.6234556E+02  0.7818608E-02  0.1397410E+00
          2   -1    0    0  502    0  0.00000000000E+00  0.00000000000E+00  0.47840046572E+03  0.47840046572E+03  0.00000000000E+00 0. -1.
          1   -1    0    0  501    0 -0.00000000000E+00 -0.00000000000E+00 -0.38761538226E+03  0.38761538226E+03  0.00000000000E+00 0. -1.
         25    2    1    2    0    0 -0.39239765865E+02 -0.97409973317E+02 -0.31063681531E+02  0.16618758852E+03  0.12499960056E+03 0.  0.
          2    1    1    2  501    0 -0.76381511172E+01  0.57430888315E+02 -0.28373599873E+03  0.28959068573E+03  0.00000000000E+00 0. -1.
          1    1    1    2  502    0  0.46877916982E+02  0.39979085003E+02  0.40558476372E+03  0.41023757373E+03  0.00000000000E+00 0. -1.
         22    1    3    3    0    0 -0.40556908708E+00 -0.97872003171E+02 -0.62581913734E+02  0.11617051871E+03  0.00000000000E+00 0. -1.
         22    1    3    3    0    0 -0.38834196778E+02  0.46202985332E+00  0.31518232202E+02  0.50017069808E+02  0.00000000000E+00 0. -1.
</event>
<event>
 7    1  0.6508013E-006  0.3987636E+02  0.7818608E-02  0.1573186E+00
          2   -1    0    0  502    0  0.00000000000E+00  0.00000000000E+00  0.21773869656E+03  0.21773869656E+03  0.00000000000E+00 0. -1.
          1   -1    0    0  501    0 -0.00000000000E+00 -0.00000000000E+00 -0.15239300447E+03  0.15239300447E+03  0.00000000000E+00 0. -1.
         25    2    1    2    0    0 -0.22687695287E+01 -0.38263389913E+02  0.28244246783E+02  0.13376000715E+03  0.12499907085E+03 0.  0.
          2    1    1    2  501    0 -0.24930360986E+02  0.83503061667E+01 -0.94818120397E+02  0.98395764480E+02  0.00000000000E+00 0. -1.
          1    1    1    2  502    0  0.27199130515E+02  0.29913083746E+02  0.13191956570E+03  0.13797592941E+03  0.00000000000E+00 0. -1.
         22    1    3    3    0    0 -0.49801677823E+02 -0.43813462903E+02 -0.16383343083E+02  0.68324523973E+02  0.00000000000E+00 0. -1.
         22    1    3    3    0    0  0.47532908295E+02  0.55500729897E+01  0.44627589866E+02  0.65435483175E+02  0.00000000000E+00 0. -1.
</event>
<event>
 7    1  0.6508013E-006  0.1000561E+03  0.7818608E-02  0.1308091E+00
          2   -1    0    0  502    0  0.00000000000E+00  0.00000000000E+00  0.35729170443E+03  0.35729170443E+03  0.00000000000E+00 0. -1.
          1   -1    0    0  501    0 -0.00000000000E+00 -0.00000000000E+00 -0.48236506608E+03  0.48236506608E+03  0.00000000000E+00 0. -1.
         25    2    1    2    0    0 -0.18092551914E+02  0.16341016745E+03 -0.24838698534E+03  0.32303322201E+03  0.12499657904E+03 0.  0.
          2    1    1    2  501    0 -0.22728439082E+02 -0.73746878784E+02 -0.18099775112E+03  0.19676221686E+03  0.00000000000E+00 0. -1.
          1    1    1    2  502    0  0.40820990996E+02 -0.89663288670E+02  0.30431137481E+03  0.31986133164E+03  0.00000000000E+00 0. -1.
         22    1    3    3    0    0 -0.14528585217E+02  0.12328050572E+03 -0.75009579906E+02  0.14503654697E+03  0.00000000000E+00 0. -1.
         22    1    3    3    0    0 -0.35639666967E+01  0.40129661730E+02 -0.17337740543E+03  0.17799667503E+03  0.00000000000E+00 0. -1.
</event>
<event>
 7    1  0.6508013E-006  0.9221580E+02  0.7818608E-02  0.1440732E+00
          2   -1    0    0  502    0  0.00000000000E+00  0.00000000000E+00  0.64979581429E+03  0.64979581429E+03  0.00000000000E+00 0. -1.
          1   -1    0    0  501    0 -0.00000000000E+00 -0.00000000000E+00 -0.62816092088E+03  0.62816092088E+03  0.00000000000E+00 0. -1.
         25    2    1    2    0    0 -0.57788896972E+01  0.74682137958E+02  0.33092037186E+03  0.36158633859E+03  0.12500228176E+03 0.  0.
          2    1    1    2  501    0 -0.10513704024E+02  0.26011791666E+02 -0.60392365276E+03  0.60457499919E+03  0.00000000000E+00 0. -1.
          1    1    1    2  502    0  0.16292593722E+02 -0.10069392962E+03  0.29463817431E+03  0.31179539739E+03  0.00000000000E+00 0. -1.
         22    1    3    3    0    0  0.42753993331E+02  0.17498894141E+02  0.23666312952E+03  0.24112974125E+03  0.00000000000E+00 0.  1.
         22    1    3    3    0    0 -0.48532883028E+02  0.57183243817E+02  0.94257242343E+02  0.12045659734E+03  0.00000000000E+00 0.  1.
</event>
<event>
 7    1  0.6508013E-006  0.1376327E+03  0.7818608E-02  0.1297960E+00
          2   -1    0    0  502    0  0.00000000000E+00  0.00000000000E+00  0.38874346213E+03  0.38874346213E+03  0.00000000000E+00 0. -1.
          1   -1    0    0  501    0 -0.00000000000E+00 -0.00000000000E+00 -0.33144259031E+04  0.33144259031E+04  0.00000000000E+00 0. -1.
         25    2    1    2    0    0 -0.10892890177E+03  0.13642247903E+03  0.13454368624E+03  0.25338498851E+03  0.12500140186E+03 0.  0.
          2    1    1    2  501    0  0.57889327119E+02 -0.20954623345E+02 -0.32342251542E+04  0.32348110638E+04  0.00000000000E+00 0. -1.
          1    1    1    2  502    0  0.51039574656E+02 -0.11546785569E+03  0.17399902699E+03  0.21497331293E+03  0.00000000000E+00 0. -1.
         22    1    3    3    0    0 -0.83736777180E+02  0.14292820856E+03  0.14970151703E+03  0.22327307239E+03  0.00000000000E+00 0.  1.
         22    1    3    3    0    0 -0.25192124595E+02 -0.65057295302E+01 -0.15157830781E+02  0.30111916118E+02  0.00000000000E+00 0.  1.
</event>
<event>
 7    1  0.6508013E-006  0.1150120E+03  0.7818608E-02  0.1352728E+00
          2   -1    0    0  502    0  0.00000000000E+00  0.00000000000E+00  0.41667640491E+03  0.41667640491E+03  0.00000000000E+00 0. -1.
          1   -1    0    0  501    0 -0.00000000000E+00 -0.00000000000E+00 -0.17676428489E+04  0.17676428489E+04  0.00000000000E+00 0. -1.
         25    2    1    2    0    0 -0.38121054610E+02  0.14737456029E+03 -0.19489261787E+03  0.27709253295E+03  0.12499865396E+03 0.  0.
          2    1    1    2  501    0  0.47151767778E+02 -0.10294342485E+03 -0.15281797501E+04  0.15323687502E+04  0.00000000000E+00 0. -1.
          1    1    1    2  502    0 -0.90307131686E+01 -0.44431135439E+02  0.37210592394E+03  0.37485797071E+03  0.00000000000E+00 0. -1.
         22    1    3    3    0    0  0.22890658161E+02 -0.54117950027E+01 -0.59654574597E+02  0.64124394941E+02  0.00000000000E+00 0.  1.
         22    1    3    3    0    0 -0.61011712770E+02  0.15278635529E+03 -0.13523804327E+03  0.21296813801E+03  0.00000000000E+00 0.  1.
</event>
<event>
 7    1  0.6508013E-006  0.6712526E+02  0.7818608E-02  0.1380602E+00
          2   -1    0    0  502    0  0.00000000000E+00  0.00000000000E+00  0.33732816381E+04  0.33732816381E+04  0.00000000000E+00 0. -1.
          1   -1    0    0  501    0 -0.00000000000E+00 -0.00000000000E+00 -0.15900031739E+03  0.15900031739E+03  0.00000000000E+00 0. -1.
         25    2    1    2    0    0 -0.81677253743E+02 -0.85748882931E+02  0.75752088894E+02  0.18812054345E+03  0.12500766053E+03 0.  0.
          2    1    1    2  501    0  0.26783310244E+02  0.57788324180E+02 -0.92629928297E+02  0.11241503341E+03  0.00000000000E+00 0. -1.
          1    1    1    2  502    0  0.54893943499E+02  0.27960558751E+02  0.32311591601E+04  0.32317463787E+04  0.00000000000E+00 0. -1.
         22    1    3    3    0    0 -0.38339724443E+02 -0.61034801274E+02 -0.24510936450E+02  0.76131251419E+02  0.00000000000E+00 0. -1.
         22    1    3    3    0    0 -0.43337529299E+02 -0.24714081657E+02  0.10026302534E+03  0.11198929203E+03  0.00000000000E+00 0. -1.
</event>
<event>
 7    1  0.6508013E-006  0.1738503E+03  0.7818608E-02  0.1282670E+00
          2   -1    0    0  502    0  0.00000000000E+00  0.00000000000E+00  0.29480556464E+04  0.29480556464E+04  0.00000000000E+00 0. -1.
          1   -1    0    0  501    0 -0.00000000000E+00 -0.00000000000E+00 -0.12866981288E+04  0.12866981288E+04  0.00000000000E+00 0. -1.
         25    2    1    2    0    0  0.19367234542E+03  0.10379399604E+03  0.20670368975E+03  0.32654733243E+03  0.12499829586E+03 0.  0.
          2    1    1    2  501    0 -0.16340708456E+03 -0.56392994415E+02 -0.12203897385E+04  0.12325717662E+04  0.00000000000E+00 0. -1.
          1    1    1    2  502    0 -0.30265260861E+02 -0.47401001625E+02  0.26750435662E+04  0.26756346765E+04  0.00000000000E+00 0. -1.
         22    1    3    3    0    0  0.14846076696E+03  0.10044578730E+03  0.21556530392E+03  0.28035398297E+03  0.00000000000E+00 0. -1.
         22    1    3    3    0    0  0.45211578464E+02  0.33482087381E+01 -0.88616141689E+01  0.46193349463E+02  0.00000000000E+00 0. -1.
</event>
<event>
 7    1  0.6508013E-006  0.8754335E+02  0.7818608E-02  0.1380222E+00
          2   -1    0    0  502    0  0.00000000000E+00  0.00000000000E+00  0.29977247328E+03  0.29977247328E+03  0.00000000000E+00 0. -1.
          1   -1    0    0  501    0 -0.00000000000E+00 -0.00000000000E+00 -0.72176391786E+03  0.72176391786E+03  0.00000000000E+00 0. -1.
         25    2    1    2    0    0 -0.86131952108E+02 -0.57841816456E+02 -0.46287928912E+03  0.49055736866E+03  0.12499962699E+03 0.  0.
          2    1    1    2  501    0  0.40887273321E+02  0.71915589578E+02 -0.23599323126E+03  0.25007284207E+03  0.00000000000E+00 0. -1.
          1    1    1    2  502    0  0.45244678787E+02 -0.14073773122E+02  0.27688107580E+03  0.28090618040E+03  0.00000000000E+00 0. -1.
         22    1    3    3    0    0 -0.80092811657E+02  0.21458568479E+02 -0.23666425671E+03  0.25076941410E+03  0.00000000000E+00 0. -1.
         22    1    3    3    0    0 -0.60391404508E+01 -0.79300384935E+02 -0.22621503241E+03  0.23978795457E+03  0.00000000000E+00 0. -1.
</event>
<event>
 7    1  0.6508013E-006  0.9114652E+02  0.7818608E-02  0.1443240E+00
          2   -1    0    0  502    0  0.00000000000E+00  0.00000000000E+00  0.18317061577E+04  0.18317061577E+04  0.00000000000E+00 0. -1.
          1   -1    0    0  501    0 -0.00000000000E+00 -0.00000000000E+00 -0.31623377774E+03  0.31623377774E+03  0.00000000000E+00 0. -1.
         25    2    1    2    0    0 -0.26877673457E+02  0.96923085146E+02  0.61128353078E+02  0.17169018220E+03  0.12499739736E+03 0.  0.
          2    1    1    2  501    0  0.27227243685E+02 -0.59031017282E+01 -0.25899780536E+03  0.26049190504E+03  0.00000000000E+00 0. -1.
          1    1    1    2  502    0 -0.34957022775E+00 -0.91019983417E+02  0.17133418322E+04  0.17157578482E+04  0.00000000000E+00 0. -1.
         22    1    3    3    0    0  0.24088276264E+01 -0.14686395098E+02 -0.24040488138E+02  0.28274329725E+02  0.00000000000E+00 0.  1.
         22    1    3    3    0    0 -0.29286501084E+02  0.11160948024E+03  0.85168841215E+02  0.14341585247E+03  0.00000000000E+00 0.  1.
</event>
<event>
 7    1  0.6508013E-006  0.7278706E+02  0.7818608E-02  0.1366139E+00
          2   -1    0    0  502    0  0.00000000000E+00  0.00000000000E+00  0.89622507388E+03  0.89622507388E+03  0.00000000000E+00 0. -1.
          1   -1    0    0  501    0 -0.00000000000E+00 -0.00000000000E+00 -0.24716594565E+03  0.24716594565E+03  0.00000000000E+00 0. -1.
         25    2    1    2    0    0  0.21918314595E+02 -0.58790382431E+02  0.10624356050E+03  0.17564055212E+03  0.12500075127E+03 0.  0.
          2    1    1    2  501    0  0.50270460865E+02  0.39609494019E+02 -0.20574665180E+03  0.21547091678E+03  0.00000000000E+00 0. -1.
          1    1    1    2  502    0 -0.72188775460E+02  0.19180888413E+02  0.74856221953E+03  0.75227955062E+03  0.00000000000E+00 0. -1.
         22    1    3    3    0    0 -0.44134209916E+01  0.26091793608E+02  0.78033148420E+02  0.82398011086E+02  0.00000000000E+00 0. -1.
         22    1    3    3    0    0  0.26331735586E+02 -0.84882176040E+02  0.28210412085E+02  0.93242541032E+02  0.00000000000E+00 0. -1.
</event>
<event>
 7    1  0.6508013E-006  0.6492094E+02  0.7818608E-02  0.1392104E+00
          2   -1    0    0  502    0  0.00000000000E+00  0.00000000000E+00  0.12790374390E+04  0.12790374390E+04  0.00000000000E+00 0. -1.
          1   -1    0    0  501    0 -0.00000000000E+00 -0.00000000000E+00 -0.63357322992E+03  0.63357322992E+03  0.00000000000E+00 0. -1.
         25    2    1    2    0    0  0.37392076274E+02 -0.39243615552E+02  0.11177410114E+03  0.17623332557E+03  0.12500602636E+03 0.  0.
          2    1    1    2  501    0  0.27484296251E+02  0.51124936345E+02 -0.59898137438E+03  0.60178719869E+03  0.00000000000E+00 0. -1.
          1    1    1    2  502    0 -0.64876372525E+02 -0.11881320793E+02  0.11326714823E+04  0.11345901447E+04  0.00000000000E+00 0. -1.
         22    1    3    3    0    0 -0.27019026267E+02 -0.77487091302E+01 -0.14042899778E+02  0.31420905585E+02  0.00000000000E+00 0.  1.
         22    1    3    3    0    0  0.64411102542E+02 -0.31494906422E+02  0.12581700092E+03  0.14481241999E+03  0.00000000000E+00 0.  1.
</event>
<event>
 7    1  0.6508013E-006  0.3919560E+03  0.7818608E-02  0.1265938E+00
          2   -1    0    0  502    0  0.00000000000E+00  0.00000000000E+00  0.28059545052E+03  0.28059545052E+03  0.00000000000E+00 0. -1.
          1   -1    0    0  501    0 -0.00000000000E+00 -0.00000000000E+00 -0.29526548475E+04  0.29526548475E+04  0.00000000000E+00 0. -1.
         25    2    1    2    0    0 -0.36989841746E+03  0.13667285128E+03 -0.93568195161E+03  0.10230482788E+04  0.12499103438E+03 0.  0.
          2    1    1    2  501    0  0.13545150970E+02  0.25972607689E+02 -0.18111725933E+04  0.18114094540E+04  0.00000000000E+00 0. -1.
          1    1    1    2  502    0  0.35635326649E+03 -0.16264545897E+03  0.74795147958E+02  0.39879256515E+03  0.00000000000E+00 0. -1.
         22    1    3    3    0    0 -0.23872847808E+02 -0.22226533130E+02 -0.64020457690E+02  0.71850891715E+02  0.00000000000E+00 0.  1.
         22    1    3    3    0    0 -0.34602556965E+03  0.15889938441E+03 -0.87166149392E+03  0.95119738708E+03  0.00000000000E+00 0.  1.
</event>
<event>
 7    1  0.6508013E-006  0.1269955E+03  0.7818608E-02  0.1358697E+00
          2   -1    0    0  502    0  0.00000000000E+00  0.00000000000E+00  0.70735485432E+03  0.70735485432E+03  0.00000000000E+00 0. -1.
          1   -1    0    0  501    0 -0.00000000000E+00 -0.00000000000E+00 -0.38364806754E+03  0.38364806754E+03  0.00000000000E+00 0. -1.
         25    2    1    2    0    0  0.24767053628E+02 -0.13081796512E+03  0.23631051725E+03  0.29865492202E+03  0.12500141975E+03 0.  0.
          2    1    1    2  501    0  0.13998425058E+02  0.12619834983E+03 -0.34012272945E+03  0.36305020382E+03  0.00000000000E+00 0. -1.
          1    1    1    2  502    0 -0.38765478687E+02  0.46196152886E+01  0.42751899897E+03  0.42929779602E+03  0.00000000000E+00 0. -1.
         22    1    3    3    0    0 -0.34746505398E+02 -0.10462204296E+03  0.18689174906E+03  0.21698298868E+03  0.00000000000E+00 0.  1.
         22    1    3    3    0    0  0.59513559026E+02 -0.26195922159E+02  0.49418768197E+02  0.81671933342E+02  0.00000000000E+00 0.  1.
</event>
<event>
 7    1  0.6508013E-006  0.7149818E+02  0.7818608E-02  0.1423130E+00
          2   -1    0    0  502    0  0.00000000000E+00  0.00000000000E+00  0.11273389909E+04  0.11273389909E+04  0.00000000000E+00 0. -1.
          1   -1    0    0  501    0 -0.00000000000E+00 -0.00000000000E+00 -0.10631632523E+03  0.10631632523E+03  0.00000000000E+00 0. -1.
         25    2    1    2    0    0  0.53142041727E+02 -0.66450834092E+02  0.16763433704E+03  0.22575631035E+03  0.12499940303E+03 0.  0.
          2    1    1    2  501    0 -0.11972612830E+02  0.70159962097E+02 -0.60295370651E+02  0.93280734674E+02  0.00000000000E+00 0. -1.
          1    1    1    2  502    0 -0.41169428897E+02 -0.37091280047E+01  0.91368369923E+03  0.91461827106E+03  0.00000000000E+00 0. -1.
         22    1    3    3    0    0  0.32363722599E+02 -0.88192448286E+02  0.54316012832E+02  0.10851519583E+03  0.00000000000E+00 0. -1.
         22    1    3    3    0    0  0.20778319128E+02  0.21741614194E+02  0.11331832421E+03  0.11724111452E+03  0.00000000000E+00 0. -1.
</event>
<event>
 7    1  0.6508013E-006  0.1320558E+03  0.7818608E-02  0.1271542E+00
          2   -1    0    0  502    0  0.00000000000E+00  0.00000000000E+00  0.20613579918E+04  0.20613579918E+04  0.00000000000E+00 0. -1.
          1   -1    0    0  501    0 -0.00000000000E+00 -0.00000000000E+00 -0.58153791492E+02  0.58153791492E+02  0.00000000000E+00 0. -1.
         25    2    1    2    0    0 -0.16122389433E+03  0.13267095730E+03  0.12429514326E+04  0.12665496268E+04  0.12499986497E+03 0.  0.
          2    1    1    2  501    0  0.96227420940E+02 -0.82106613229E+02  0.46959511481E+02  0.13493112389E+03  0.00000000000E+00 0. -1.
          1    1    1    2  502    0  0.64996473395E+02 -0.50564344075E+02  0.71329325622E+03  0.71803103263E+03  0.00000000000E+00 0. -1.
         22    1    3    3    0    0 -0.48854453141E+01  0.70876139128E+02  0.48527689896E+03  0.49044975618E+03  0.00000000000E+00 0.  1.
         22    1    3    3    0    0 -0.15633844902E+03  0.61794818176E+02  0.75767453365E+03  0.77609987059E+03  0.00000000000E+00 0.  1.
</event>
<event>
 7    1  0.6508013E-006  0.9790680E+02  0.7818608E-02  0.1365533E+00
          2   -1    0    0  502    0  0.00000000000E+00  0.00000000000E+00  0.93600050166E+03  0.93600050166E+03  0.00000000000E+00 0. -1.
          1   -1    0    0  501    0 -0.00000000000E+00 -0.00000000000E+00 -0.85460214445E+03  0.85460214445E+03  0.00000000000E+00 0. -1.
         25    2    1    2    0    0 -0.14007809501E+03 -0.17400332422E+02 -0.38394993660E+02  0.19243025028E+03  0.12502232367E+03 0.  0.
          2    1    1    2  501    0  0.43206993334E+02  0.20492833992E+02 -0.73567683745E+03  0.73722941456E+03  0.00000000000E+00 0. -1.
          1    1    1    2  502    0  0.96871101677E+02 -0.30925015706E+01  0.85547018832E+03  0.86094298128E+03  0.00000000000E+00 0. -1.
         22    1    3    3    0    0 -0.90598387864E+02  0.39291277384E+02  0.15380985581E+02  0.99942218704E+02  0.00000000000E+00 0.  1.
         22    1    3    3    0    0 -0.49479707147E+02 -0.56691609806E+02 -0.53775979241E+02  0.92488031578E+02  0.00000000000E+00 0.  1.
</event>
<event>
 7    1  0.6508013E-006  0.1541454E+03  0.7818608E-02  0.1209606E+00
          2   -1    0    0  502    0  0.00000000000E+00  0.00000000000E+00  0.34967299004E+03  0.34967299004E+03  0.00000000000E+00 0. -1.
          1   -1    0    0  501    0 -0.00000000000E+00 -0.00000000000E+00 -0.44175470964E+03  0.44175470964E+03  0.00000000000E+00 0. -1.
         25    2    1    2    0    0  0.53041407166E+02  0.14373348560E+02 -0.45973928962E+02  0.14407960692E+03  0.12500138785E+03 0.  0.
          2    1    1    2  501    0 -0.71651974197E+02 -0.16739120874E+03 -0.29964507002E+03  0.35062941998E+03  0.00000000000E+00 0. -1.
          1    1    1    2  502    0  0.18610567031E+02  0.15301786018E+03  0.25353727938E+03  0.29671867278E+03  0.00000000000E+00 0. -1.
         22    1    3    3    0    0  0.19975227305E+02 -0.44706368699E+02  0.16784420480E+02  0.51762784691E+02  0.00000000000E+00 0.  1.
         22    1    3    3    0    0  0.33066179861E+02  0.59079717259E+02 -0.62758349442E+02  0.92316822230E+02  0.00000000000E+00 0.  1.
</event>
<event>
 7    1  0.6508013E-006  0.6724860E+02  0.7818608E-02  0.1425199E+00
          2   -1    0    0  502    0  0.00000000000E+00  0.00000000000E+00  0.37758909557E+03  0.37758909557E+03  0.00000000000E+00 0. -1.
          1   -1    0    0  501    0 -0.00000000000E+00 -0.00000000000E+00 -0.26690677727E+03  0.26690677727E+03  0.00000000000E+00 0. -1.
         25    2    1    2    0    0  0.10166289878E+03 -0.39862572744E+02 -0.49640727474E+02  0.17324271755E+03  0.12499787064E+03 0.  0.
          2    1    1    2  501    0 -0.40250267944E+02  0.15850452488E+02 -0.14891086183E+03  0.15506697161E+03  0.00000000000E+00 0. -1.
          1    1    1    2  502    0 -0.61412630840E+02  0.24012120256E+02  0.30923390759E+03  0.31618618368E+03  0.00000000000E+00 0. -1.
         22    1    3    3    0    0  0.44622326562E+02 -0.69315994112E+02  0.13108886377E+02  0.83472761842E+02  0.00000000000E+00 0. -1.
         22    1    3    3    0    0  0.57040572221E+02  0.29453421368E+02 -0.62749613851E+02  0.89769955709E+02  0.00000000000E+00 0. -1.
</event>
<event>
 7    1  0.6508013E-006  0.5814657E+02  0.7818608E-02  0.1497870E+00
          2   -1    0    0  502    0  0.00000000000E+00  0.00000000000E+00  0.23250487078E+04  0.23250487078E+04  0.00000000000E+00 0. -1.
          1   -1    0    0  501    0 -0.00000000000E+00 -0.00000000000E+00 -0.46686024403E+03  0.46686024403E+03  0.00000000000E+00 0. -1.
         25    2    1    2    0    0 -0.21299618166E+02  0.23422985972E+02  0.28134490479E+03  0.30948752212E+03  0.12500104356E+03 0.  0.
          2    1    1    2  501    0  0.50138115934E+02 -0.29796506357E+02 -0.45080277420E+03  0.45456001109E+03  0.00000000000E+00 0. -1.
          1    1    1    2  502    0 -0.28838497769E+02  0.63735203851E+01  0.20276463331E+04  0.20278614186E+04  0.00000000000E+00 0. -1.
         22    1    3    3    0    0  0.20683069399E+02 -0.38338369392E+01 -0.25719871245E+01  0.21192045282E+02  0.00000000000E+00 0. -1.
         22    1    3    3    0    0 -0.41982687565E+02  0.27256822911E+02  0.28391689192E+03  0.28829547684E+03  0.00000000000E+00 0. -1.
</event>
<event>
 7    1  0.6508013E-006  0.5559569E+02  0.7818608E-02  0.1441067E+00
          2   -1    0    0  502    0  0.00000000000E+00  0.00000000000E+00  0.10808240170E+04  0.10808240170E+04  0.00000000000E+00 0. -1.
          1   -1    0    0  501    0 -0.00000000000E+00 -0.00000000000E+00 -0.15335954069E+03  0.15335954069E+03  0.00000000000E+00 0. -1.
         25    2    1    2    0    0  0.57314425485E+02 -0.75090735329E+02  0.57801738200E+03  0.59887930881E+03  0.12501508204E+03 0.  0.
          2    1    1    2  501    0 -0.46473335033E+02  0.29954139590E+02 -0.13643354498E+03  0.14721118688E+03  0.00000000000E+00 0. -1.
          1    1    1    2  502    0 -0.10841090452E+02  0.45136595739E+02  0.48588063927E+03  0.48809306196E+03  0.00000000000E+00 0. -1.
         22    1    3    3    0    0  0.80600558068E+02 -0.54871871390E+02  0.54518104393E+03  0.55383187240E+03  0.00000000000E+00 0.  1.
         22    1    3    3    0    0 -0.23286132583E+02 -0.20218863940E+02  0.32836338069E+02  0.45047436414E+02  0.00000000000E+00 0.  1.
</event>
<event>
 7    1  0.6508013E-006  0.3082827E+03  0.7818608E-02  0.1245811E+00
          2   -1    0    0  502    0  0.00000000000E+00  0.00000000000E+00  0.11841959079E+04  0.11841959079E+04  0.00000000000E+00 0. -1.
          1   -1    0    0  501    0 -0.00000000000E+00 -0.00000000000E+00 -0.12974918974E+04  0.12974918974E+04  0.00000000000E+00 0. -1.
         25    2    1    2    0    0  0.33705883682E+03  0.15260730675E+02  0.68423750061E+02  0.36626255797E+03  0.12499960966E+03 0.  0.
          2    1    1    2  501    0 -0.33622163996E+02 -0.30581722190E+02 -0.11242336795E+04  0.11251520154E+04  0.00000000000E+00 0. -1.
          1    1    1    2  502    0 -0.30343667283E+03  0.15320991514E+02  0.94251393982E+03  0.99027323197E+03  0.00000000000E+00 0. -1.
         22    1    3    3    0    0  0.30026180560E+03 -0.12449014712E+02  0.92305475108E+02  0.31437625643E+03  0.00000000000E+00 0.  1.
         22    1    3    3    0    0  0.36797031224E+02  0.27709745388E+02 -0.23881725047E+02  0.51886301541E+02  0.00000000000E+00 0.  1.
</event>
<event>
 7    1  0.6508013E-006  0.9718218E+02  0.7818608E-02  0.1390740E+00
          2   -1    0    0  502    0  0.00000000000E+00  0.00000000000E+00  0.27863447202E+04  0.27863447202E+04  0.00000000000E+00 0. -1.
          1   -1    0    0  501    0 -0.00000000000E+00 -0.00000000000E+00 -0.68072016163E+03  0.68072016163E+03  0.00000000000E+00 0. -1.
         25    2    1    2    0    0 -0.70060170790E+02 -0.34870512349E+02 -0.78006440191E+02  0.16683347222E+03  0.12499609025E+03 0.  0.
          2    1    1    2  501    0 -0.27079066662E+02  0.28346399712E+02 -0.55674653710E+03  0.55812498672E+03  0.00000000000E+00 0. -1.
          1    1    1    2  502    0  0.97139237452E+02  0.65241126374E+01  0.27403775359E+04  0.27421064229E+04  0.00000000000E+00 0. -1.
         22    1    3    3    0    0  0.10583107717E+02 -0.43836612425E+02 -0.72660661416E+02  0.85517381130E+02  0.00000000000E+00 0. -1.
         22    1    3    3    0    0 -0.80643278507E+02  0.89661000752E+01 -0.53457787750E+01  0.81316091087E+02  0.00000000000E+00 0. -1.
</event>
<event>
 7    1  0.6508013E-006  0.9993949E+02  0.7818608E-02  0.1346734E+00
          2   -1    0    0  502    0  0.00000000000E+00  0.00000000000E+00  0.35941946655E+03  0.35941946655E+03  0.00000000000E+00 0. -1.
          1   -1    0    0  501    0 -0.00000000000E+00 -0.00000000000E+00 -0.69217013351E+03  0.69217013351E+03  0.00000000000E+00 0. -1.
         25    2    1    2    0    0  0.58973306577E+02 -0.17173577776E+02  0.94796427417E+02  0.16847619681E+03  0.12500033431E+03 0.  0.
          2    1    1    2  501    0  0.54881319745E+02 -0.19642558675E+01 -0.63944817578E+03  0.64180198431E+03  0.00000000000E+00 0. -1.
          1    1    1    2  502    0 -0.11385462632E+03  0.19137833644E+02  0.21190108141E+03  0.24131141894E+03  0.00000000000E+00 0. -1.
         22    1    3    3    0    0  0.72064618330E+02  0.13715480447E+02  0.60581926035E+01  0.73607916127E+02  0.00000000000E+00 0.  1.
         22    1    3    3    0    0 -0.13091311753E+02 -0.30889058224E+02  0.88738234813E+02  0.94868280680E+02  0.00000000000E+00 0.  1.
</event>
<event>
 7    1  0.6508013E-006  0.1088305E+03  0.7818608E-02  0.1342454E+00
          2   -1    0    0  502    0  0.00000000000E+00  0.00000000000E+00  0.80740952538E+03  0.80740952538E+03  0.00000000000E+00 0. -1.
          1   -1    0    0  501    0 -0.00000000000E+00 -0.00000000000E+00 -0.21456403631E+03  0.21456403631E+03  0.00000000000E+00 0. -1.
         25    2    1    2    0    0  0.15717979585E+02 -0.58155892203E+02  0.20109900212E+03  0.24432731084E+03  0.12500345390E+03 0.  0.
          2    1    1    2  501    0 -0.24383071600E+02  0.10975464756E+03 -0.17526445932E+03  0.20822643334E+03  0.00000000000E+00 0. -1.
          1    1    1    2  502    0  0.86650920153E+01 -0.51598755357E+02  0.56701094627E+03  0.56941981750E+03  0.00000000000E+00 0. -1.
         22    1    3    3    0    0 -0.25679036399E+01  0.33450511764E+02  0.10533330379E+03  0.11054698437E+03  0.00000000000E+00 0.  1.
         22    1    3    3    0    0  0.18285883225E+02 -0.91606403967E+02  0.95765698335E+02  0.13378032647E+03  0.00000000000E+00 0.  1.
</event>
<event>
 7    1  0.6508013E-006  0.7397330E+02  0.7818608E-02  0.1417597E+00
          2   -1    0    0  502    0  0.00000000000E+00  0.00000000000E+00  0.17677189205E+04  0.17677189205E+04  0.00000000000E+00 0. -1.
          1   -1    0    0  501    0 -0.00000000000E+00 -0.00000000000E+00 -0.23839187342E+03  0.23839187342E+03  0.00000000000E+00 0. -1.
         25    2    1    2    0    0 -0.57882971076E+02 -0.45217030868E+01  0.23955971026E+02  0.13989110141E+03  0.12499899026E+03 0.  0.
          2    1    1    2  501    0 -0.34739631689E+00 -0.41687420978E+02 -0.17718446440E+03  0.18202279026E+03  0.00000000000E+00 0. -1.
          1    1    1    2  502    0  0.58230367393E+02  0.46209124065E+02  0.16825555405E+04  0.16841969023E+04  0.00000000000E+00 0. -1.
         22    1    3    3    0    0 -0.53027636529E+02 -0.60320611627E+02  0.24196843634E+02  0.83880830139E+02  0.00000000000E+00 0.  1.
         22    1    3    3    0    0 -0.48553345466E+01  0.55798908540E+02 -0.24087260720E+00  0.56010271267E+02  0.00000000000E+00 0.  1.
</event>
<event>
 7    1  0.6508013E-006  0.9957181E+02  0.7818608E-02  0.1308525E+00
          2   -1    0    0  502    0  0.00000000000E+00  0.00000000000E+00  0.17656204429E+04  0.17656204429E+04  0.00000000000E+00 0. -1.
          1   -1    0    0  501    0 -0.00000000000E+00 -0.00000000000E+00 -0.82391094479E+02  0.82391094479E+02  0.00000000000E+00 0. -1.
         25    2    1    2    0    0  0.61505099294E+02  0.19675088884E+00  0.15520777225E+03  0.20856209768E+03  0.12500312025E+03 0.  0.
          2    1    1    2  501    0 -0.92266081788E+02  0.70653224423E+02  0.69502489933E+01  0.11641827146E+03  0.00000000000E+00 0. -1.
          1    1    1    2  502    0  0.30760982494E+02 -0.70849975311E+02  0.15210713272E+04  0.15230311682E+04  0.00000000000E+00 0. -1.
         22    1    3    3    0    0  0.79802396436E+02  0.42694681465E+02  0.82999378434E+02  0.12280128307E+03  0.00000000000E+00 0. -1.
         22    1    3    3    0    0 -0.18297297142E+02 -0.42497930576E+02  0.72208393811E+02  0.85760814611E+02  0.00000000000E+00 0. -1.
</event>
<event>
 7    1  0.6508013E-006  0.2734604E+03  0.7818608E-02  0.1335207E+00
          2   -1    0    0  502    0  0.00000000000E+00  0.00000000000E+00  0.25213504930E+04  0.25213504930E+04  0.00000000000E+00 0. -1.
          1   -1    0    0  501    0 -0.00000000000E+00 -0.00000000000E+00 -0.10149845371E+03  0.10149845371E+03  0.00000000000E+00 0. -1.
         25    2    1    2    0    0 -0.11004246802E+03  0.26192770446E+03  0.90837173884E+03  0.95993691034E+03  0.12499675505E+03 0.  0.
          2    1    1    2  501    0  0.12065102403E+03 -0.24245591997E+03  0.16682866074E+03  0.31807757666E+03  0.00000000000E+00 0. -1.
          1    1    1    2  502    0 -0.10608556016E+02 -0.19471784491E+02  0.13446516397E+04  0.13448344597E+04  0.00000000000E+00 0. -1.
         22    1    3    3    0    0 -0.86595140877E+02  0.22239082119E+03  0.86283996016E+03  0.89523694775E+03  0.00000000000E+00 0. -1.
         22    1    3    3    0    0 -0.23447327142E+02  0.39536883269E+02  0.45531778685E+02  0.64699962588E+02  0.00000000000E+00 0. -1.
</event>
<event>
 7    1  0.6508013E-006  0.8531040E+02  0.7818608E-02  0.1436834E+00
          2   -1    0    0  502    0  0.00000000000E+00  0.00000000000E+00  0.16632976137E+04  0.16632976137E+04  0.00000000000E+00 0. -1.
          1   -1    0    0  501    0 -0.00000000000E+00 -0.00000000000E+00 -0.21815399728E+03  0.21815399728E+03  0.00000000000E+00 0. -1.
         25    2    1    2    0    0  0.29679360012E+02 -0.10857534351E+03  0.10088629367E+02  0.16851277559E+03  0.12500122185E+03 0.  0.
          2    1    1    2  501    0 -0.25203202868E+02  0.77672660486E+02 -0.12677412288E+03  0.15079761886E+03  0.00000000000E+00 0. -1.
          1    1    1    2  502    0 -0.44761571435E+01  0.30902683023E+02  0.15618291099E+04  0.15621412165E+04  0.00000000000E+00 0. -1.
         22    1    3    3    0    0  0.11901985570E+02 -0.12822638522E+03 -0.17846860143E+02  0.13000835952E+03  0.00000000000E+00 0.  1.
         22    1    3    3    0    0  0.17777374442E+02  0.19651041714E+02  0.27935489510E+02  0.38504416067E+02  0.00000000000E+00 0.  1.
</event>
<event>
 7    1  0.6508013E-006  0.6691056E+02  0.7818608E-02  0.1417907E+00
          2   -1    0    0  502    0  0.00000000000E+00  0.00000000000E+00  0.31450704385E+04  0.31450704385E+04  0.00000000000E+00 0. -1.
          1   -1    0    0  501    0 -0.00000000000E+00 -0.00000000000E+00 -0.83987182383E+03  0.83987182383E+03  0.00000000000E+00 0. -1.
         25    2    1    2    0    0  0.35081433472E+02  0.27224544295E+01  0.11405409265E+03  0.17283325334E+03  0.12499951471E+03 0.  0.
          2    1    1    2  501    0  0.20214380948E+02 -0.41297348781E+02 -0.80945114816E+03  0.81075597652E+03  0.00000000000E+00 0. -1.
          1    1    1    2  502    0 -0.55295814420E+02  0.38574894352E+02  0.30005956702E+04  0.30013530324E+04  0.00000000000E+00 0. -1.
         22    1    3    3    0    0 -0.39254443137E+02  0.16872857833E+02  0.78170399296E+02  0.89085441928E+02  0.00000000000E+00 0. -1.
         22    1    3    3    0    0  0.74335876609E+02 -0.14150403404E+02  0.35883693356E+02  0.83747811414E+02  0.00000000000E+00 0. -1.
</event>
<event>
 7    1  0.6508013E-006  0.2234329E+03  0.7818608E-02  0.1194861E+00
          2   -1    0    0  502    0  0.00000000000E+00  0.00000000000E+00  0.73038493480E+02  0.73038493480E+02  0.00000000000E+00 0. -1.
          1   -1    0    0  501    0 -0.00000000000E+00 -0.00000000000E+00 -0.13059067069E+04  0.13059067069E+04  0.00000000000E+00 0. -1.
         25    2    1    2    0    0  0.10067456758E+03 -0.12783134139E+03 -0.51821346391E+03  0.55735770594E+03  0.12500479107E+03 0.  0.
          2    1    1    2  501    0  0.83979437662E+02 -0.66395512503E+02 -0.36896957985E+03  0.38418675262E+03  0.00000000000E+00 0. -1.
          1    1    1    2  502    0 -0.18465400525E+03  0.19422685390E+03 -0.34568516966E+03  0.43740074183E+03  0.00000000000E+00 0. -1.
         22    1    3    3    0    0  0.33329730323E+02 -0.11754216619E+03 -0.22187795908E+03  0.25329204584E+03  0.00000000000E+00 0.  1.
         22    1    3    3    0    0  0.67344837261E+02 -0.10289175198E+02 -0.29633550483E+03  0.30406566010E+03  0.00000000000E+00 0.  1.
</event>
<event>
 7    1  0.6508013E-006  0.4367931E+02  0.7818608E-02  0.1510140E+00
          2   -1    0    0  502    0  0.00000000000E+00  0.00000000000E+00  0.12792109418E+04  0.12792109418E+04  0.00000000000E+00 0. -1.
          1   -1    0    0  501    0 -0.00000000000E+00 -0.00000000000E+00 -0.94677269708E+03  0.94677269708E+03  0.00000000000E+00 0. -1.
         25    2    1    2    0    0 -0.52381776875E+02  0.54361155723E+02  0.61118459540E+01  0.14615841413E+03  0.12500376618E+03 0.  0.
          2    1    1    2  501    0  0.14367134434E+02 -0.33177133681E+02 -0.87598285237E+03  0.87672863213E+03  0.00000000000E+00 0. -1.
          1    1    1    2  502    0  0.38014642441E+02 -0.21184022042E+02  0.12023092512E+04  0.12030965927E+04  0.00000000000E+00 0. -1.
         22    1    3    3    0    0 -0.27996174058E+01  0.35791670064E+02  0.60439858757E+02  0.70298350124E+02  0.00000000000E+00 0.  1.
         22    1    3    3    0    0 -0.49582159469E+02  0.18569485659E+02 -0.54328012803E+02  0.75860064002E+02  0.00000000000E+00 0.  1.
</event>
<event>
 7    1  0.6508013E-006  0.3494106E+02  0.7818608E-02  0.1550683E+00
          2   -1    0    0  502    0  0.00000000000E+00  0.00000000000E+00  0.35245382891E+03  0.35245382891E+03  0.00000000000E+00 0. -1.
          1   -1    0    0  501    0 -0.00000000000E+00 -0.00000000000E+00 -0.44710218799E+03  0.44710218799E+03  0.00000000000E+00 0. -1.
         25    2    1    2    0    0 -0.14610769516E+02  0.52998195705E+01  0.48906954570E+01  0.12605727476E+03  0.12499981978E+03 0.  0.
          2    1    1    2  501    0  0.20454331991E+02  0.28795975138E+02 -0.38466435485E+03  0.38628260869E+03  0.00000000000E+00 0. -1.
          1    1    1    2  502    0 -0.58435624758E+01 -0.34095794708E+02  0.28512530031E+03  0.28721613346E+03  0.00000000000E+00 0. -1.
         22    1    3    3    0    0  0.41795094854E+02  0.39185833292E+02 -0.11060219653E+02  0.58349703884E+02  0.00000000000E+00 0. -1.
         22    1    3    3    0    0 -0.56405864369E+02 -0.33886013721E+02  0.15950915110E+02  0.67707570876E+02  0.00000000000E+00 0. -1.
</event>
<event>
 7    1  0.6508013E-006  0.6003045E+02  0.7818608E-02  0.1434114E+00
          2   -1    0    0  502    0  0.00000000000E+00  0.00000000000E+00  0.10675594201E+04  0.10675594201E+04  0.00000000000E+00 0. -1.
          1   -1    0    0  501    0 -0.00000000000E+00 -0.00000000000E+00 -0.21986339314E+03  0.21986339314E+03  0.00000000000E+00 0. -1.
         25    2    1    2    0    0  0.18113156155E+02  0.31069900135E+02 -0.15239981041E+03  0.20035992515E+03  0.12499988909E+03 0.  0.
          2    1    1    2  501    0  0.40947284589E+02 -0.19356853190E+02 -0.30567748572E+02  0.54642063773E+02  0.00000000000E+00 0. -1.
          1    1    1    2  502    0 -0.59060440744E+02 -0.11713046945E+02  0.10306635859E+04  0.10324208243E+04  0.00000000000E+00 0. -1.
         22    1    3    3    0    0  0.15762155618E+02  0.73415142579E+02 -0.51902468425E+02  0.91280309696E+02  0.00000000000E+00 0. -1.
         22    1    3    3    0    0  0.23510005369E+01 -0.42345242444E+02 -0.10049734198E+03  0.10907961545E+03  0.00000000000E+00 0. -1.
</event>
<event>
 7    1  0.6508013E-006  0.7523492E+02  0.7818608E-02  0.1432952E+00
          2   -1    0    0  502    0  0.00000000000E+00  0.00000000000E+00  0.17207951647E+04  0.17207951647E+04  0.00000000000E+00 0. -1.
          1   -1    0    0  501    0 -0.00000000000E+00 -0.00000000000E+00 -0.76888413207E+03  0.76888413207E+03  0.00000000000E+00 0. -1.
         25    2    1    2    0    0 -0.43841381048E+02 -0.49704477390E+02 -0.48958658816E+03  0.50961994376E+03  0.12499943201E+03 0.  0.
          2    1    1    2  501    0  0.76614568574E+02  0.33735417540E+02 -0.26257508905E+03  0.27559671243E+03  0.00000000000E+00 0. -1.
          1    1    1    2  502    0 -0.32773187527E+02  0.15969059850E+02  0.17040727099E+04  0.17044626406E+04  0.00000000000E+00 0. -1.
         22    1    3    3    0    0  0.20880773743E+01 -0.12604160857E+02  0.33116057814E+01  0.13198169225E+02  0.00000000000E+00 0. -1.
         22    1    3    3    0    0 -0.45929458422E+02 -0.37100316533E+02 -0.49289819394E+03  0.49642177453E+03  0.00000000000E+00 0. -1.
</event>
<event>
 7    1  0.6508013E-006  0.8894673E+02  0.7818608E-02  0.1309771E+00
          2   -1    0    0  502    0  0.00000000000E+00  0.00000000000E+00  0.11913989852E+04  0.11913989852E+04  0.00000000000E+00 0. -1.
          1   -1    0    0  501    0 -0.00000000000E+00 -0.00000000000E+00 -0.14064001466E+04  0.14064001466E+04  0.00000000000E+00 0. -1.
         25    2    1    2    0    0  0.36795820857E+02 -0.26098310773E+02  0.10464713708E+03  0.16914721650E+03  0.12499881316E+03 0.  0.
          2    1    1    2  501    0 -0.73875873676E+02 -0.50934452880E+02 -0.13709481391E+04  0.13738816409E+04  0.00000000000E+00 0. -1.
          1    1    1    2  502    0  0.37080052820E+02  0.77032763653E+02  0.10512998406E+04  0.10547702745E+04  0.00000000000E+00 0. -1.
         22    1    3    3    0    0  0.61583238960E+02  0.29593684973E+02  0.74683301793E+02  0.10122191995E+03  0.00000000000E+00 0. -1.
         22    1    3    3    0    0 -0.24787418103E+02 -0.55691995746E+02  0.29963835292E+02  0.67925296553E+02  0.00000000000E+00 0. -1.
</event>
<event>
 7    1  0.6508013E-006  0.4159148E+02  0.7818608E-02  0.1557495E+00
          2   -1    0    0  502    0  0.00000000000E+00  0.00000000000E+00  0.62520844696E+03  0.62520844696E+03  0.00000000000E+00 0. -1.
          1   -1    0    0  501    0 -0.00000000000E+00 -0.00000000000E+00 -0.32837775545E+02  0.32837775545E+02  0.00000000000E+00 0. -1.
         25    2    1    2    0    0 -0.13259273058E+02 -0.43506294122E+02  0.41131956988E+03  0.43229282168E+03  0.12499875662E+03 0.  0.
          2    1    1    2  501    0  0.27585859416E+02  0.36334842487E+01 -0.10374341573E+02  0.29695265794E+02  0.00000000000E+00 0. -1.
          1    1    1    2  502    0 -0.14326586358E+02  0.39872809873E+02  0.19142544311E+03  0.19605813504E+03  0.00000000000E+00 0. -1.
         22    1    3    3    0    0 -0.67651057051E+02 -0.28300651420E+02  0.18429600852E+03  0.19834971930E+03  0.00000000000E+00 0.  1.
         22    1    3    3    0    0  0.54391783993E+02 -0.15205642702E+02  0.22702356136E+03  0.23394310237E+03  0.00000000000E+00 0.  1.
</event>
<event>
 7    1  0.6508013E-006  0.8022541E+02  0.7818608E-02  0.1499724E+00
          2   -1    0    0  502    0  0.00000000000E+00  0.00000000000E+00  0.43688288607E+02  0.43688288607E+02  0.00000000000E+00 0. -1.
          1   -1    0    0  501    0 -0.00000000000E+00 -0.00000000000E+00 -0.93945001423E+03  0.93945001423E+03  0.00000000000E+00 0. -1.
         25    2    1    2    0    0  0.51874639285E+02 -0.35524519364E+02 -0.47089550102E+03  0.49124372099E+03  0.12499940339E+03 0.  0.
          2    1    1    2  501    0  0.21013731463E+02 -0.22598100722E+01 -0.40741217161E+03  0.40795999954E+03  0.00000000000E+00 0. -1.
          1    1    1    2  502    0 -0.72888370748E+02  0.37784329436E+02 -0.17454052990E+02  0.83934582307E+02  0.00000000000E+00 0. -1.
         22    1    3    3    0    0  0.58487954141E+02  0.19435612247E+02 -0.10967488304E+03  0.12580605619E+03  0.00000000000E+00 0.  1.
         22    1    3    3    0    0 -0.66133148563E+01 -0.54960131611E+02 -0.36122061798E+03  0.36543766480E+03  0.00000000000E+00 0.  1.
</event>
<event>
 7    1  0.6508013E-006  0.1069884E+03  0.7818608E-02  0.1322097E+00
          2   -1    0    0  502    0  0.00000000000E+00  0.00000000000E+00  0.83222288218E+02  0.83222288218E+02  0.00000000000E+00 0. -1.
          1   -1    0    0  501    0 -0.00000000000E+00 -0.00000000000E+00 -0.13577937804E+04  0.13577937804E+04  0.00000000000E+00 0. -1.
         25    2    1    2    0    0  0.39339340129E+02 -0.51293357313E+02 -0.47689872094E+03  0.49722833579E+03  0.12500014278E+03 0.  0.
          2    1    1    2  501    0  0.63170428213E+02  0.75522511373E+01 -0.82627782280E+03  0.82872346410E+03  0.00000000000E+00 0. -1.
          1    1    1    2  502    0 -0.10250976834E+03  0.43741106176E+02  0.28605051515E+02  0.11506426877E+03  0.00000000000E+00 0. -1.
         22    1    3    3    0    0  0.49733884234E+02 -0.97445342844E+01 -0.61785912402E+02  0.79911915012E+02  0.00000000000E+00 0.  1.
         22    1    3    3    0    0 -0.10394544105E+02 -0.41548823029E+02 -0.41511280853E+03  0.41731642078E+03  0.00000000000E+00 0.  1.
</event>
<event>
 7    1  0.6508013E-006  0.1261200E+03  0.7818608E-02  0.1314558E+00
          2   -1    0    0  502    0  0.00000000000E+00  0.00000000000E+00  0.16811049448E+04  0.16811049448E+04  0.00000000000E+00 0. -1.
          1   -1    0    0  501    0 -0.00000000000E+00 -0.00000000000E+00 -0.51703938924E+03  0.51703938924E+03  0.00000000000E+00 0. -1.
         25    2    1    2    0    0 -0.95672968268E+02 -0.19717313544E+02 -0.23302049294E+03  0.28189723348E+03  0.12500164319E+03 0.  0.
          2    1    1    2  501    0  0.15258755565E+03  0.99924921805E+01 -0.23650634291E+03  0.28163462549E+03  0.00000000000E+00 0. -1.
          1    1    1    2  502    0 -0.56914587379E+02  0.97248213632E+01  0.16335923914E+04  0.16346124751E+04  0.00000000000E+00 0. -1.
         22    1    3    3    0    0 -0.27847550320E+01 -0.15928459406E+02  0.11801515230E+02  0.20018652337E+02  0.00000000000E+00 0.  1.
         22    1    3    3    0    0 -0.92888213236E+02 -0.37888541375E+01 -0.24482200817E+03  0.26187858114E+03  0.00000000000E+00 0.  1.
</event>
<event>
 7    1  0.6508013E-006  0.5816345E+02  0.7818608E-02  0.1488068E+00
          2   -1    0    0  502    0  0.00000000000E+00  0.00000000000E+00  0.11111964499E+04  0.11111964499E+04  0.00000000000E+00 0. -1.
          1   -1    0    0  501    0 -0.00000000000E+00 -0.00000000000E+00 -0.70653904312E+03  0.70653904312E+03  0.00000000000E+00 0. -1.
         25    2    1    2    0    0 -0.68324996151E+01  0.27015420229E+02  0.60599980855E+01  0.12820951303E+03  0.12499775867E+03 0.  0.
          2    1    1    2  501    0  0.23469013083E+02 -0.53885822335E+02 -0.64388634062E+03  0.64656329625E+03  0.00000000000E+00 0. -1.
          1    1    1    2  502    0 -0.16636513468E+02  0.26870402106E+02  0.10424837493E+04  0.10429626837E+04  0.00000000000E+00 0. -1.
         22    1    3    3    0    0 -0.23361452134E+02  0.74005217481E+02 -0.26083535818E+01  0.77648780858E+02  0.00000000000E+00 0.  1.
         22    1    3    3    0    0  0.16528952518E+02 -0.46989797252E+02  0.86683516673E+01  0.50560732172E+02  0.00000000000E+00 0.  1.
</event>
<event>
 7    1  0.6508013E-006  0.5833923E+02  0.7818608E-02  0.1456863E+00
          2   -1    0    0  502    0  0.00000000000E+00  0.00000000000E+00  0.29404657739E+04  0.29404657739E+04  0.00000000000E+00 0. -1.
          1   -1    0    0  501    0 -0.00000000000E+00 -0.00000000000E+00 -0.14045248897E+04  0.14045248897E+04  0.00000000000E+00 0. -1.
         25    2    1    2    0    0 -0.28452035092E+01 -0.35136290730E+02  0.71575238413E+03  0.72744104725E+03  0.12500539076E+03 0.  0.
          2    1    1    2  501    0 -0.34722390438E+02  0.46914301991E+02 -0.13978968959E+04  0.13991148372E+04  0.00000000000E+00 0. -1.
          1    1    1    2  502    0  0.37567593947E+02 -0.11778011261E+02  0.22180853959E+04  0.22184347792E+04  0.00000000000E+00 0. -1.
         22    1    3    3    0    0  0.41415975400E+00  0.22000175430E+02  0.57606210335E+03  0.57648219935E+03  0.00000000000E+00 0. -1.
         22    1    3    3    0    0 -0.32593632632E+01 -0.57136466160E+02  0.13969028078E+03  0.15095884790E+03  0.00000000000E+00 0. -1.
</event>
<event>
 7    1  0.6508013E-006  0.1493996E+03  0.7818608E-02  0.1285897E+00
          2   -1    0    0  502    0  0.00000000000E+00  0.00000000000E+00  0.22359401557E+04  0.22359401557E+04  0.00000000000E+00 0. -1.
          1   -1    0    0  501    0 -0.00000000000E+00 -0.00000000000E+00 -0.14207473598E+03  0.14207473598E+03  0.00000000000E+00 0. -1.
         25    2    1    2    0    0  0.27416170455E+02 -0.14099288733E+03  0.65982518616E+03  0.68674724532E+03  0.12498744731E+03 0.  0.
          2    1    1    2  501    0  0.35841319158E+02  0.14627262564E+03 -0.83635606871E+02  0.17226490039E+03  0.00000000000E+00 0. -1.
          1    1    1    2  502    0 -0.63257489613E+02 -0.52797383094E+01  0.15176758405E+04  0.15190027460E+04  0.00000000000E+00 0. -1.
         22    1    3    3    0    0  0.56965967899E+02 -0.36480066977E+02  0.13736933391E+03  0.15312168588E+03  0.00000000000E+00 0.  1.
         22    1    3    3    0    0 -0.29549797444E+02 -0.10451282035E+03  0.52245585225E+03  0.53362555944E+03  0.00000000000E+00 0.  1.
</event>
<event>
 7    1  0.6508013E-006  0.6655589E+02  0.7818608E-02  0.1534921E+00
          2   -1    0    0  502    0  0.00000000000E+00  0.00000000000E+00  0.17943699070E+03  0.17943699070E+03  0.00000000000E+00 0. -1.
          1   -1    0    0  501    0 -0.00000000000E+00 -0.00000000000E+00 -0.54942015085E+03  0.54942015085E+03  0.00000000000E+00 0. -1.
         25    2    1    2    0    0  0.27877557392E+02  0.54146037361E+02 -0.14419685418E+03  0.20032155801E+03  0.12500816885E+03 0.  0.
          2    1    1    2  501    0 -0.11901894722E+02 -0.66369238535E+02 -0.37345997619E+03  0.37949820123E+03  0.00000000000E+00 0. -1.
          1    1    1    2  502    0 -0.15975662670E+02  0.12223201174E+02  0.14767367023E+03  0.14903738230E+03  0.00000000000E+00 0. -1.
         22    1    3    3    0    0  0.24987044400E+02 -0.17762938805E+01  0.16601459734E+02  0.30051889676E+02  0.00000000000E+00 0.  1.
         22    1    3    3    0    0  0.28905129926E+01  0.55922331242E+02 -0.16079831392E+03  0.17026966834E+03  0.00000000000E+00 0.  1.
</event>
<event>
 7    1  0.6508013E-006  0.9597669E+02  0.7818608E-02  0.1420069E+00
          2   -1    0    0  502    0  0.00000000000E+00  0.00000000000E+00  0.16323252730E+03  0.16323252730E+03  0.00000000000E+00 0. -1.
          1   -1    0    0  501    0 -0.00000000000E+00 -0.00000000000E+00 -0.88164463636E+03  0.88164463636E+03  0.00000000000E+00 0. -1.
         25    2    1    2    0    0 -0.11171769350E+03  0.29429288604E+02 -0.19682946490E+03  0.26021867512E+03  0.12499997823E+03 0.  0.
          2    1    1    2  501    0  0.94090569542E+02 -0.32925083658E+01 -0.64777850591E+03  0.65458450073E+03  0.00000000000E+00 0. -1.
          1    1    1    2  502    0  0.17627123962E+02 -0.26136780238E+02  0.12619586175E+03  0.13007398780E+03  0.00000000000E+00 0. -1.
         22    1    3    3    0    0 -0.10606814152E+03 -0.36834968845E+01 -0.20006390170E+03  0.22647203703E+03  0.00000000000E+00 0.  1.
         22    1    3    3    0    0 -0.56495519859E+01  0.33112785489E+02  0.32344368013E+01  0.33746638083E+02  0.00000000000E+00 0.  1.
</event>
<event>
 7    1  0.6508013E-006  0.7954248E+02  0.7818608E-02  0.1347315E+00
          2   -1    0    0  502    0  0.00000000000E+00  0.00000000000E+00  0.52553263390E+03  0.52553263390E+03  0.00000000000E+00 0. -1.
          1   -1    0    0  501    0 -0.00000000000E+00 -0.00000000000E+00 -0.23342371730E+03  0.23342371730E+03  0.00000000000E+00 0. -1.
         25    2    1    2    0    0 -0.22449363423E+02 -0.98031265126E+01 -0.70322654057E+02  0.14550282042E+03  0.12500287945E+03 0.  0.
          2    1    1    2  501    0 -0.50346344268E+02  0.46678530315E+02 -0.11237361759E+03  0.13168701342E+03  0.00000000000E+00 0. -1.
          1    1    1    2  502    0  0.72795707691E+02 -0.36875403803E+02  0.47480518824E+03  0.48176651736E+03  0.00000000000E+00 0. -1.
         22    1    3    3    0    0 -0.23596960259E+02  0.15087266910E+02  0.30639354301E+02  0.41511591011E+02  0.00000000000E+00 0.  1.
         22    1    3    3    0    0  0.11475968359E+01 -0.24890393423E+02 -0.10096200836E+03  0.10399122941E+03  0.00000000000E+00 0.  1.
</event>
<event>
 7    1  0.6508013E-006  0.1061032E+03  0.7818608E-02  0.1296785E+00
          2   -1    0    0  502    0  0.00000000000E+00  0.00000000000E+00  0.20174439272E+03  0.20174439272E+03  0.00000000000E+00 0. -1.
          1   -1    0    0  501    0 -0.00000000000E+00 -0.00000000000E+00 -0.19484007259E+04  0.19484007259E+04  0.00000000000E+00 0. -1.
         25    2    1    2    0    0  0.16378495504E+03  0.21977076740E+01 -0.50685236575E+03  0.54713377150E+03  0.12500280729E+03 0.  0.
          2    1    1    2  501    0 -0.68817967180E+02  0.42212107582E+02 -0.14050213002E+04  0.14073388465E+04  0.00000000000E+00 0. -1.
          1    1    1    2  502    0 -0.94966987860E+02 -0.44409815256E+02  0.16521733278E+03  0.19567250069E+03  0.00000000000E+00 0. -1.
         22    1    3    3    0    0  0.11657376590E+03  0.42165207261E+01 -0.47741721986E+03  0.49146151809E+03  0.00000000000E+00 0.  1.
         22    1    3    3    0    0  0.47211189139E+02 -0.20188130521E+01 -0.29435145893E+02  0.55672253411E+02  0.00000000000E+00 0.  1.
</event>
<event>
 7    1  0.6508013E-006  0.7735087E+02  0.7818608E-02  0.1465977E+00
          2   -1    0    0  502    0  0.00000000000E+00  0.00000000000E+00  0.15575976503E+04  0.15575976503E+04  0.00000000000E+00 0. -1.
          1   -1    0    0  501    0 -0.00000000000E+00 -0.00000000000E+00 -0.23557256177E+04  0.23557256177E+04  0.00000000000E+00 0. -1.
         25    2    1    2    0    0 -0.99386672829E+02  0.30758165914E+02  0.97892371263E+02  0.18981354669E+03  0.12498996219E+03 0.  0.
          2    1    1    2  501    0  0.71659800271E+02 -0.28805480619E+02 -0.23089826919E+04  0.23102739999E+04  0.00000000000E+00 0. -1.
          1    1    1    2  502    0  0.27726872558E+02 -0.19526852943E+01  0.14129623534E+04  0.14132357215E+04  0.00000000000E+00 0. -1.
         22    1    3    3    0    0  0.20650665792E+02  0.29622791769E+02  0.47390426673E+02  0.59580301527E+02  0.00000000000E+00 0. -1.
         22    1    3    3    0    0 -0.12003733862E+03  0.11353741449E+01  0.50501944590E+02  0.13023324516E+03  0.00000000000E+00 0. -1.
</event>
<event>
 7    1  0.6508013E-006  0.6768681E+02  0.7818608E-02  0.1473424E+00
          2   -1    0    0  502    0  0.00000000000E+00  0.00000000000E+00  0.19543454918E+04  0.19543454918E+04  0.00000000000E+00 0. -1.
          1   -1    0    0  501    0 -0.00000000000E+00 -0.00000000000E+00 -0.19601653941E+02  0.19601653941E+02  0.00000000000E+00 0. -1.
         25    2    1    2    0    0  0.37533734633E+02  0.63467254843E+02  0.11712126258E+04  0.11801700827E+04  0.12500214287E+03 0.  0.
          2    1    1    2  501    0 -0.55241219789E+02 -0.39110249629E+02  0.62587402524E+02  0.92186696136E+02  0.00000000000E+00 0. -1.
          1    1    1    2  502    0  0.17707485155E+02 -0.24357005215E+02  0.70094380953E+03  0.70159036685E+03  0.00000000000E+00 0. -1.
         22    1    3    3    0    0  0.63873279964E+02  0.61637720013E+02  0.46105441822E+03  0.46952122527E+03  0.00000000000E+00 0. -1.
         22    1    3    3    0    0 -0.26339545330E+02  0.18295348298E+01  0.71015820753E+03  0.71064885744E+03  0.00000000000E+00 0. -1.
</event>
<event>
 7    1  0.6508013E-006  0.7880106E+02  0.7818608E-02  0.1348726E+00
          2   -1    0    0  502    0  0.00000000000E+00  0.00000000000E+00  0.17387706181E+04  0.17387706181E+04  0.00000000000E+00 0. -1.
          1   -1    0    0  501    0 -0.00000000000E+00 -0.00000000000E+00 -0.28433133934E+03  0.28433133934E+03  0.00000000000E+00 0. -1.
         25    2    1    2    0    0  0.44839533874E+01 -0.12583395026E+03  0.49756730605E+03  0.52825432982E+03  0.12500049619E+03 0.  0.
          2    1    1    2  501    0 -0.37573388526E+02  0.57239694071E+02 -0.26342420815E+03  0.27217725023E+03  0.00000000000E+00 0. -1.
          1    1    1    2  502    0  0.33089435139E+02  0.68594256190E+02  0.12202961809E+04  0.12226703774E+04  0.00000000000E+00 0. -1.
         22    1    3    3    0    0  0.57529497917E+02 -0.90271507614E+02  0.23831664297E+03  0.26125353688E+03  0.00000000000E+00 0.  1.
         22    1    3    3    0    0 -0.53045544530E+02 -0.35562442647E+02  0.25925066308E+03  0.26700079293E+03  0.00000000000E+00 0.  1.
</event>
<event>
 7    1  0.6508013E-006  0.3798326E+02  0.7818608E-02  0.1553020E+00
          2   -1    0    0  502    0  0.00000000000E+00  0.00000000000E+00  0.73560801931E+03  0.73560801931E+03  0.00000000000E+00 0. -1.
          1   -1    0    0  501    0 -0.00000000000E+00 -0.00000000000E+00 -0.54297501475E+03  0.54297501475E+03  0.00000000000E+00 0. -1.
         25    2    1    2    0    0 -0.29345684208E+02 -0.33277845090E+02 -0.16419853116E+03  0.21108080608E+03  0.12500145961E+03 0.  0.
          2    1    1    2  501    0  0.30997184489E+02 -0.46856784558E+01 -0.35413552951E+03  0.35552039926E+03  0.00000000000E+00 0. -1.
          1    1    1    2  502    0 -0.16515002805E+01  0.37963523546E+02  0.71096706523E+03  0.71198182871E+03  0.00000000000E+00 0. -1.
         22    1    3    3    0    0 -0.57755038128E+02 -0.46740347862E+02 -0.42942928906E+02  0.85816080605E+02  0.00000000000E+00 0. -1.
         22    1    3    3    0    0  0.28409353920E+02  0.13462502772E+02 -0.12125560225E+03  0.12526472548E+03  0.00000000000E+00 0. -1.
</event>
<event>
 7    1  0.6508013E-006  0.3522254E+02  0.7818608E-02  0.1585214E+00
          2   -1    0    0  502    0  0.00000000000E+00  0.00000000000E+00  0.73529949823E+02  0.73529949823E+02  0.00000000000E+00 0. -1.
          1   -1    0    0  501    0 -0.00000000000E+00 -0.00000000000E+00 -0.69196301483E+03  0.69196301483E+03  0.00000000000E+00 0. -1.
         25    2    1    2    0    0  0.51975069055E+02  0.13369950930E+02 -0.12003555043E+03  0.18141756437E+03  0.12499454349E+03 0.  0.
          2    1    1    2  501    0 -0.25961924949E+02  0.94636624330E+01 -0.53382864710E+03  0.53454336299E+03  0.00000000000E+00 0. -1.
          1    1    1    2  502    0 -0.26013144107E+02 -0.22833613363E+02  0.35431132529E+02  0.49532037287E+02  0.00000000000E+00 0. -1.
         22    1    3    3    0    0  0.19958178936E+02  0.55350019959E+02 -0.11398611023E+03  0.12827621347E+03  0.00000000000E+00 0.  1.
         22    1    3    3    0    0  0.32016890120E+02 -0.41980069030E+02 -0.60494401976E+01  0.53141350899E+02  0.00000000000E+00 0.  1.
</event>
<event>
 7    1  0.6508013E-006  0.3706245E+02  0.7818608E-02  0.1584011E+00
          2   -1    0    0  502    0  0.00000000000E+00  0.00000000000E+00  0.29423361840E+03  0.29423361840E+03  0.00000000000E+00 0. -1.
          1   -1    0    0  501    0 -0.00000000000E+00 -0.00000000000E+00 -0.64486762276E+03  0.64486762276E+03  0.00000000000E+00 0. -1.
         25    2    1    2    0    0 -0.20980202521E+02 -0.43573987493E+02  0.85314027209E+02  0.15887775667E+03  0.12499918817E+03 0.  0.
          2    1    1    2  501    0  0.31595747630E+02  0.19341421629E+02 -0.60650074680E+03  0.60763108686E+03  0.00000000000E+00 0. -1.
          1    1    1    2  502    0 -0.10615545109E+02  0.24232565864E+02  0.17055271523E+03  0.17259239763E+03  0.00000000000E+00 0. -1.
         22    1    3    3    0    0 -0.16644152394E+02  0.37059377139E+02 -0.10562575666E+01  0.40639155047E+02  0.00000000000E+00 0. -1.
         22    1    3    3    0    0 -0.43360501262E+01 -0.80633364633E+02  0.86370284776E+02  0.11823860163E+03  0.00000000000E+00 0. -1.
</event>
<event>
 7    1  0.6508013E-006  0.5659134E+02  0.7818608E-02  0.1486113E+00
          2   -1    0    0  502    0  0.00000000000E+00  0.00000000000E+00  0.14742059196E+04  0.14742059196E+04  0.00000000000E+00 0. -1.
          1   -1    0    0  501    0 -0.00000000000E+00 -0.00000000000E+00 -0.52286267777E+02  0.52286267777E+02  0.00000000000E+00 0. -1.
         25    2    1    2    0    0 -0.34517018890E+02 -0.46678111335E+02  0.40584804750E+03  0.42861250892E+03  0.12500309784E+03 0.  0.
          2    1    1    2  501    0  0.53432265521E+02  0.19724209165E+02 -0.20687910365E+02  0.60597368434E+02  0.00000000000E+00 0. -1.
          1    1    1    2  502    0 -0.18915246631E+02  0.26953902169E+02  0.10367595146E+04  0.10372823100E+04  0.00000000000E+00 0. -1.
         22    1    3    3    0    0  0.19552710010E+02  0.32849762869E+02  0.76631051108E+02  0.85637219614E+02  0.00000000000E+00 0.  1.
         22    1    3    3    0    0 -0.54069728900E+02 -0.79527874204E+02  0.32921699640E+03  0.34297528931E+03  0.00000000000E+00 0.  1.
</event>
<event>
 7    1  0.6508013E-006  0.5910938E+02  0.7818608E-02  0.1448413E+00
          2   -1    0    0  502    0  0.00000000000E+00  0.00000000000E+00  0.20759408896E+02  0.20759408896E+02  0.00000000000E+00 0. -1.
          1   -1    0    0  501    0 -0.00000000000E+00 -0.00000000000E+00 -0.20350395515E+04  0.20350395515E+04  0.00000000000E+00 0. -1.
         25    2    1    2    0    0  0.19937921031E+02  0.16584903462E+02 -0.40464886140E+03  0.42432576079E+03  0.12505626941E+03 0.  0.
          2    1    1    2  501    0 -0.60631549281E+02 -0.92796217714E+01 -0.15785696648E+04  0.15797608942E+04  0.00000000000E+00 0. -1.
          1    1    1    2  502    0  0.40693628250E+02 -0.73052816903E+01 -0.31061616438E+02  0.51712305465E+02  0.00000000000E+00 0. -1.
         22    1    3    3    0    0 -0.10335989354E+02  0.65390301338E+02 -0.26886168960E+03  0.27689227566E+03  0.00000000000E+00 0.  1.
         22    1    3    3    0    0  0.30273910385E+02 -0.48805397876E+02 -0.13578717180E+03  0.14743348513E+03  0.00000000000E+00 0.  1.
</event>
<event>
 7    1  0.6508013E-006  0.3323192E+03  0.7818608E-02  0.1100184E+00
          2   -1    0    0  502    0  0.00000000000E+00  0.00000000000E+00  0.58547105456E+03  0.58547105456E+03  0.00000000000E+00 0. -1.
          1   -1    0    0  501    0 -0.00000000000E+00 -0.00000000000E+00 -0.24429517078E+04  0.24429517078E+04  0.00000000000E+00 0. -1.
         25    2    1    2    0    0  0.93753965087E+02  0.22839483582E+03 -0.12337804059E+04  0.12644340823E+04  0.12500180609E+03 0.  0.
          2    1    1    2  501    0  0.20873934115E+03 -0.77045094452E+02 -0.11318749796E+04  0.11535376148E+04  0.00000000000E+00 0. -1.
          1    1    1    2  502    0 -0.30249330624E+03 -0.15134974136E+03  0.50817473232E+03  0.61045106528E+03  0.00000000000E+00 0. -1.
         22    1    3    3    0    0  0.56285316036E+02  0.66387474009E+02 -0.69900505853E+03  0.70440287148E+03  0.00000000000E+00 0.  1.
         22    1    3    3    0    0  0.37468649051E+02  0.16200736181E+03 -0.53477534736E+03  0.56003121082E+03  0.00000000000E+00 0.  1.
</event>
<event>
 7    1  0.6508013E-006  0.1299428E+03  0.7818608E-02  0.1321760E+00
          2   -1    0    0  502    0  0.00000000000E+00  0.00000000000E+00  0.43009934077E+02  0.43009934077E+02  0.00000000000E+00 0. -1.
          1   -1    0    0  501    0 -0.00000000000E+00 -0.00000000000E+00 -0.18858530122E+04  0.18858530122E+04  0.00000000000E+00 0. -1.
         25    2    1    2    0    0  0.92274856961E+02 -0.23181227570E+02 -0.66943187377E+03  0.68761582089E+03  0.12499785991E+03 0.  0.
          2    1    1    2  501    0  0.45588028104E+02  0.26116776770E+02 -0.10637969430E+04  0.10650935594E+04  0.00000000000E+00 0. -1.
          1    1    1    2  502    0 -0.13786288506E+03 -0.29355492003E+01 -0.10961426142E+03  0.17615356606E+03  0.00000000000E+00 0. -1.
         22    1    3    3    0    0  0.32341505481E+02  0.16510546113E+02 -0.52528816711E+03  0.52654176436E+03  0.00000000000E+00 0. -1.
         22    1    3    3    0    0  0.59933351480E+02 -0.39691773683E+02 -0.14414370666E+03  0.16107405653E+03  0.00000000000E+00 0. -1.
</event>
<event>
 7    1  0.6508013E-006  0.9422111E+02  0.7818608E-02  0.1404709E+00
          2   -1    0    0  502    0  0.00000000000E+00  0.00000000000E+00  0.14075420209E+04  0.14075420209E+04  0.00000000000E+00 0. -1.
          1   -1    0    0  501    0 -0.00000000000E+00 -0.00000000000E+00 -0.11427999840E+04  0.11427999840E+04  0.00000000000E+00 0. -1.
         25    2    1    2    0    0  0.74070581517E+02 -0.49256293738E+02 -0.72625053148E+02  0.16973783436E+03  0.12499560213E+03 0.  0.
          2    1    1    2  501    0 -0.92951361915E+02  0.18385638329E+02 -0.10191797370E+04  0.10235747768E+04  0.00000000000E+00 0. -1.
          1    1    1    2  502    0  0.18880780398E+02  0.30870655409E+02  0.13565468271E+04  0.13570293937E+04  0.00000000000E+00 0. -1.
         22    1    3    3    0    0  0.44221876472E+02 -0.71730642421E+02  0.41341544562E+01  0.84367948025E+02  0.00000000000E+00 0. -1.
         22    1    3    3    0    0  0.29848705045E+02  0.22474348683E+02 -0.76759207604E+02  0.85369886339E+02  0.00000000000E+00 0. -1.
</event>
<event>
 7    1  0.6508013E-006  0.6693170E+02  0.7818608E-02  0.1487264E+00
          2   -1    0    0  502    0  0.00000000000E+00  0.00000000000E+00  0.13494324757E+04  0.13494324757E+04  0.00000000000E+00 0. -1.
          1   -1    0    0  501    0 -0.00000000000E+00 -0.00000000000E+00 -0.19858147976E+02  0.19858147976E+02  0.00000000000E+00 0. -1.
         25    2    1    2    0    0  0.48765975885E+02 -0.21597844744E+02  0.32930358450E+03  0.35624588415E+03  0.12500276758E+03 0.  0.
          2    1    1    2  501    0 -0.11272450119E+01 -0.27595168762E+02  0.31647693709E+02  0.42004053821E+02  0.00000000000E+00 0. -1.
          1    1    1    2  502    0 -0.47638730873E+02  0.49193013507E+02  0.96862304956E+03  0.97104068576E+03  0.00000000000E+00 0. -1.
         22    1    3    3    0    0  0.68689567806E+02 -0.24844079039E+02  0.32798087054E+03  0.33601627406E+03  0.00000000000E+00 0. -1.
         22    1    3    3    0    0 -0.19923591921E+02  0.32462342949E+01  0.13227139600E+01  0.20229610089E+02  0.00000000000E+00 0. -1.
</event>
<event>
 7    1  0.8743882E-006  0.7488416E+02  0.7818608E-02  0.1423916E+00
          2   -1    0    0  502    0  0.00000000000E+00  0.00000000000E+00  0.12579925563E+04  0.12579925563E+04  0.00000000000E+00 0. -1.
          1   -1    0    0  501    0 -0.00000000000E+00 -0.00000000000E+00 -0.99642712411E+03  0.99642712411E+03  0.00000000000E+00 0. -1.
         25    2    1    2    0    0 -0.92065770966E+02 -0.15336767614E+02 -0.10430431197E+03  0.18764245803E+03  0.12497591742E+03 0.  0.
          2    1    1    2  501    0  0.19622668179E+02  0.33970293968E+02 -0.84885025804E+03  0.84975631246E+03  0.00000000000E+00 0. -1.
          1    1    1    2  502    0  0.72443102787E+02 -0.18633526353E+02  0.12147200022E+04  0.12170209099E+04  0.00000000000E+00 0. -1.
         22    1    3    3    0    0 -0.59556760772E+02 -0.69215715412E+02 -0.47782309912E+02  0.10305810087E+03  0.00000000000E+00 0. -1.
         22    1    3    3    0    0 -0.32509010194E+02  0.53878947797E+02 -0.56522002059E+02  0.84584357161E+02  0.00000000000E+00 0. -1.
</event>
<event>
 7    1  0.6508013E-006  0.1954453E+03  0.7818608E-02  0.1309215E+00
          2   -1    0    0  502    0  0.00000000000E+00  0.00000000000E+00  0.12711881232E+04  0.12711881232E+04  0.00000000000E+00 0. -1.
          1   -1    0    0  501    0 -0.00000000000E+00 -0.00000000000E+00 -0.60908715535E+02  0.60908715535E+02  0.00000000000E+00 0. -1.
         25    2    1    2    0    0  0.14841432465E+03  0.10401250461E+03  0.53451885943E+03  0.57808486290E+03  0.12500513886E+03 0.  0.
          2    1    1    2  501    0 -0.18363462776E+03 -0.87021530203E+02  0.23151258001E+03  0.30804625941E+03  0.00000000000E+00 0. -1.
          1    1    1    2  502    0  0.35220303113E+02 -0.16990974410E+02  0.44424796825E+03  0.44596571646E+03  0.00000000000E+00 0. -1.
         22    1    3    3    0    0 -0.14042705164E+02 -0.72099231436E+01  0.12383112345E+02  0.20062951713E+02  0.00000000000E+00 0. -1.
         22    1    3    3    0    0  0.16245702982E+03  0.11122242776E+03  0.52213574709E+03  0.55802191118E+03  0.00000000000E+00 0. -1.
</event>
<event>
 7    1  0.6508013E-006  0.1066334E+03  0.7818608E-02  0.1373238E+00
          2   -1    0    0  502    0  0.00000000000E+00  0.00000000000E+00  0.16895315891E+04  0.16895315891E+04  0.00000000000E+00 0. -1.
          1   -1    0    0  501    0 -0.00000000000E+00 -0.00000000000E+00 -0.70277332887E+02  0.70277332887E+02  0.00000000000E+00 0. -1.
         25    2    1    2    0    0 -0.47463644926E+02  0.57927724093E+02  0.81742067094E+03  0.83030805141E+03  0.12500595249E+03 0.  0.
          2    1    1    2  501    0  0.44530638946E+02 -0.99014836093E+02 -0.16775597478E+02  0.10985597955E+03  0.00000000000E+00 0. -1.
          1    1    1    2  502    0  0.29330059797E+01  0.41087112001E+02  0.81860918275E+03  0.81964489103E+03  0.00000000000E+00 0. -1.
         22    1    3    3    0    0 -0.50121680608E+02  0.15665733421E+02  0.74165584707E+03  0.74351260484E+03  0.00000000000E+00 0.  1.
         22    1    3    3    0    0  0.26580356819E+01  0.42261990672E+02  0.75764823870E+02  0.86795446570E+02  0.00000000000E+00 0.  1.
</event>
<event>
 7    1  0.6508013E-006  0.1139494E+03  0.7818608E-02  0.1254263E+00
          2   -1    0    0  502    0  0.00000000000E+00  0.00000000000E+00  0.15760882733E+04  0.15760882733E+04  0.00000000000E+00 0. -1.
          1   -1    0    0  501    0 -0.00000000000E+00 -0.00000000000E+00 -0.26698426448E+04  0.26698426448E+04  0.00000000000E+00 0. -1.
         25    2    1    2    0    0  0.14590163525E+03  0.40464045576E+02 -0.89225071393E+02  0.21566419662E+03  0.12500122474E+03 0.  0.
          2    1    1    2  501    0 -0.49530280520E+02 -0.10157452475E+03 -0.25139750202E+04  0.25165136668E+04  0.00000000000E+00 0. -1.
          1    1    1    2  502    0 -0.96371354726E+02  0.61110479179E+02  0.15094457201E+04  0.15137530547E+04  0.00000000000E+00 0. -1.
         22    1    3    3    0    0  0.47072617531E+02  0.44355593018E+02 -0.96854488473E+02  0.11646476674E+03  0.00000000000E+00 0. -1.
         22    1    3    3    0    0  0.98829017714E+02 -0.38915474424E+01  0.76294170799E+01  0.99199429881E+02  0.00000000000E+00 0. -1.
</event>
<event>
 7    1  0.6508013E-006  0.8128118E+02  0.7818608E-02  0.1480634E+00
          2   -1    0    0  502    0  0.00000000000E+00  0.00000000000E+00  0.29359041418E+03  0.29359041418E+03  0.00000000000E+00 0. -1.
          1   -1    0    0  501    0 -0.00000000000E+00 -0.00000000000E+00 -0.18708749906E+03  0.18708749906E+03  0.00000000000E+00 0. -1.
         25    2    1    2    0    0  0.31331266312E+02 -0.92803425581E+02  0.83629632351E+01  0.15903155970E+03  0.12500789486E+03 0.  0.
          2    1    1    2  501    0 -0.12986869697E+02  0.77598367114E+02 -0.97090730429E+02  0.12496709686E+03  0.00000000000E+00 0. -1.
          1    1    1    2  502    0 -0.18344396615E+02  0.15205058467E+02  0.19523068231E+03  0.19667925668E+03  0.00000000000E+00 0. -1.
         22    1    3    3    0    0 -0.45329399030E+02 -0.30525431176E+02  0.22795695099E+02  0.59213174885E+02  0.00000000000E+00 0.  1.
         22    1    3    3    0    0  0.76660665342E+02 -0.62277994405E+02 -0.14432731864E+02  0.99818384814E+02  0.00000000000E+00 0.  1.
</event>
<event>
 7    1  0.6508013E-006  0.1330818E+03  0.7818608E-02  0.1298921E+00
          2   -1    0    0  502    0  0.00000000000E+00  0.00000000000E+00  0.88098725175E+03  0.88098725175E+03  0.00000000000E+00 0. -1.
          1   -1    0    0  501    0 -0.00000000000E+00 -0.00000000000E+00 -0.97056620788E+02  0.97056620788E+02  0.00000000000E+00 0. -1.
         25    2    1    2    0    0  0.71314134033E+02  0.82940277495E+02  0.29418289736E+03  0.33783874488E+03  0.12500658022E+03 0.  0.
          2    1    1    2  501    0 -0.27174469309E+02  0.56957014506E+02 -0.50228994720E+02  0.80656712022E+02  0.00000000000E+00 0. -1.
          1    1    1    2  502    0 -0.44139664723E+02 -0.13989729200E+03  0.53997672832E+03  0.55954841563E+03  0.00000000000E+00 0. -1.
         22    1    3    3    0    0  0.28277704620E+02 -0.28781531439E+02  0.39725079900E+02  0.56622319836E+02  0.00000000000E+00 0. -1.
         22    1    3    3    0    0  0.43036429413E+02  0.11172180893E+03  0.25445781746E+03  0.28121642504E+03  0.00000000000E+00 0. -1.
</event>
<event>
 7    1  0.6508013E-006  0.5335418E+02  0.7818608E-02  0.1457921E+00
          2   -1    0    0  502    0  0.00000000000E+00  0.00000000000E+00  0.23479246940E+04  0.23479246940E+04  0.00000000000E+00 0. -1.
          1   -1    0    0  501    0 -0.00000000000E+00 -0.00000000000E+00 -0.10076407746E+02  0.10076407746E+02  0.00000000000E+00 0. -1.
         25    2    1    2    0    0 -0.86278964694E+02  0.21005700783E+02  0.10175447070E+04  0.10290340298E+04  0.12501401714E+03 0.  0.
          2    1    1    2  501    0  0.48419833567E+02 -0.12183423661E+01  0.14476900459E+03  0.15265657317E+03  0.00000000000E+00 0. -1.
          1    1    1    2  502    0  0.37859131127E+02 -0.19787358417E+02  0.11755345747E+04  0.11763104988E+04  0.00000000000E+00 0. -1.
         22    1    3    3    0    0 -0.11146012115E+03  0.17732013641E+02  0.58763424594E+03  0.59837428915E+03  0.00000000000E+00 0.  1.
         22    1    3    3    0    0  0.25181156456E+02  0.32736871418E+01  0.42991046106E+03  0.43065974063E+03  0.00000000000E+00 0.  1.
</event>
<event>
 7    1  0.6508013E-006  0.3230082E+02  0.7818608E-02  0.1586668E+00
          2   -1    0    0  502    0  0.00000000000E+00  0.00000000000E+00  0.80419288358E+02  0.80419288358E+02  0.00000000000E+00 0. -1.
          1   -1    0    0  501    0 -0.00000000000E+00 -0.00000000000E+00 -0.29859748259E+03  0.29859748259E+03  0.00000000000E+00 0. -1.
         25    2    1    2    0    0  0.40838380147E+02  0.32429146419E+02 -0.51194091877E+02  0.14479323100E+03  0.12499928747E+03 0.  0.
          2    1    1    2  501    0 -0.11074997120E+02 -0.29965476054E+02 -0.19238366491E+03  0.19501810132E+03  0.00000000000E+00 0. -1.
          1    1    1    2  502    0 -0.29763383027E+02 -0.24636703654E+01  0.25399562554E+02  0.39205438639E+02  0.00000000000E+00 0. -1.
         22    1    3    3    0    0  0.16291690603E+02  0.67980495465E+02 -0.68854291545E+02  0.98120744038E+02  0.00000000000E+00 0.  1.
         22    1    3    3    0    0  0.24546689544E+02 -0.35551349046E+02  0.17660199667E+02  0.46672486958E+02  0.00000000000E+00 0.  1.
</event>
<event>
 7    1  0.6508013E-006  0.7251725E+02  0.7818608E-02  0.1380082E+00
          2   -1    0    0  502    0  0.00000000000E+00  0.00000000000E+00  0.75020519801E+03  0.75020519801E+03  0.00000000000E+00 0. -1.
          1   -1    0    0  501    0 -0.00000000000E+00 -0.00000000000E+00 -0.22658152655E+03  0.22658152655E+03  0.00000000000E+00 0. -1.
         25    2    1    2    0    0  0.39210873507E+02  0.54351552191E+02 -0.31545794807E+02  0.14530481403E+03  0.12500707174E+03 0.  0.
          2    1    1    2  501    0  0.33479702509E+02 -0.46460305010E+02 -0.13019256921E+03  0.14223064191E+03  0.00000000000E+00 0. -1.
          1    1    1    2  502    0 -0.72690576016E+02 -0.78912471812E+01  0.68536203548E+03  0.68925126862E+03  0.00000000000E+00 0. -1.
         22    1    3    3    0    0  0.56992138014E+02  0.82011767578E+01  0.31137976558E+02  0.65459427738E+02  0.00000000000E+00 0.  1.
         22    1    3    3    0    0 -0.17781264507E+02  0.46150375433E+02 -0.62683771365E+02  0.79845386295E+02  0.00000000000E+00 0.  1.
</event>
<event>
 7    1  0.6508013E-006  0.7917093E+02  0.7818608E-02  0.1461800E+00
          2   -1    0    0  502    0  0.00000000000E+00  0.00000000000E+00  0.10586753827E+03  0.10586753827E+03  0.00000000000E+00 0. -1.
          1   -1    0    0  501    0 -0.00000000000E+00 -0.00000000000E+00 -0.13979741288E+04  0.13979741288E+04  0.00000000000E+00 0. -1.
         25    2    1    2    0    0 -0.10540360055E+01 -0.75691413339E+02  0.15664322986E+00  0.14613657460E+03  0.12500229139E+03 0.  0.
          2    1    1    2  501    0 -0.27848449456E+02 -0.27966403580E+01 -0.12711273332E+04  0.12714354308E+04  0.00000000000E+00 0. -1.
          1    1    1    2  502    0  0.28902485462E+02  0.78488053697E+02 -0.21135900533E+02  0.86269661703E+02  0.00000000000E+00 0. -1.
         22    1    3    3    0    0  0.17430060733E+02  0.28782459014E+02  0.18602585392E+02  0.38448577963E+02  0.00000000000E+00 0.  1.
         22    1    3    3    0    0 -0.18484096739E+02 -0.10447387235E+03 -0.18445942162E+02  0.10768799663E+03  0.00000000000E+00 0.  1.
</event>
<event>
 7    1  0.6508013E-006  0.6327951E+02  0.7818608E-02  0.1436035E+00
          2   -1    0    0  502    0  0.00000000000E+00  0.00000000000E+00  0.32888214805E+02  0.32888214805E+02  0.00000000000E+00 0. -1.
          1   -1    0    0  501    0 -0.00000000000E+00 -0.00000000000E+00 -0.54338556445E+03  0.54338556445E+03  0.00000000000E+00 0. -1.
         25    2    1    2    0    0 -0.10596632719E+02  0.55317886882E+01 -0.31485365989E+03  0.33897234741E+03  0.12500614324E+03 0.  0.
          2    1    1    2  501    0  0.24970315534E+01 -0.68290796174E+02 -0.12500233847E+03  0.14246210946E+03  0.00000000000E+00 0. -1.
          1    1    1    2  502    0  0.80996011656E+01  0.62759007486E+02 -0.70641351276E+02  0.94839322381E+02  0.00000000000E+00 0. -1.
         22    1    3    3    0    0  0.47048697846E+02  0.27792280563E+02 -0.21248348562E+03  0.21939740766E+03  0.00000000000E+00 0. -1.
         22    1    3    3    0    0 -0.57645330565E+02 -0.22260491875E+02 -0.10237017427E+03  0.11957493974E+03  0.00000000000E+00 0. -1.
</event>
<event>
 7    1  0.6508013E-006  0.2109890E+03  0.7818608E-02  0.1306755E+00
          2   -1    0    0  502    0  0.00000000000E+00  0.00000000000E+00  0.29873617238E+04  0.29873617238E+04  0.00000000000E+00 0. -1.
          1   -1    0    0  501    0 -0.00000000000E+00 -0.00000000000E+00 -0.27265612618E+03  0.27265612618E+03  0.00000000000E+00 0. -1.
         25    2    1    2    0    0 -0.35635117412E+02 -0.17232336242E+03  0.84155555296E+02  0.23167242739E+03  0.12499901319E+03 0.  0.
          2    1    1    2  501    0 -0.42538376599E+01 -0.36798892534E+02 -0.19313030824E+03  0.19665088250E+03  0.00000000000E+00 0. -1.
          1    1    1    2  502    0  0.39888955072E+02  0.20912225496E+03  0.28236803506E+04  0.28316945401E+04  0.00000000000E+00 0. -1.
         22    1    3    3    0    0 -0.11736292336E+02  0.14296375627E+02  0.31110678261E+02  0.36193938936E+02  0.00000000000E+00 0. -1.
         22    1    3    3    0    0 -0.23898825077E+02 -0.18661973805E+03  0.53044877035E+02  0.19547848846E+03  0.00000000000E+00 0. -1.
</event>
<event>
 7    1  0.6508013E-006  0.7918906E+02  0.7818608E-02  0.1335566E+00
          2   -1    0    0  502    0  0.00000000000E+00  0.00000000000E+00  0.26660970578E+03  0.26660970578E+03  0.00000000000E+00 0. -1.
          1   -1    0    0  501    0 -0.00000000000E+00 -0.00000000000E+00 -0.29553117221E+04  0.29553117221E+04  0.00000000000E+00 0. -1.
         25    2    1    2    0    0 -0.64088134476E+01  0.22360004824E+02 -0.21287929088E+02  0.12890564019E+03  0.12498978135E+03 0.  0.
          2    1    1    2  501    0  0.74678735449E+02  0.26343745421E+02 -0.28713855806E+04  0.28724773383E+04  0.00000000000E+00 0. -1.
          1    1    1    2  502    0 -0.68269922002E+02 -0.48703750245E+02  0.20397149339E+03  0.22053844938E+03  0.00000000000E+00 0. -1.
         22    1    3    3    0    0  0.50021329374E+02 -0.61745142289E+01  0.19072206243E+02  0.53888839932E+02  0.00000000000E+00 0. -1.
         22    1    3    3    0    0 -0.56430142821E+02  0.28534519053E+02 -0.40360135331E+02  0.75016800254E+02  0.00000000000E+00 0. -1.
</event>
<event>
 7    1  0.6508013E-006  0.8718133E+02  0.7818608E-02  0.1437443E+00
          2   -1    0    0  502    0  0.00000000000E+00  0.00000000000E+00  0.87309481929E+03  0.87309481929E+03  0.00000000000E+00 0. -1.
          1   -1    0    0  501    0 -0.00000000000E+00 -0.00000000000E+00 -0.69262526165E+02  0.69262526165E+02  0.00000000000E+00 0. -1.
         25    2    1    2    0    0  0.50101392164E+02 -0.10072866088E+03  0.34763311413E+03  0.38617392272E+03  0.12500041570E+03 0.  0.
          2    1    1    2  501    0 -0.27768671173E+02  0.80079819631E+02 -0.13217688885E+02  0.85782188771E+02  0.00000000000E+00 0. -1.
          1    1    1    2  502    0 -0.22332720991E+02  0.20648841246E+02  0.46941686787E+03  0.47040123396E+03  0.00000000000E+00 0. -1.
         22    1    3    3    0    0  0.18353832996E+02  0.86069563650E+01  0.19346004834E+03  0.19451923604E+03  0.00000000000E+00 0.  1.
         22    1    3    3    0    0  0.31747559167E+02 -0.10933561724E+03  0.15417306579E+03  0.19165468668E+03  0.00000000000E+00 0.  1.
</event>
<event>
 7    1  0.6508013E-006  0.7640844E+02  0.7818608E-02  0.1342971E+00
          2   -1    0    0  502    0  0.00000000000E+00  0.00000000000E+00  0.16527785977E+04  0.16527785977E+04  0.00000000000E+00 0. -1.
          1   -1    0    0  501    0 -0.00000000000E+00 -0.00000000000E+00 -0.22550685369E+04  0.22550685369E+04  0.00000000000E+00 0. -1.
         25    2    1    2    0    0 -0.85437550975E+02  0.48464871667E+02  0.15828795314E+01  0.15898391461E+03  0.12499984278E+03 0.  0.
          2    1    1    2  501    0  0.72442697913E+02  0.24578714725E+02 -0.21748200677E+04  0.21761650638E+04  0.00000000000E+00 0. -1.
          1    1    1    2  502    0  0.12994853062E+02 -0.73043586392E+02  0.15709472490E+04  0.15726981563E+04  0.00000000000E+00 0. -1.
         22    1    3    3    0    0  0.66276416672E+01  0.59044461867E+02  0.23269012489E+02  0.63809255234E+02  0.00000000000E+00 0. -1.
         22    1    3    3    0    0 -0.92065192642E+02 -0.10579590200E+02 -0.21686132958E+02  0.95174659378E+02  0.00000000000E+00 0. -1.
</event>
<event>
 7    1  0.6508013E-006  0.1286160E+03  0.7818608E-02  0.1336710E+00
          2   -1    0    0  502    0  0.00000000000E+00  0.00000000000E+00  0.82336108166E+03  0.82336108166E+03  0.00000000000E+00 0. -1.
          1   -1    0    0  501    0 -0.00000000000E+00 -0.00000000000E+00 -0.13523345972E+03  0.13523345972E+03  0.00000000000E+00 0. -1.
         25    2    1    2    0    0 -0.93738560106E+02  0.41456036144E+02  0.32748353096E+03  0.36520447860E+03  0.12499331002E+03 0.  0.
          2    1    1    2  501    0  0.98572312433E+02 -0.87736663879E+02 -0.77329688849E+02  0.15295131168E+03  0.00000000000E+00 0. -1.
          1    1    1    2  502    0 -0.48337523266E+01  0.46280627735E+02  0.43797377982E+03  0.44043875111E+03  0.00000000000E+00 0. -1.
         22    1    3    3    0    0 -0.16758604571E+01  0.65642940288E+02  0.15174384239E+03  0.16534206307E+03  0.00000000000E+00 0. -1.
         22    1    3    3    0    0 -0.92062699649E+02 -0.24186904144E+02  0.17573968857E+03  0.19986241552E+03  0.00000000000E+00 0. -1.
</event>
<event>
 7    1  0.6508013E-006  0.9491482E+02  0.7818608E-02  0.1359797E+00
          2   -1    0    0  502    0  0.00000000000E+00  0.00000000000E+00  0.26390049456E+02  0.26390049456E+02  0.00000000000E+00 0. -1.
          1   -1    0    0  501    0 -0.00000000000E+00 -0.00000000000E+00 -0.15650309602E+04  0.15650309602E+04  0.00000000000E+00 0. -1.
         25    2    1    2    0    0  0.29760353171E+02  0.47196938956E+02 -0.11408430414E+04  0.11490257500E+04  0.12499639681E+03 0.  0.
          2    1    1    2  501    0 -0.11056449588E+02  0.50559129489E+02 -0.29426214443E+03  0.29877864766E+03  0.00000000000E+00 0. -1.
          1    1    1    2  502    0 -0.18703903582E+02 -0.97756068446E+02 -0.10353572489E+03  0.14361661205E+03  0.00000000000E+00 0. -1.
         22    1    3    3    0    0 -0.60010236204E+01 -0.39176345108E+02 -0.47525687945E+03  0.47690659439E+03  0.00000000000E+00 0.  1.
         22    1    3    3    0    0  0.35761376791E+02  0.86373284065E+02 -0.66558616198E+03  0.67211915557E+03  0.00000000000E+00 0.  1.
</event>
<event>
 7    1  0.6508013E-006  0.1208525E+03  0.7818608E-02  0.1384480E+00
          2   -1    0    0  502    0  0.00000000000E+00  0.00000000000E+00  0.58014605444E+02  0.58014605444E+02  0.00000000000E+00 0. -1.
          1   -1    0    0  501    0 -0.00000000000E+00 -0.00000000000E+00 -0.21807280605E+04  0.21807280605E+04  0.00000000000E+00 0. -1.
         25    2    1    2    0    0  0.21607608108E+02  0.10214958432E+03 -0.10615399604E+04  0.10739664288E+04  0.12504149863E+03 0.  0.
          2    1    1    2  501    0  0.32299304317E+02  0.74877948804E+01 -0.10403053190E+04  0.10408335452E+04  0.00000000000E+00 0. -1.
          1    1    1    2  502    0 -0.53906912425E+02 -0.10963737920E+03 -0.20868175670E+02  0.12394269192E+03  0.00000000000E+00 0. -1.
         22    1    3    3    0    0  0.64695860778E+02  0.27115082341E+02 -0.62574831730E+03  0.62966795909E+03  0.00000000000E+00 0.  1.
         22    1    3    3    0    0 -0.43088252670E+02  0.75034501977E+02 -0.43579164306E+03  0.44429846968E+03  0.00000000000E+00 0.  1.
</event>
<event>
 7    1  0.6508013E-006  0.4171855E+02  0.7818608E-02  0.1511964E+00
          2   -1    0    0  502    0  0.00000000000E+00  0.00000000000E+00  0.81124530638E+03  0.81124530638E+03  0.00000000000E+00 0. -1.
          1   -1    0    0  501    0 -0.00000000000E+00 -0.00000000000E+00 -0.17881401202E+03  0.17881401202E+03  0.00000000000E+00 0. -1.
         25    2    1    2    0    0 -0.27895613378E+02 -0.71586891895E+02  0.36461473605E+03  0.39302882936E+03  0.12499962652E+03 0.  0.
          2    1    1    2  501    0  0.12391608302E+02  0.35275927621E+02 -0.16156635954E+03  0.16583615878E+03  0.00000000000E+00 0. -1.
          1    1    1    2  502    0  0.15504005076E+02  0.36310964274E+02  0.42938291785E+03  0.43119433026E+03  0.00000000000E+00 0. -1.
         22    1    3    3    0    0 -0.48895195864E+02 -0.57834061013E+02  0.35952606777E+03  0.36741599339E+03  0.00000000000E+00 0.  1.
         22    1    3    3    0    0  0.20999582486E+02 -0.13752830882E+02  0.50886682794E+01  0.25612835976E+02  0.00000000000E+00 0.  1.
</event>
<event>
 7    1  0.6508013E-006  0.5694809E+02  0.7818608E-02  0.1492096E+00
          2   -1    0    0  502    0  0.00000000000E+00  0.00000000000E+00  0.13161186683E+04  0.13161186683E+04  0.00000000000E+00 0. -1.
          1   -1    0    0  501    0 -0.00000000000E+00 -0.00000000000E+00 -0.47871553922E+03  0.47871553922E+03  0.00000000000E+00 0. -1.
         25    2    1    2    0    0  0.18031700194E+02 -0.22685425153E+02  0.21010967810E+03  0.24619493503E+03  0.12500439384E+03 0.  0.
          2    1    1    2  501    0 -0.48471662496E+02  0.30329634734E+02 -0.45867107543E+03  0.46222131522E+03  0.00000000000E+00 0. -1.
          1    1    1    2  502    0  0.30439962302E+02 -0.76442095803E+01  0.10859645264E+04  0.10864179573E+04  0.00000000000E+00 0. -1.
         22    1    3    3    0    0 -0.19213635723E+02 -0.47452605132E+02  0.19067257186E+03  0.19742579161E+03  0.00000000000E+00 0.  1.
         22    1    3    3    0    0  0.37245335917E+02  0.24767179978E+02  0.19437106234E+02  0.48769143425E+02  0.00000000000E+00 0.  1.
</event>
<event>
 7    1  0.6508013E-006  0.6834096E+02  0.7818608E-02  0.1398766E+00
          2   -1    0    0  502    0  0.00000000000E+00  0.00000000000E+00  0.13395142202E+04  0.13395142202E+04  0.00000000000E+00 0. -1.
          1   -1    0    0  501    0 -0.00000000000E+00 -0.00000000000E+00 -0.46320410874E+03  0.46320410874E+03  0.00000000000E+00 0. -1.
         25    2    1    2    0    0 -0.54765552047E+02  0.94069106966E+02  0.39230336135E+03  0.42588272598E+03  0.12500362548E+03 0.  0.
          2    1    1    2  501    0  0.97735316524E+01 -0.67428254530E+02 -0.44307379595E+03  0.44828169725E+03  0.00000000000E+00 0. -1.
          1    1    1    2  502    0  0.44992020395E+02 -0.26640852436E+02  0.92708054605E+03  0.92855390570E+03  0.00000000000E+00 0. -1.
         22    1    3    3    0    0  0.33231881510E+02 -0.39322626589E+01  0.65975727623E+02  0.73977140210E+02  0.00000000000E+00 0.  1.
         22    1    3    3    0    0 -0.87997433558E+02  0.98001369625E+02  0.32632763373E+03  0.35190558577E+03  0.00000000000E+00 0.  1.
</event>
<event>
 7    1  0.6508013E-006  0.5190535E+02  0.7818608E-02  0.1445188E+00
          2   -1    0    0  502    0  0.00000000000E+00  0.00000000000E+00  0.18483232088E+03  0.18483232088E+03  0.00000000000E+00 0. -1.
          1   -1    0    0  501    0 -0.00000000000E+00 -0.00000000000E+00 -0.21551241196E+04  0.21551241196E+04  0.00000000000E+00 0. -1.
         25    2    1    2    0    0 -0.22937852467E+02 -0.37784002409E+01  0.88926868400E+02  0.15515058846E+03  0.12499318298E+03 0.  0.
          2    1    1    2  501    0 -0.36915219436E+02 -0.31022576738E+02 -0.21025671039E+04  0.21031199585E+04  0.00000000000E+00 0. -1.
          1    1    1    2  502    0  0.59853071903E+02  0.34800976979E+02  0.43348436798E+02  0.81685893443E+02  0.00000000000E+00 0. -1.
         22    1    3    3    0    0  0.93787205314E+01 -0.48018796976E+02 -0.20298466556E+01  0.48968209475E+02  0.00000000000E+00 0.  1.
         22    1    3    3    0    0 -0.32316572998E+02  0.44240396735E+02  0.90956715055E+02  0.10618237899E+03  0.00000000000E+00 0.  1.
</event>
<event>
 7    1  0.6508013E-006  0.1856001E+03  0.7818608E-02  0.1272312E+00
          2   -1    0    0  502    0  0.00000000000E+00  0.00000000000E+00  0.10245092208E+04  0.10245092208E+04  0.00000000000E+00 0. -1.
          1   -1    0    0  501    0 -0.00000000000E+00 -0.00000000000E+00 -0.12664347144E+03  0.12664347144E+03  0.00000000000E+00 0. -1.
         25    2    1    2    0    0  0.57618042166E+02  0.14278109163E+03  0.19036024992E+03  0.27489578239E+03  0.12499755004E+03 0.  0.
          2    1    1    2  501    0 -0.42444050445E+02 -0.19892500654E+03  0.41344604259E+02  0.20756211588E+03  0.00000000000E+00 0. -1.
          1    1    1    2  502    0 -0.15173991722E+02  0.56143914913E+02  0.66616089520E+03  0.66869479399E+03  0.00000000000E+00 0. -1.
         22    1    3    3    0    0  0.62046356035E+02  0.40749516631E+02  0.14551660668E+03  0.16335653101E+03  0.00000000000E+00 0. -1.
         22    1    3    3    0    0 -0.44283138690E+01  0.10203157500E+03  0.44843643247E+02  0.11153925139E+03  0.00000000000E+00 0. -1.
</event>
<event>
 7    1  0.6508013E-006  0.1353167E+03  0.7818608E-02  0.1355269E+00
          2   -1    0    0  502    0  0.00000000000E+00  0.00000000000E+00  0.89398303311E+03  0.89398303311E+03  0.00000000000E+00 0. -1.
          1   -1    0    0  501    0 -0.00000000000E+00 -0.00000000000E+00 -0.59298824643E+03  0.59298824643E+03  0.00000000000E+00 0. -1.
         25    2    1    2    0    0 -0.84049096015E+02  0.64034729295E+02  0.31848918380E+03  0.35808404368E+03  0.12499650014E+03 0.  0.
          2    1    1    2  501    0  0.12163985652E+03 -0.60978099735E+02 -0.56445706228E+03  0.58062583348E+03  0.00000000000E+00 0. -1.
          1    1    1    2  502    0 -0.37590760509E+02 -0.30566295605E+01  0.54696266516E+03  0.54826140238E+03  0.00000000000E+00 0. -1.
         22    1    3    3    0    0  0.22142216536E+02 -0.18515785037E+02  0.65010313592E+02  0.71129831449E+02  0.00000000000E+00 0.  1.
         22    1    3    3    0    0 -0.10619131255E+03  0.82550514332E+02  0.25347887021E+03  0.28695421223E+03  0.00000000000E+00 0.  1.
</event>
<event>
 7    1  0.6508013E-006  0.6342135E+02  0.7818608E-02  0.1441426E+00
          2   -1    0    0  502    0  0.00000000000E+00  0.00000000000E+00  0.60302704633E+03  0.60302704633E+03  0.00000000000E+00 0. -1.
          1   -1    0    0  501    0 -0.00000000000E+00 -0.00000000000E+00 -0.73101832673E+03  0.73101832673E+03  0.00000000000E+00 0. -1.
         25    2    1    2    0    0 -0.10012556349E+03  0.26321647067E+02 -0.11151308686E+03  0.19692093688E+03  0.12499891709E+03 0.  0.
          2    1    1    2  501    0  0.39008073926E+02 -0.11197829790E+02 -0.57431433652E+03  0.57574645318E+03  0.00000000000E+00 0. -1.
          1    1    1    2  502    0  0.61117489564E+02 -0.15123817277E+02  0.55783614298E+03  0.56137798299E+03  0.00000000000E+00 0. -1.
         22    1    3    3    0    0 -0.67881797451E+02  0.36196915241E+02  0.35566285789E+01  0.77011717972E+02  0.00000000000E+00 0. -1.
         22    1    3    3    0    0 -0.32243766039E+02 -0.98752681742E+01 -0.11506971543E+03  0.11990921891E+03  0.00000000000E+00 0. -1.
</event>
<event>
 7    1  0.6508013E-006  0.4713603E+02  0.7818608E-02  0.1553887E+00
          2   -1    0    0  502    0  0.00000000000E+00  0.00000000000E+00  0.16305488939E+04  0.16305488939E+04  0.00000000000E+00 0. -1.
          1   -1    0    0  501    0 -0.00000000000E+00 -0.00000000000E+00 -0.10492041157E+04  0.10492041157E+04  0.00000000000E+00 0. -1.
         25    2    1    2    0    0  0.13681286479E+02  0.31000599266E+02 -0.41205256900E+03  0.43192617007E+03  0.12499872806E+03 0.  0.
          2    1    1    2  501    0 -0.38765062722E+02 -0.29606551633E+02 -0.62616882992E+03  0.62806582581E+03  0.00000000000E+00 0. -1.
          1    1    1    2  502    0  0.25083776242E+02 -0.13940476330E+01  0.16195661772E+04  0.16197610137E+04  0.00000000000E+00 0. -1.
         22    1    3    3    0    0 -0.40856323538E+02  0.55474525327E+02 -0.19598756932E+03  0.20774452932E+03  0.00000000000E+00 0. -1.
         22    1    3    3    0    0  0.54537610017E+02 -0.24473926062E+02 -0.21606499968E+03  0.22418164075E+03  0.00000000000E+00 0. -1.
</event>
<event>
 7    1  0.6508013E-006  0.1135165E+03  0.7818608E-02  0.1344793E+00
          2   -1    0    0  502    0  0.00000000000E+00  0.00000000000E+00  0.10382379190E+04  0.10382379190E+04  0.00000000000E+00 0. -1.
          1   -1    0    0  501    0 -0.00000000000E+00 -0.00000000000E+00 -0.73582055520E+03  0.73582055520E+03  0.00000000000E+00 0. -1.
         25    2    1    2    0    0 -0.15496662717E+03 -0.25992376387E+02  0.21902641933E+03  0.29713357787E+03  0.12500212625E+03 0.  0.
          2    1    1    2  501    0  0.49143147067E+02 -0.13055350932E+01 -0.69206340629E+03  0.69380725829E+03  0.00000000000E+00 0. -1.
          1    1    1    2  502    0  0.10582348010E+03  0.27297911480E+02  0.77545435080E+03  0.78311763809E+03  0.00000000000E+00 0. -1.
         22    1    3    3    0    0 -0.73733548615E+02 -0.56211606901E+02  0.17916714608E+03  0.20173558728E+03  0.00000000000E+00 0.  1.
         22    1    3    3    0    0 -0.81233078550E+02  0.30219230514E+02  0.39859273248E+02  0.95397990584E+02  0.00000000000E+00 0.  1.
</event>
<event>
 7    1  0.6508013E-006  0.1607691E+03  0.7818608E-02  0.1348048E+00
          2   -1    0    0  502    0  0.00000000000E+00  0.00000000000E+00  0.28181958447E+04  0.28181958447E+04  0.00000000000E+00 0. -1.
          1   -1    0    0  501    0 -0.00000000000E+00 -0.00000000000E+00 -0.10994666021E+03  0.10994666021E+03  0.00000000000E+00 0. -1.
         25    2    1    2    0    0 -0.12499748242E+03 -0.50324108385E+02  0.62659210895E+03  0.65299301834E+03  0.12500129803E+03 0.  0.
          2    1    1    2  501    0 -0.25824105938E+02 -0.21738620385E+02 -0.90489701630E+02  0.96580733922E+02  0.00000000000E+00 0. -1.
          1    1    1    2  502    0  0.15082158836E+03  0.72062728770E+02  0.21721467771E+04  0.21785687526E+04  0.00000000000E+00 0. -1.
         22    1    3    3    0    0 -0.55775631726E+01 -0.14934949716E+02  0.19584287565E+01  0.16062296759E+02  0.00000000000E+00 0.  1.
         22    1    3    3    0    0 -0.11941991925E+03 -0.35389158669E+02  0.62463368020E+03  0.63693072159E+03  0.00000000000E+00 0.  1.
</event>
<event>
 7    1  0.6508013E-006  0.4305578E+02  0.7818608E-02  0.1522433E+00
          2   -1    0    0  502    0  0.00000000000E+00  0.00000000000E+00  0.16912501135E+04  0.16912501135E+04  0.00000000000E+00 0. -1.
          1   -1    0    0  501    0 -0.00000000000E+00 -0.00000000000E+00 -0.19275015245E+02  0.19275015245E+02  0.00000000000E+00 0. -1.
         25    2    1    2    0    0 -0.42760727596E+02  0.46464140561E+02  0.32909552785E+03  0.35765445276E+03  0.12500177976E+03 0.  0.
          2    1    1    2  501    0  0.10001600805E+02 -0.38264653834E+02  0.77205793827E+02  0.86746471699E+02  0.00000000000E+00 0. -1.
          1    1    1    2  502    0  0.32759126791E+02 -0.81994867275E+01  0.12656737766E+04  0.12661242043E+04  0.00000000000E+00 0. -1.
         22    1    3    3    0    0  0.38303613067E+02  0.28413229433E+02  0.63744720088E+02  0.79610726161E+02  0.00000000000E+00 0.  1.
         22    1    3    3    0    0 -0.81064340664E+02  0.18050911128E+02  0.26535080777E+03  0.27804372660E+03  0.00000000000E+00 0.  1.
</event>
<event>
 7    1  0.6508013E-006  0.7003275E+02  0.7818608E-02  0.1400735E+00
          2   -1    0    0  502    0  0.00000000000E+00  0.00000000000E+00  0.28004490387E+04  0.28004490387E+04  0.00000000000E+00 0. -1.
          1   -1    0    0  501    0 -0.00000000000E+00 -0.00000000000E+00 -0.36253868080E+03  0.36253868080E+03  0.00000000000E+00 0. -1.
         25    2    1    2    0    0  0.77156253968E+01 -0.44616079774E+02  0.14352707612E+04  0.14414151478E+04  0.12500137955E+03 0.  0.
          2    1    1    2  501    0 -0.57721358812E+02  0.39819845235E+02 -0.35557780891E+03  0.36242648017E+03  0.00000000000E+00 0. -1.
          1    1    1    2  502    0  0.50005733415E+02  0.47962345385E+01  0.13582174055E+04  0.13591460915E+04  0.00000000000E+00 0. -1.
         22    1    3    3    0    0  0.14060545173E+01 -0.24238972498E+02  0.46294511829E+02  0.52275104998E+02  0.00000000000E+00 0. -1.
         22    1    3    3    0    0  0.63095708795E+01 -0.20377107276E+02  0.13889762494E+04  0.13891400428E+04  0.00000000000E+00 0. -1.
</event>
<event>
 7    1  0.6508013E-006  0.4096384E+02  0.7818608E-02  0.1550051E+00
          2   -1    0    0  502    0  0.00000000000E+00  0.00000000000E+00  0.36943394692E+03  0.36943394692E+03  0.00000000000E+00 0. -1.
          1   -1    0    0  501    0 -0.00000000000E+00 -0.00000000000E+00 -0.66226517152E+03  0.66226517152E+03  0.00000000000E+00 0. -1.
         25    2    1    2    0    0 -0.40875979753E+02 -0.50466373234E+02 -0.33131625329E+03  0.36001835710E+03  0.12500022882E+03 0.  0.
          2    1    1    2  501    0  0.60695607071E+01  0.28998559431E+02 -0.31472240752E+03  0.31611382414E+03  0.00000000000E+00 0. -1.
          1    1    1    2  502    0  0.34806419046E+02  0.21467813803E+02  0.35320743621E+03  0.35556693720E+03  0.00000000000E+00 0. -1.
         22    1    3    3    0    0 -0.42144548653E+02 -0.81988389587E+02 -0.30595284394E+03  0.31953935865E+03  0.00000000000E+00 0.  1.
         22    1    3    3    0    0  0.12685688995E+01  0.31522016353E+02 -0.25363409352E+02  0.40478998456E+02  0.00000000000E+00 0.  1.
</event>
<event>
 7    1  0.6508013E-006  0.5834010E+02  0.7818608E-02  0.1554070E+00
          2   -1    0    0  502    0  0.00000000000E+00  0.00000000000E+00  0.13830575246E+03  0.13830575246E+03  0.00000000000E+00 0. -1.
          1   -1    0    0  501    0 -0.00000000000E+00 -0.00000000000E+00 -0.23598857988E+03  0.23598857988E+03  0.00000000000E+00 0. -1.
         25    2    1    2    0    0  0.71095267143E+02 -0.25811348638E+02  0.46039684629E+02  0.15318742955E+03  0.12500389307E+03 0.  0.
          2    1    1    2  501    0 -0.56321179573E+02  0.11927568767E+02 -0.17478025089E+03  0.18401760314E+03  0.00000000000E+00 0. -1.
          1    1    1    2  502    0 -0.14774087571E+02  0.13883779870E+02  0.31057738833E+02  0.37089299649E+02  0.00000000000E+00 0. -1.
         22    1    3    3    0    0 -0.35761438170E+02  0.14174521432E+01  0.12912466190E+02  0.38047620342E+02  0.00000000000E+00 0.  1.
         22    1    3    3    0    0  0.10685670531E+03 -0.27228800781E+02  0.33127218438E+02  0.11513980921E+03  0.00000000000E+00 0.  1.
</event>
<event>
 7    1  0.6508013E-006  0.1486561E+03  0.7818608E-02  0.1411856E+00
          2   -1    0    0  502    0  0.00000000000E+00  0.00000000000E+00  0.17562288716E+04  0.17562288716E+04  0.00000000000E+00 0. -1.
          1   -1    0    0  501    0 -0.00000000000E+00 -0.00000000000E+00 -0.14110741683E+03  0.14110741683E+03  0.00000000000E+00 0. -1.
         25    2    1    2    0    0  0.86950092420E+02  0.13776275863E+03  0.82402125505E+03  0.84922033294E+03  0.12500099546E+03 0.  0.
          2    1    1    2  501    0 -0.91229361739E+02 -0.11650037772E+03 -0.85734358372E+02  0.17101320024E+03  0.00000000000E+00 0. -1.
          1    1    1    2  502    0  0.42792693185E+01 -0.21262380912E+02  0.87683455811E+03  0.87710275526E+03  0.00000000000E+00 0. -1.
         22    1    3    3    0    0 -0.29751315897E+02  0.16340140097E+02  0.91615129915E+02  0.97700936563E+02  0.00000000000E+00 0.  1.
         22    1    3    3    0    0  0.11670140832E+03  0.12142261853E+03  0.73240612514E+03  0.75151939638E+03  0.00000000000E+00 0.  1.
</event>
<event>
 7    1  0.6508013E-006  0.1892685E+03  0.7818608E-02  0.1216682E+00
          2   -1    0    0  502    0  0.00000000000E+00  0.00000000000E+00  0.18680330722E+03  0.18680330722E+03  0.00000000000E+00 0. -1.
          1   -1    0    0  501    0 -0.00000000000E+00 -0.00000000000E+00 -0.13200897010E+04  0.13200897010E+04  0.00000000000E+00 0. -1.
         25    2    1    2    0    0 -0.10811402753E+03 -0.66144408395E+02 -0.38234737562E+03  0.42175672618E+03  0.12500197888E+03 0.  0.
          2    1    1    2  501    0 -0.40781253818E+01 -0.99861262025E+02 -0.85399557474E+03  0.85982401946E+03  0.00000000000E+00 0. -1.
          1    1    1    2  502    0  0.11219215291E+03  0.16600567042E+03  0.10305655662E+03  0.22531226254E+03  0.00000000000E+00 0. -1.
         22    1    3    3    0    0  0.26476287829E+02 -0.22086087809E+02 -0.52700941986E+02  0.62977602194E+02  0.00000000000E+00 0. -1.
         22    1    3    3    0    0 -0.13459031536E+03 -0.44058320587E+02 -0.32964643364E+03  0.35877912399E+03  0.00000000000E+00 0. -1.
</event>
<event>
 7    1  0.6508013E-006  0.9269267E+02  0.7818608E-02  0.1427265E+00
          2   -1    0    0  502    0  0.00000000000E+00  0.00000000000E+00  0.11444891521E+04  0.11444891521E+04  0.00000000000E+00 0. -1.
          1   -1    0    0  501    0 -0.00000000000E+00 -0.00000000000E+00 -0.70253766117E+03  0.70253766117E+03  0.00000000000E+00 0. -1.
         25    2    1    2    0    0 -0.87084895308E+02 -0.68845397151E+02 -0.34847975597E+03  0.38650357827E+03  0.12499363183E+03 0.  0.
          2    1    1    2  501    0  0.56231276881E+02  0.67266796752E+02 -0.32909363545E+03  0.34057216466E+03  0.00000000000E+00 0. -1.
          1    1    1    2  502    0  0.30853618427E+02  0.15786003991E+01  0.11195248824E+04  0.11199510704E+04  0.00000000000E+00 0. -1.
         22    1    3    3    0    0 -0.74428170260E+02 -0.10086991430E+03 -0.31247806925E+03  0.33668506932E+03  0.00000000000E+00 0.  1.
         22    1    3    3    0    0 -0.12656725048E+02  0.32024517154E+02 -0.36001686716E+02  0.49818508953E+02  0.00000000000E+00 0.  1.
</event>
<event>
 7    1  0.6508013E-006  0.3010557E+02  0.7818608E-02  0.1613712E+00
          2   -1    0    0  502    0  0.00000000000E+00  0.00000000000E+00  0.18884158560E+04  0.18884158560E+04  0.00000000000E+00 0. -1.
          1   -1    0    0  501    0 -0.00000000000E+00 -0.00000000000E+00 -0.20072413111E+02  0.20072413111E+02  0.00000000000E+00 0. -1.
         25    2    1    2    0    0 -0.71206970656E+01  0.42701215172E+00  0.20217399139E+03  0.23780206488E+03  0.12499845038E+03 0.  0.
          2    1    1    2  501    0 -0.10416525569E+02 -0.25161149135E+02  0.85629096678E+02  0.89855047875E+02  0.00000000000E+00 0. -1.
          1    1    1    2  502    0  0.17537222634E+02  0.24734136983E+02  0.15805403548E+04  0.15808311564E+04  0.00000000000E+00 0. -1.
         22    1    3    3    0    0  0.21937565484E+02  0.42042760627E+02  0.17273386216E+03  0.17912520102E+03  0.00000000000E+00 0. -1.
         22    1    3    3    0    0 -0.29058262550E+02 -0.41615748475E+02  0.29440129227E+02  0.58676863860E+02  0.00000000000E+00 0. -1.
</event>
<event>
 7    1  0.6508013E-006  0.1122723E+03  0.7818608E-02  0.1314511E+00
          2   -1    0    0  502    0  0.00000000000E+00  0.00000000000E+00  0.80261773049E+03  0.80261773049E+03  0.00000000000E+00 0. -1.
          1   -1    0    0  501    0 -0.00000000000E+00 -0.00000000000E+00 -0.71777522435E+03  0.71777522435E+03  0.00000000000E+00 0. -1.
         25    2    1    2    0    0  0.51654969161E+02 -0.30472862813E+02 -0.13236630862E+03  0.19168005101E+03  0.12499428423E+03 0.  0.
          2    1    1    2  501    0  0.61657299324E+02  0.20222012759E+02 -0.54964644799E+03  0.55346343163E+03  0.00000000000E+00 0. -1.
          1    1    1    2  502    0 -0.11331226848E+03  0.10250850054E+02  0.76685526276E+03  0.77524947220E+03  0.00000000000E+00 0. -1.
         22    1    3    3    0    0  0.75600073055E+02 -0.48259584712E+02 -0.47013275658E+02  0.10126503173E+03  0.00000000000E+00 0.  1.
         22    1    3    3    0    0 -0.23945103895E+02  0.17786721899E+02 -0.85353032963E+02  0.90415019285E+02  0.00000000000E+00 0.  1.
</event>
<event>
 7    1  0.6508013E-006  0.9726073E+02  0.7818608E-02  0.1311799E+00
          2   -1    0    0  502    0  0.00000000000E+00  0.00000000000E+00  0.38938858774E+04  0.38938858774E+04  0.00000000000E+00 0. -1.
          1   -1    0    0  501    0 -0.00000000000E+00 -0.00000000000E+00 -0.38378929950E+02  0.38378929950E+02  0.00000000000E+00 0. -1.
         25    2    1    2    0    0 -0.24461780844E+02  0.24994036626E+02  0.78504625618E+03  0.79570454338E+03  0.12500006170E+03 0.  0.
          2    1    1    2  501    0 -0.21971609476E+02  0.73549270569E+02  0.13839575462E+02  0.77998594046E+02  0.00000000000E+00 0. -1.
          1    1    1    2  502    0  0.46433390319E+02 -0.98543307195E+02  0.30566211158E+04  0.30585616699E+04  0.00000000000E+00 0. -1.
         22    1    3    3    0    0 -0.78006145041E+01  0.18816051549E+02  0.14618229783E+02  0.25071617908E+02  0.00000000000E+00 0. -1.
         22    1    3    3    0    0 -0.16661166340E+02  0.61779850767E+01  0.77042802639E+03  0.77063292547E+03  0.00000000000E+00 0. -1.
</event>
<event>
 7    1  0.6508013E-006  0.6037437E+02  0.7818608E-02  0.1481085E+00
          2   -1    0    0  502    0  0.00000000000E+00  0.00000000000E+00  0.22726137689E+04  0.22726137689E+04  0.00000000000E+00 0. -1.
          1   -1    0    0  501    0 -0.00000000000E+00 -0.00000000000E+00 -0.12175779594E+02  0.12175779594E+02  0.00000000000E+00 0. -1.
         25    2    1    2    0    0  0.24619025312E+02  0.25011332386E+02  0.10422644474E+04  0.10503197626E+04  0.12499904891E+03 0.  0.
          2    1    1    2  501    0  0.28405728084E+02  0.14681861005E+02  0.28140750605E+02  0.42595120321E+02  0.00000000000E+00 0. -1.
          1    1    1    2  502    0 -0.53024753396E+02 -0.39693193391E+02  0.11900327913E+04  0.11918746656E+04  0.00000000000E+00 0. -1.
         22    1    3    3    0    0 -0.44995354715E+02  0.15707179466E+02  0.65549341413E+03  0.65722364033E+03  0.00000000000E+00 0.  1.
         22    1    3    3    0    0  0.69614380026E+02  0.93041529195E+01  0.38677103327E+03  0.39309612227E+03  0.00000000000E+00 0.  1.
</event>
<event>
 7    1  0.6508013E-006  0.4004714E+02  0.7818608E-02  0.1568657E+00
          2   -1    0    0  502    0  0.00000000000E+00  0.00000000000E+00  0.35406763582E+02  0.35406763582E+02  0.00000000000E+00 0. -1.
          1   -1    0    0  501    0 -0.00000000000E+00 -0.00000000000E+00 -0.13919878250E+04  0.13919878250E+04  0.00000000000E+00 0. -1.
         25    2    1    2    0    0  0.40198734332E+01 -0.39543591291E+02 -0.16449995105E+03  0.21039317167E+03  0.12500079118E+03 0.  0.
          2    1    1    2  501    0 -0.28502785659E+02  0.28324679638E+02 -0.11892425914E+04  0.11899212736E+04  0.00000000000E+00 0. -1.
          1    1    1    2  502    0  0.24482912226E+02  0.11218911654E+02 -0.28385189748E+01  0.27080143274E+02  0.00000000000E+00 0. -1.
         22    1    3    3    0    0  0.12979894631E+02 -0.62670314976E+02 -0.25006853021E+02  0.68712362365E+02  0.00000000000E+00 0. -1.
         22    1    3    3    0    0 -0.89600211979E+01  0.23126723685E+02 -0.13949309803E+03  0.14168080931E+03  0.00000000000E+00 0. -1.
</event>
<event>
 7    1  0.6508013E-006  0.1968378E+03  0.7818608E-02  0.1270177E+00
          2   -1    0    0  502    0  0.00000000000E+00  0.00000000000E+00  0.26568499813E+04  0.26568499813E+04  0.00000000000E+00 0. -1.
          1   -1    0    0  501    0 -0.00000000000E+00 -0.00000000000E+00 -0.10167898720E+04  0.10167898720E+04  0.00000000000E+00 0. -1.
         25    2    1    2    0    0 -0.16644788069E+02 -0.15441043917E+03  0.26720668019E+03  0.33338457829E+03  0.12500493755E+03 0.  0.
          2    1    1    2  501    0 -0.19219920352E+02  0.19739232149E+03 -0.97336745277E+03  0.99336666545E+03  0.00000000000E+00 0. -1.
          1    1    1    2  502    0  0.35864708421E+02 -0.42981882322E+02  0.23462208818E+04  0.23468886096E+04  0.00000000000E+00 0. -1.
         22    1    3    3    0    0  0.52069069915E+02 -0.88861640080E+02  0.11919874565E+03  0.15753069569E+03  0.00000000000E+00 0. -1.
         22    1    3    3    0    0 -0.68713857984E+02 -0.65548799090E+02  0.14800793454E+03  0.17585388261E+03  0.00000000000E+00 0. -1.
</event>
<event>
 7    1  0.6508013E-006  0.9370401E+02  0.7818608E-02  0.1406027E+00
          2   -1    0    0  502    0  0.00000000000E+00  0.00000000000E+00  0.13382224493E+04  0.13382224493E+04  0.00000000000E+00 0. -1.
          1   -1    0    0  501    0 -0.00000000000E+00 -0.00000000000E+00 -0.10297432661E+04  0.10297432661E+04  0.00000000000E+00 0. -1.
         25    2    1    2    0    0  0.47759118623E+02 -0.48968688739E+02 -0.75567534205E+02  0.16128858354E+03  0.12499875626E+03 0.  0.
          2    1    1    2  501    0 -0.43682085623E+02  0.84748753498E+02 -0.90856997431E+03  0.91355890562E+03  0.00000000000E+00 0. -1.
          1    1    1    2  502    0 -0.40770330005E+01 -0.35780064760E+02  0.12926166918E+04  0.12931182262E+04  0.00000000000E+00 0. -1.
         22    1    3    3    0    0 -0.24275516923E+02 -0.30338001181E+02  0.17096295333E+02  0.42449715566E+02  0.00000000000E+00 0.  1.
         22    1    3    3    0    0  0.72034635546E+02 -0.18630687558E+02 -0.92663829539E+02  0.11883886798E+03  0.00000000000E+00 0.  1.
</event>
<event>
 7    1  0.6508013E-006  0.9857275E+02  0.7818608E-02  0.1308399E+00
          2   -1    0    0  502    0  0.00000000000E+00  0.00000000000E+00  0.11394499152E+04  0.11394499152E+04  0.00000000000E+00 0. -1.
          1   -1    0    0  501    0 -0.00000000000E+00 -0.00000000000E+00 -0.22289848983E+03  0.22289848983E+03  0.00000000000E+00 0. -1.
         25    2    1    2    0    0  0.72823444060E+02  0.82454597474E+02 -0.29702301877E+02  0.16914300412E+03  0.12500045783E+03 0.  0.
          2    1    1    2  501    0  0.25786367818E+02 -0.73732623308E+02 -0.10856846399E+03  0.13374807616E+03  0.00000000000E+00 0. -1.
          1    1    1    2  502    0 -0.98609811878E+02 -0.87219741658E+01  0.10548221912E+04  0.10594573247E+04  0.00000000000E+00 0. -1.
         22    1    3    3    0    0  0.28598008798E+02  0.74478843451E+02 -0.71972813860E+02  0.10744780204E+03  0.00000000000E+00 0.  1.
         22    1    3    3    0    0  0.44225435262E+02  0.79757540232E+01  0.42270511983E+02  0.61695202080E+02  0.00000000000E+00 0.  1.
</event>
<event>
 7    1  0.6508013E-006  0.8944981E+02  0.7818608E-02  0.1452405E+00
          2   -1    0    0  502    0  0.00000000000E+00  0.00000000000E+00  0.66008920154E+03  0.66008920154E+03  0.00000000000E+00 0. -1.
          1   -1    0    0  501    0 -0.00000000000E+00 -0.00000000000E+00 -0.14728042075E+04  0.14728042075E+04  0.00000000000E+00 0. -1.
         25    2    1    2    0    0  0.97412212670E+02  0.51615669122E+02 -0.10662927741E+03  0.19785382441E+03  0.12499206597E+03 0.  0.
          2    1    1    2  501    0 -0.13067432308E+02 -0.23087690570E+02 -0.13172029287E+04  0.13174700583E+04  0.00000000000E+00 0. -1.
          1    1    1    2  502    0 -0.84344780362E+02 -0.28527978552E+02  0.61111720013E+03  0.61756952631E+03  0.00000000000E+00 0. -1.
         22    1    3    3    0    0  0.88749991780E+02 -0.97506432872E+01 -0.10222019185E+03  0.13572252469E+03  0.00000000000E+00 0.  1.
         22    1    3    3    0    0  0.86622208899E+01  0.61366312409E+02 -0.44090855537E+01  0.62131299720E+02  0.00000000000E+00 0.  1.
</event>
<event>
 7    1  0.6508013E-006  0.1074065E+03  0.7818608E-02  0.1357912E+00
          2   -1    0    0  502    0  0.00000000000E+00  0.00000000000E+00  0.23409368311E+03  0.23409368311E+03  0.00000000000E+00 0. -1.
          1   -1    0    0  501    0 -0.00000000000E+00 -0.00000000000E+00 -0.20037184192E+04  0.20037184192E+04  0.00000000000E+00 0. -1.
         25    2    1    2    0    0 -0.10721672055E+03  0.10599935468E+02 -0.26327035922E+02  0.16712791357E+03  0.12502336932E+03 0.  0.
          2    1    1    2  501    0  0.92656915870E+02 -0.54726168754E+02 -0.19021417377E+04  0.19051833108E+04  0.00000000000E+00 0. -1.
          1    1    1    2  502    0  0.14559804680E+02  0.44126233286E+02  0.15884403745E+03  0.16550087798E+03  0.00000000000E+00 0. -1.
         22    1    3    3    0    0 -0.36694826178E+00  0.13395241737E+02 -0.54881016447E+02  0.56493301536E+02  0.00000000000E+00 0. -1.
         22    1    3    3    0    0 -0.10684977229E+03 -0.27953062686E+01  0.28553980525E+02  0.11063461203E+03  0.00000000000E+00 0. -1.
</event>
<event>
 7    1  0.6508013E-006  0.3189225E+02  0.7818608E-02  0.1596724E+00
          2   -1    0    0  502    0  0.00000000000E+00  0.00000000000E+00  0.60618670199E+02  0.60618670199E+02  0.00000000000E+00 0. -1.
          1   -1    0    0  501    0 -0.00000000000E+00 -0.00000000000E+00 -0.12062223338E+04  0.12062223338E+04  0.00000000000E+00 0. -1.
         25    2    1    2    0    0  0.33859586032E+02  0.55389704287E+01 -0.68343580658E+03  0.69561982229E+03  0.12500113472E+03 0.  0.
          2    1    1    2  501    0 -0.17874791591E+02  0.22137889212E+02 -0.51158139644E+03  0.51237205183E+03  0.00000000000E+00 0. -1.
          1    1    1    2  502    0 -0.15984794441E+02 -0.27676859641E+02  0.49413539407E+02  0.58849129897E+02  0.00000000000E+00 0. -1.
         22    1    3    3    0    0  0.39566094761E+02  0.61587891691E+02 -0.39851794437E+03  0.40518526163E+03  0.00000000000E+00 0. -1.
         22    1    3    3    0    0 -0.57065087285E+01 -0.56048921262E+02 -0.28491786222E+03  0.29043456066E+03  0.00000000000E+00 0. -1.
</event>
<event>
 7    1  0.6508013E-006  0.1343018E+03  0.7818608E-02  0.1419794E+00
          2   -1    0    0  502    0  0.00000000000E+00  0.00000000000E+00  0.54143823871E+03  0.54143823871E+03  0.00000000000E+00 0. -1.
          1   -1    0    0  501    0 -0.00000000000E+00 -0.00000000000E+00 -0.18571159568E+03  0.18571159568E+03  0.00000000000E+00 0. -1.
         25    2    1    2    0    0  0.28422658048E+02 -0.15184898261E+03  0.29091346987E+03  0.35230615001E+03  0.12499206123E+03 0.  0.
          2    1    1    2  501    0 -0.19600050101E+02  0.13106736805E+03 -0.12590290014E+03  0.18279594414E+03  0.00000000000E+00 0. -1.
          1    1    1    2  502    0 -0.88226079472E+01  0.20781614561E+02  0.19071607330E+03  0.19204774023E+03  0.00000000000E+00 0. -1.
         22    1    3    3    0    0  0.50727201988E+02 -0.78728561902E+02  0.24696475312E+03  0.26412691034E+03  0.00000000000E+00 0. -1.
         22    1    3    3    0    0 -0.22304543940E+02 -0.73120420707E+02  0.43948716751E+02  0.88179239670E+02  0.00000000000E+00 0. -1.
</event>
<event>
 7    1  0.6508013E-006  0.1208566E+03  0.7818608E-02  0.1448139E+00
          2   -1    0    0  502    0  0.00000000000E+00  0.00000000000E+00  0.93687364623E+03  0.93687364623E+03  0.00000000000E+00 0. -1.
          1   -1    0    0  501    0 -0.00000000000E+00 -0.00000000000E+00 -0.89902813668E+02  0.89902813668E+02  0.00000000000E+00 0. -1.
         25    2    1    2    0    0  0.22123238036E+02  0.12329230584E+03  0.21863931994E+03  0.28127921654E+03  0.12499766034E+03 0.  0.
          2    1    1    2  501    0 -0.39756096085E+02 -0.11331119512E+03  0.32908752078E+01  0.12012828133E+03  0.00000000000E+00 0. -1.
          1    1    1    2  502    0  0.17632858049E+02 -0.99811107209E+01  0.62504063741E+03  0.62536896203E+03  0.00000000000E+00 0. -1.
         22    1    3    3    0    0  0.66598977899E+02  0.97990131168E+02  0.11218404405E+03  0.16316479217E+03  0.00000000000E+00 0. -1.
         22    1    3    3    0    0 -0.44475739863E+02  0.25302174672E+02  0.10645527589E+03  0.11811442437E+03  0.00000000000E+00 0. -1.
</event>
<event>
 7    1  0.6508013E-006  0.6311154E+02  0.7818608E-02  0.1404134E+00
          2   -1    0    0  502    0  0.00000000000E+00  0.00000000000E+00  0.90985396927E+03  0.90985396927E+03  0.00000000000E+00 0. -1.
          1   -1    0    0  501    0 -0.00000000000E+00 -0.00000000000E+00 -0.19942434707E+03  0.19942434707E+03  0.00000000000E+00 0. -1.
         25    2    1    2    0    0  0.22649921289E+02  0.43538246449E+02  0.20949573298E+03  0.24884022494E+03  0.12499759027E+03 0.  0.
          2    1    1    2  501    0 -0.63506828424E+02 -0.78192647314E+01 -0.17293216167E+03  0.18439032159E+03  0.00000000000E+00 0. -1.
          1    1    1    2  502    0  0.40856907135E+02 -0.35718981718E+02  0.67386605089E+03  0.67604776980E+03  0.00000000000E+00 0. -1.
         22    1    3    3    0    0 -0.40859611598E+02  0.46884853057E+01  0.14374481330E+03  0.14951274562E+03  0.00000000000E+00 0. -1.
         22    1    3    3    0    0  0.63509532887E+02  0.38849761143E+02  0.65750919688E+02  0.99327479321E+02  0.00000000000E+00 0. -1.
</event>
<event>
 7    1  0.6508013E-006  0.1524691E+03  0.7818608E-02  0.1351462E+00
          2   -1    0    0  502    0  0.00000000000E+00  0.00000000000E+00  0.43365459112E+03  0.43365459112E+03  0.00000000000E+00 0. -1.
          1   -1    0    0  501    0 -0.00000000000E+00 -0.00000000000E+00 -0.44300154919E+03  0.44300154919E+03  0.00000000000E+00 0. -1.
         25    2    1    2    0    0 -0.99191902776E+02  0.15587680787E+03  0.21804049270E+03  0.31193899540E+03  0.12501066990E+03 0.  0.
          2    1    1    2  501    0  0.76271606719E+02 -0.12999587419E+03 -0.37970563877E+03  0.40852497771E+03  0.00000000000E+00 0. -1.
          1    1    1    2  502    0  0.22920296057E+02 -0.25880933671E+02  0.15231818799E+03  0.15619216719E+03  0.00000000000E+00 0. -1.
         22    1    3    3    0    0 -0.10845035927E+03  0.56107766729E+02  0.13262982996E+03  0.18027821196E+03  0.00000000000E+00 0.  1.
         22    1    3    3    0    0  0.92584564951E+01  0.99769041137E+02  0.85410662746E+02  0.13166078344E+03  0.00000000000E+00 0.  1.
</event>
<event>
 7    1  0.6508013E-006  0.9705104E+02  0.7818608E-02  0.1384482E+00
          2   -1    0    0  502    0  0.00000000000E+00  0.00000000000E+00  0.44973862713E+03  0.44973862713E+03  0.00000000000E+00 0. -1.
          1   -1    0    0  501    0 -0.00000000000E+00 -0.00000000000E+00 -0.33263259702E+04  0.33263259702E+04  0.00000000000E+00 0. -1.
         25    2    1    2    0    0  0.35203939523E+02 -0.12262356958E+03  0.15854086982E+03  0.23882140513E+03  0.12499839586E+03 0.  0.
          2    1    1    2  501    0 -0.29005276922E+01  0.96911887226E+02 -0.32837679198E+04  0.32851989404E+04  0.00000000000E+00 0. -1.
          1    1    1    2  502    0 -0.32303411831E+02  0.25711682356E+02  0.24863970689E+03  0.25204425181E+03  0.00000000000E+00 0. -1.
         22    1    3    3    0    0  0.68553485573E+02 -0.11495688583E+03  0.15442250965E+03  0.20435502801E+03  0.00000000000E+00 0.  1.
         22    1    3    3    0    0 -0.33349546050E+02 -0.76666837516E+01  0.41183601714E+01  0.34466377124E+02  0.00000000000E+00 0.  1.
</event>
<event>
 7    1  0.6508013E-006  0.1009980E+03  0.7818608E-02  0.1315358E+00
          2   -1    0    0  502    0  0.00000000000E+00  0.00000000000E+00  0.94294387007E+03  0.94294387007E+03  0.00000000000E+00 0. -1.
          1   -1    0    0  501    0 -0.00000000000E+00 -0.00000000000E+00 -0.45054986859E+03  0.45054986859E+03  0.00000000000E+00 0. -1.
         25    2    1    2    0    0  0.92537575402E+02  0.47245021807E+02  0.10262506294E+03  0.19223403657E+03  0.12500690511E+03 0.  0.
          2    1    1    2  501    0 -0.99048853289E+02  0.24042491389E+02 -0.39769516850E+03  0.41054861317E+03  0.00000000000E+00 0. -1.
          1    1    1    2  502    0  0.65112778870E+01 -0.71287513195E+02  0.78746410703E+03  0.79071108892E+03  0.00000000000E+00 0. -1.
         22    1    3    3    0    0  0.32498418915E+02  0.82977155381E+02  0.77138280187E+02  0.11786292809E+03  0.00000000000E+00 0.  1.
         22    1    3    3    0    0  0.60039156488E+02 -0.35732133575E+02  0.25486782758E+02  0.74371108482E+02  0.00000000000E+00 0.  1.
</event>
<event>
 7    1  0.6508013E-006  0.3781054E+02  0.7818608E-02  0.1611758E+00
          2   -1    0    0  502    0  0.00000000000E+00  0.00000000000E+00  0.72613254817E+03  0.72613254817E+03  0.00000000000E+00 0. -1.
          1   -1    0    0  501    0 -0.00000000000E+00 -0.00000000000E+00 -0.95479892959E+02  0.95479892959E+02  0.00000000000E+00 0. -1.
         25    2    1    2    0    0 -0.32942289490E+02  0.20181514798E+02  0.67399277919E+02  0.14717432621E+03  0.12500052662E+03 0.  0.
          2    1    1    2  501    0  0.16803388365E+02  0.14099317209E+02 -0.52823736035E+02  0.57196955295E+02  0.00000000000E+00 0. -1.
          1    1    1    2  502    0  0.16138901125E+02 -0.34280832007E+02  0.61607711333E+03  0.61724115963E+03  0.00000000000E+00 0. -1.
         22    1    3    3    0    0 -0.32956659866E+02 -0.17010942723E+02  0.94261673729E+02  0.10129549218E+03  0.00000000000E+00 0.  1.
         22    1    3    3    0    0  0.14370376183E-01  0.37192457521E+02 -0.26862395810E+02  0.45878834026E+02  0.00000000000E+00 0.  1.
</event>
<event>
 7    1  0.6508013E-006  0.6857037E+02  0.7818608E-02  0.1441398E+00
          2   -1    0    0  502    0  0.00000000000E+00  0.00000000000E+00  0.10601232957E+04  0.10601232957E+04  0.00000000000E+00 0. -1.
          1   -1    0    0  501    0 -0.00000000000E+00 -0.00000000000E+00 -0.36135479209E+03  0.36135479209E+03  0.00000000000E+00 0. -1.
         25    2    1    2    0    0 -0.55334577831E+02 -0.51237469345E+02  0.29934995330E+03  0.33304954780E+03  0.12499765189E+03 0.  0.
          2    1    1    2  501    0 -0.11662822839E+02  0.35686573440E+02 -0.34188545743E+03  0.34394072012E+03  0.00000000000E+00 0. -1.
          1    1    1    2  502    0  0.66997400669E+02  0.15550895905E+02  0.74130400776E+03  0.74448781990E+03  0.00000000000E+00 0. -1.
         22    1    3    3    0    0  0.91419962741E+01  0.35757326445E+02  0.61763438791E+02  0.71950572351E+02  0.00000000000E+00 0.  1.
         22    1    3    3    0    0 -0.64476574105E+02 -0.86994795789E+02  0.23758651451E+03  0.26109897544E+03  0.00000000000E+00 0.  1.
</event>
<event>
 7    1  0.6508013E-006  0.1471411E+03  0.7818608E-02  0.1245593E+00
          2   -1    0    0  502    0  0.00000000000E+00  0.00000000000E+00  0.12280687487E+04  0.12280687487E+04  0.00000000000E+00 0. -1.
          1   -1    0    0  501    0 -0.00000000000E+00 -0.00000000000E+00 -0.37923772419E+03  0.37923772419E+03  0.00000000000E+00 0. -1.
         25    2    1    2    0    0 -0.57178009939E+02  0.68869295713E+01  0.23041682292E+03  0.26837822992E+03  0.12497282661E+03 0.  0.
          2    1    1    2  501    0  0.15162961209E+03 -0.20536991615E+02 -0.34153594832E+03  0.37424605714E+03  0.00000000000E+00 0. -1.
          1    1    1    2  502    0 -0.94451602147E+02  0.13650062044E+02  0.95995014996E+03  0.96468218588E+03  0.00000000000E+00 0. -1.
         22    1    3    3    0    0 -0.96828720198E+02  0.15672447459E+01  0.17533281843E+03  0.20029941220E+03  0.00000000000E+00 0.  1.
         22    1    3    3    0    0  0.39650710258E+02  0.53196848254E+01  0.55084004495E+02  0.68078817717E+02  0.00000000000E+00 0.  1.
</event>
<event>
 7    1  0.6508013E-006  0.6915622E+02  0.7818608E-02  0.1370348E+00
          2   -1    0    0  502    0  0.00000000000E+00  0.00000000000E+00  0.19635061233E+03  0.19635061233E+03  0.00000000000E+00 0. -1.
          1   -1    0    0  501    0 -0.00000000000E+00 -0.00000000000E+00 -0.10030639351E+04  0.10030639351E+04  0.00000000000E+00 0. -1.
         25    2    1    2    0    0 -0.11388989109E+03  0.40033863951E+02 -0.52131654014E+01  0.17385276699E+03  0.12499595970E+03 0.  0.
          2    1    1    2  501    0  0.49285256334E+02 -0.47612242723E+02 -0.90267951262E+03  0.90527689944E+03  0.00000000000E+00 0. -1.
          1    1    1    2  502    0  0.64604634754E+02  0.75783787718E+01  0.10117935528E+03  0.12028488098E+03  0.00000000000E+00 0. -1.
         22    1    3    3    0    0  0.26916275528E+02  0.13172924368E+01  0.52166747931E+01  0.27448767615E+02  0.00000000000E+00 0. -1.
         22    1    3    3    0    0 -0.14080616662E+03  0.38716571514E+02 -0.10429840195E+02  0.14640399938E+03  0.00000000000E+00 0. -1.
</event>
<event>
 7    1  0.6508013E-006  0.1352497E+03  0.7818608E-02  0.1293893E+00
          2   -1    0    0  502    0  0.00000000000E+00  0.00000000000E+00  0.59100292411E+03  0.59100292411E+03  0.00000000000E+00 0. -1.
          1   -1    0    0  501    0 -0.00000000000E+00 -0.00000000000E+00 -0.27303379348E+03  0.27303379348E+03  0.00000000000E+00 0. -1.
         25    2    1    2    0    0 -0.10882838466E+03  0.75388776927E+02 -0.10082355666E+03  0.20812308433E+03  0.12499097431E+03 0.  0.
          2    1    1    2  501    0  0.14302349913E+03 -0.20041774863E+02 -0.71620104415E+02  0.16120432190E+03  0.00000000000E+00 0. -1.
          1    1    1    2  502    0 -0.34195114462E+02 -0.55347002064E+02  0.49041279169E+03  0.49470931136E+03  0.00000000000E+00 0. -1.
         22    1    3    3    0    0 -0.97089899179E+02  0.14264684903E+02 -0.10865296389E+02  0.98731881495E+02  0.00000000000E+00 0. -1.
         22    1    3    3    0    0 -0.11738485484E+02  0.61124092024E+02 -0.89958260269E+02  0.10939120284E+03  0.00000000000E+00 0. -1.
</event>
<event>
 7    1  0.6508013E-006  0.2493074E+03  0.7818608E-02  0.1180289E+00
          2   -1    0    0  502    0  0.00000000000E+00  0.00000000000E+00  0.16781640389E+04  0.16781640389E+04  0.00000000000E+00 0. -1.
          1   -1    0    0  501    0 -0.00000000000E+00 -0.00000000000E+00 -0.33160502491E+04  0.33160502491E+04  0.00000000000E+00 0. -1.
         25    2    1    2    0    0 -0.14579480505E+02  0.24647599864E+03  0.96860954675E+02  0.29320657599E+03  0.12500029001E+03 0.  0.
          2    1    1    2  501    0 -0.10948519374E+03 -0.27058570855E+02 -0.32061690180E+04  0.32081519518E+04  0.00000000000E+00 0. -1.
          1    1    1    2  502    0  0.12406467425E+03 -0.21941742779E+03  0.14714218532E+04  0.14928557603E+04  0.00000000000E+00 0. -1.
         22    1    3    3    0    0 -0.50059174626E+02  0.22593425051E+03  0.62476055377E+02  0.23969869422E+03  0.00000000000E+00 0. -1.
         22    1    3    3    0    0  0.35479694120E+02  0.20541748135E+02  0.34384899298E+02  0.53507881766E+02  0.00000000000E+00 0. -1.
</event>
<event>
 7    1  0.6508013E-006  0.5445957E+02  0.7818608E-02  0.1453216E+00
          2   -1    0    0  502    0  0.00000000000E+00  0.00000000000E+00  0.54353087184E+02  0.54353087184E+02  0.00000000000E+00 0. -1.
          1   -1    0    0  501    0 -0.00000000000E+00 -0.00000000000E+00 -0.48122258847E+03  0.48122258847E+03  0.00000000000E+00 0. -1.
         25    2    1    2    0    0  0.41939124287E+02 -0.74440576749E+02 -0.22076188614E+03  0.26769658397E+03  0.12500144433E+03 0.  0.
          2    1    1    2  501    0 -0.55467265817E+01  0.50949048224E+02 -0.21720083912E+03  0.22316535620E+03  0.00000000000E+00 0. -1.
          1    1    1    2  502    0 -0.36392397705E+02  0.23491528524E+02  0.11093223974E+02  0.44713735488E+02  0.00000000000E+00 0. -1.
         22    1    3    3    0    0 -0.23314394081E+02  0.21995129601E+02 -0.71776336246E+02  0.78607818583E+02  0.00000000000E+00 0. -1.
         22    1    3    3    0    0  0.65253518368E+02 -0.96435706349E+02 -0.14898554989E+03  0.18908876538E+03  0.00000000000E+00 0. -1.
</event>
<event>
 7    1  0.6508013E-006  0.7226835E+02  0.7818608E-02  0.1518544E+00
          2   -1    0    0  502    0  0.00000000000E+00  0.00000000000E+00  0.41240627074E+04  0.41240627074E+04  0.00000000000E+00 0. -1.
          1   -1    0    0  501    0 -0.00000000000E+00 -0.00000000000E+00 -0.13837202298E+04  0.13837202298E+04  0.00000000000E+00 0. -1.
         25    2    1    2    0    0  0.41139845232E+02  0.31190390270E+02  0.34144866506E+04  0.34171639342E+04  0.12499975533E+03 0.  0.
          2    1    1    2  501    0 -0.57774582192E+02 -0.43423918080E+02 -0.13812861158E+04  0.13831756478E+04  0.00000000000E+00 0. -1.
          1    1    1    2  502    0  0.16634736960E+02  0.12233527810E+02  0.70714194274E+03  0.70744335523E+03  0.00000000000E+00 0. -1.
         22    1    3    3    0    0  0.84759330144E+02  0.15234569915E+02  0.18746938774E+04  0.18766708209E+04  0.00000000000E+00 0.  1.
         22    1    3    3    0    0 -0.43619484912E+02  0.15955820354E+02  0.15397927733E+04  0.15404931133E+04  0.00000000000E+00 0.  1.
</event>
<event>
 7    1  0.6508013E-006  0.7157785E+02  0.7818608E-02  0.1383444E+00
          2   -1    0    0  502    0  0.00000000000E+00  0.00000000000E+00  0.17263569713E+04  0.17263569713E+04  0.00000000000E+00 0. -1.
          1   -1    0    0  501    0 -0.00000000000E+00 -0.00000000000E+00 -0.12273769233E+03  0.12273769233E+03  0.00000000000E+00 0. -1.
         25    2    1    2    0    0 -0.60480407482E+02 -0.67296530005E+02  0.62894652024E+02  0.16663508367E+03  0.12499924487E+03 0.  0.
          2    1    1    2  501    0  0.70270634934E+02  0.11699082273E+02 -0.52337770821E+02  0.88397244948E+02  0.00000000000E+00 0. -1.
          1    1    1    2  502    0 -0.97902274520E+01  0.55597447732E+02  0.15930623978E+04  0.15940623350E+04  0.00000000000E+00 0. -1.
         22    1    3    3    0    0 -0.32932762201E+02 -0.33060351960E+02 -0.35658605380E+02  0.58728952277E+02  0.00000000000E+00 0.  1.
         22    1    3    3    0    0 -0.27547645281E+02 -0.34236178045E+02  0.98553257405E+02  0.10790613140E+03  0.00000000000E+00 0.  1.
</event>
<event>
 7    1  0.6508013E-006  0.9820564E+02  0.7818608E-02  0.1310532E+00
          2   -1    0    0  502    0  0.00000000000E+00  0.00000000000E+00  0.91569744094E+03  0.91569744094E+03  0.00000000000E+00 0. -1.
          1   -1    0    0  501    0 -0.00000000000E+00 -0.00000000000E+00 -0.30659023111E+04  0.30659023111E+04  0.00000000000E+00 0. -1.
         25    2    1    2    0    0  0.67065432574E+02 -0.13731657923E+03  0.22686836976E+03  0.30074506187E+03  0.12499887945E+03 0.  0.
          2    1    1    2  501    0 -0.76783736140E+02  0.61033342834E+02 -0.30258986774E+04  0.30274880045E+04  0.00000000000E+00 0. -1.
          1    1    1    2  502    0  0.97183035663E+01  0.76283236394E+02  0.64882543753E+03  0.65336668569E+03  0.00000000000E+00 0. -1.
         22    1    3    3    0    0  0.98417767554E+02 -0.12487618296E+03  0.15847856341E+03  0.22448958350E+03  0.00000000000E+00 0. -1.
         22    1    3    3    0    0 -0.31352334980E+02 -0.12440396266E+02  0.68389806349E+02  0.76255478363E+02  0.00000000000E+00 0. -1.
</event>
<event>
 7    1  0.6508013E-006  0.4310428E+02  0.7818608E-02  0.1590906E+00
          2   -1    0    0  502    0  0.00000000000E+00  0.00000000000E+00  0.14767108884E+03  0.14767108884E+03  0.00000000000E+00 0. -1.
          1   -1    0    0  501    0 -0.00000000000E+00 -0.00000000000E+00 -0.16904334039E+04  0.16904334039E+04  0.00000000000E+00 0. -1.
         25    2    1    2    0    0  0.42743838653E+02 -0.25777202432E+02 -0.93261247675E+03  0.94227521302E+03  0.12500018149E+03 0.  0.
          2    1    1    2  501    0 -0.19208375598E+02 -0.10326914065E+02 -0.74957646332E+03  0.74989364660E+03  0.00000000000E+00 0. -1.
          1    1    1    2  502    0 -0.23535463055E+02  0.36104116497E+02  0.13942662501E+03  0.14593563311E+03  0.00000000000E+00 0. -1.
         22    1    3    3    0    0 -0.12144293574E+02 -0.35979000418E+02 -0.88300051206E+02  0.96119047958E+02  0.00000000000E+00 0.  1.
         22    1    3    3    0    0  0.54888132226E+02  0.10201797986E+02 -0.84431242555E+03  0.84615616506E+03  0.00000000000E+00 0.  1.
</event>
<event>
 7    1  0.6508013E-006  0.5200722E+02  0.7818608E-02  0.1518744E+00
          2   -1    0    0  502    0  0.00000000000E+00  0.00000000000E+00  0.35945271180E+04  0.35945271180E+04  0.00000000000E+00 0. -1.
          1   -1    0    0  501    0 -0.00000000000E+00 -0.00000000000E+00 -0.18233431651E+03  0.18233431651E+03  0.00000000000E+00 0. -1.
         25    2    1    2    0    0 -0.76816076552E+02  0.24300239022E+02 -0.11053664635E+03  0.18529643450E+03  0.12500082888E+03 0.  0.
          2    1    1    2  501    0  0.27724298902E+02 -0.72434355592E+01 -0.28230253209E+02  0.40225008446E+02  0.00000000000E+00 0. -1.
          1    1    1    2  502    0  0.49091777650E+02 -0.17056803462E+02  0.35509597010E+04  0.35513399915E+04  0.00000000000E+00 0. -1.
         22    1    3    3    0    0 -0.75514425851E+02 -0.28603508281E+02 -0.24674147638E+02  0.84435790748E+02  0.00000000000E+00 0. -1.
         22    1    3    3    0    0 -0.13016507002E+01  0.52903747302E+02 -0.85862498716E+02  0.10086064376E+03  0.00000000000E+00 0. -1.
</event>
<event>
 7    1  0.6508013E-006  0.1736238E+03  0.7818608E-02  0.1349661E+00
          2   -1    0    0  502    0  0.00000000000E+00  0.00000000000E+00  0.21188940376E+03  0.21188940376E+03  0.00000000000E+00 0. -1.
          1   -1    0    0  501    0 -0.00000000000E+00 -0.00000000000E+00 -0.10652421817E+04  0.10652421817E+04  0.00000000000E+00 0. -1.
         25    2    1    2    0    0 -0.17456229689E+03 -0.50164809200E+02 -0.68262216075E+02  0.23082840571E+03  0.12503407200E+03 0.  0.
          2    1    1    2  501    0  0.44185690453E+01  0.30510510488E+02 -0.85914936889E+03  0.85970230491E+03  0.00000000000E+00 0. -1.
          1    1    1    2  502    0  0.17014372785E+03  0.19654298713E+02  0.74058807049E+02  0.18660087482E+03  0.00000000000E+00 0. -1.
         22    1    3    3    0    0  0.82260387672E+01 -0.14030707121E+01 -0.38411210139E+02  0.39307217983E+02  0.00000000000E+00 0. -1.
         22    1    3    3    0    0 -0.18278833566E+03 -0.48761738488E+02 -0.29851005936E+02  0.19152118773E+03  0.00000000000E+00 0. -1.
</event>
<event>
 7    1  0.6508013E-006  0.1751503E+03  0.7818608E-02  0.1264711E+00
          2   -1    0    0  502    0  0.00000000000E+00  0.00000000000E+00  0.15779729034E+04  0.15779729034E+04  0.00000000000E+00 0. -1.
          1   -1    0    0  501    0 -0.00000000000E+00 -0.00000000000E+00 -0.73041632024E+03  0.73041632024E+03  0.00000000000E+00 0. -1.
         25    2    1    2    0    0  0.19735922610E+03 -0.75963169237E+02  0.25777092443E+03  0.35608359572E+03  0.12501444097E+03 0.  0.
          2    1    1    2  501    0 -0.60353019703E+02 -0.27540470666E+02 -0.67382454655E+03  0.67708233180E+03  0.00000000000E+00 0. -1.
          1    1    1    2  502    0 -0.13700620639E+03  0.10350363990E+03  0.12636102052E+04  0.12752232961E+04  0.00000000000E+00 0. -1.
         22    1    3    3    0    0  0.17718178449E+03 -0.37456779315E+02  0.13510441227E+03  0.22594157937E+03  0.00000000000E+00 0.  1.
         22    1    3    3    0    0  0.20177441610E+02 -0.38506389922E+02  0.12266651216E+03  0.13014201635E+03  0.00000000000E+00 0.  1.
</event>
<event>
 7    1  0.6508013E-006  0.1211503E+03  0.7818608E-02  0.1311994E+00
          2   -1    0    0  502    0  0.00000000000E+00  0.00000000000E+00  0.33033238428E+03  0.33033238428E+03  0.00000000000E+00 0. -1.
          1   -1    0    0  501    0 -0.00000000000E+00 -0.00000000000E+00 -0.58164834798E+03  0.58164834798E+03  0.00000000000E+00 0. -1.
         25    2    1    2    0    0  0.61330191586E+02  0.40043480939E+02 -0.47173848565E+02  0.15236498663E+03  0.12499937758E+03 0.  0.
          2    1    1    2  501    0 -0.86939522388E+02 -0.95974964846E+02 -0.46959756928E+03  0.48712580665E+03  0.00000000000E+00 0. -1.
          1    1    1    2  502    0  0.25609330802E+02  0.55931483908E+02  0.26545545413E+03  0.27248993898E+03  0.00000000000E+00 0. -1.
         22    1    3    3    0    0 -0.15491191930E+02  0.13152378383E+02 -0.65802025192E+02  0.68868487742E+02  0.00000000000E+00 0.  1.
         22    1    3    3    0    0  0.76821383516E+02  0.26891102555E+02  0.18628176627E+02  0.83496498887E+02  0.00000000000E+00 0.  1.
</event>
<event>
 7    1  0.6508013E-006  0.7979605E+02  0.7818608E-02  0.1363702E+00
          2   -1    0    0  502    0  0.00000000000E+00  0.00000000000E+00  0.22239431408E+03  0.22239431408E+03  0.00000000000E+00 0. -1.
          1   -1    0    0  501    0 -0.00000000000E+00 -0.00000000000E+00 -0.76598304460E+03  0.76598304460E+03  0.00000000000E+00 0. -1.
         25    2    1    2    0    0  0.20073361928E+02 -0.23377810395E+02 -0.75674823415E+02  0.14932834441E+03  0.12499125437E+03 0.  0.
          2    1    1    2  501    0 -0.13581421249E+02  0.82600363780E+02 -0.64592814095E+03  0.65132974627E+03  0.00000000000E+00 0. -1.
          1    1    1    2  502    0 -0.64919406788E+01 -0.59222553385E+02  0.17801423385E+03  0.18771926800E+03  0.00000000000E+00 0. -1.
         22    1    3    3    0    0  0.15286136236E+02 -0.74417218674E+02 -0.33865345007E+02  0.83177220371E+02  0.00000000000E+00 0.  1.
         22    1    3    3    0    0  0.47872256923E+01  0.51039408279E+02 -0.41809478408E+02  0.66151124042E+02  0.00000000000E+00 0.  1.
</event>
<event>
 7    1  0.6508013E-006  0.1760933E+03  0.7818608E-02  0.1381054E+00
          2   -1    0    0  502    0  0.00000000000E+00  0.00000000000E+00  0.51150669369E+03  0.51150669369E+03  0.00000000000E+00 0. -1.
          1   -1    0    0  501    0 -0.00000000000E+00 -0.00000000000E+00 -0.75074065351E+03  0.75074065351E+03  0.00000000000E+00 0. -1.
         25    2    1    2    0    0 -0.16198704652E+03  0.11190067845E+03 -0.18621608799E+03  0.29843620989E+03  0.12500469939E+03 0.  0.
          2    1    1    2  501    0  0.22321345724E+02 -0.70120712848E+01 -0.49137780259E+03  0.49193450428E+03  0.00000000000E+00 0. -1.
          1    1    1    2  502    0  0.13966570080E+03 -0.10488860717E+03  0.43835993076E+03  0.47187663302E+03  0.00000000000E+00 0. -1.
         22    1    3    3    0    0 -0.18307704383E+03  0.97544536579E+02 -0.16127663668E+03  0.26275900390E+03  0.00000000000E+00 0.  1.
         22    1    3    3    0    0  0.21089997303E+02  0.14356141872E+02 -0.24939451309E+02  0.35677205991E+02  0.00000000000E+00 0.  1.
</event>
<event>
 7    1  0.6508013E-006  0.5290594E+02  0.7818608E-02  0.1565264E+00
          2   -1    0    0  502    0  0.00000000000E+00  0.00000000000E+00  0.75262701591E+03  0.75262701591E+03  0.00000000000E+00 0. -1.
          1   -1    0    0  501    0 -0.00000000000E+00 -0.00000000000E+00 -0.32886611096E+03  0.32886611096E+03  0.00000000000E+00 0. -1.
         25    2    1    2    0    0  0.53267223807E+02 -0.49945638626E+02  0.17614830101E+03  0.22800558850E+03  0.12500544184E+03 0.  0.
          2    1    1    2  501    0 -0.40921508469E+02  0.33175386128E+02 -0.30044800590E+03  0.30503144157E+03  0.00000000000E+00 0. -1.
          1    1    1    2  502    0 -0.12345715339E+02  0.16770252499E+02  0.54806060984E+03  0.54845609680E+03  0.00000000000E+00 0. -1.
         22    1    3    3    0    0 -0.25032157925E+02 -0.32560328278E+02  0.81898774610E+01  0.41879087870E+02  0.00000000000E+00 0.  1.
         22    1    3    3    0    0  0.78299381733E+02 -0.17385310348E+02  0.16795842355E+03  0.18612650063E+03  0.00000000000E+00 0.  1.
</event>
<event>
 7    1  0.6508013E-006  0.8150406E+02  0.7818608E-02  0.1449193E+00
          2   -1    0    0  502    0  0.00000000000E+00  0.00000000000E+00  0.16409208708E+04  0.16409208708E+04  0.00000000000E+00 0. -1.
          1   -1    0    0  501    0 -0.00000000000E+00 -0.00000000000E+00 -0.30632015637E+02  0.30632015637E+02  0.00000000000E+00 0. -1.
         25    2    1    2    0    0  0.26895159165E+02  0.99575708618E+02  0.53518562349E+03  0.55918462203E+03  0.12500047439E+03 0.  0.
          2    1    1    2  501    0  0.81659028334E+01 -0.28671748627E+02 -0.42563540087E+01  0.30114243936E+02  0.00000000000E+00 0. -1.
          1    1    1    2  502    0 -0.35061061998E+02 -0.70903959991E+02  0.10793595857E+04  0.10822540205E+04  0.00000000000E+00 0. -1.
         22    1    3    3    0    0  0.60798334917E+02  0.47001683188E+02  0.14586703338E+03  0.16487203274E+03  0.00000000000E+00 0.  1.
         22    1    3    3    0    0 -0.33903175752E+02  0.52574025430E+02  0.38931859010E+03  0.39431258929E+03  0.00000000000E+00 0.  1.
</event>
<event>
 7    1  0.6508013E-006  0.9230050E+02  0.7818608E-02  0.1317995E+00
          2   -1    0    0  502    0  0.00000000000E+00  0.00000000000E+00  0.11370772735E+04  0.11370772735E+04  0.00000000000E+00 0. -1.
          1   -1    0    0  501    0 -0.00000000000E+00 -0.00000000000E+00 -0.87698461926E+02  0.87698461926E+02  0.00000000000E+00 0. -1.
         25    2    1    2    0    0 -0.61612358466E+02  0.65211693552E+02  0.34039365617E+03  0.37354721244E+03  0.12498412327E+03 0.  0.
          2    1    1    2  501    0  0.95085178008E+02  0.35721476180E+01 -0.36438053093E+02  0.10189054435E+03  0.00000000000E+00 0. -1.
          1    1    1    2  502    0 -0.33472819541E+02 -0.68783841170E+02  0.74542320854E+03  0.74933797868E+03  0.00000000000E+00 0. -1.
         22    1    3    3    0    0  0.16712471576E+02  0.73084942099E+02  0.15757988643E+03  0.17450540414E+03  0.00000000000E+00 0.  1.
         22    1    3    3    0    0 -0.78324830043E+02 -0.78732485472E+01  0.18281376975E+03  0.19904180830E+03  0.00000000000E+00 0.  1.
</event>
<event>
 7    1  0.6508013E-006  0.2277187E+03  0.7818608E-02  0.1203484E+00
          2   -1    0    0  502    0  0.00000000000E+00  0.00000000000E+00  0.16043193138E+04  0.16043193138E+04  0.00000000000E+00 0. -1.
          1   -1    0    0  501    0 -0.00000000000E+00 -0.00000000000E+00 -0.36801020888E+03  0.36801020888E+03  0.00000000000E+00 0. -1.
         25    2    1    2    0    0 -0.51424000612E+02  0.29269121910E+03  0.65431546478E+03  0.72943075739E+03  0.12501169861E+03 0.  0.
          2    1    1    2  501    0 -0.87863203308E+01 -0.95234126279E+02 -0.31150870311E+03  0.32585949479E+03  0.00000000000E+00 0. -1.
          1    1    1    2  502    0  0.60210320943E+02 -0.19745709283E+03  0.89350234326E+03  0.91703927052E+03  0.00000000000E+00 0. -1.
         22    1    3    3    0    0 -0.44590706570E+02  0.21141249563E+02  0.12728744170E+03  0.13651877659E+03  0.00000000000E+00 0.  1.
         22    1    3    3    0    0 -0.68332940424E+01  0.27154996954E+03  0.52702802308E+03  0.59291198080E+03  0.00000000000E+00 0.  1.
</event>
<event>
 7    1  0.6508013E-006  0.8999726E+02  0.7818608E-02  0.1340261E+00
          2   -1    0    0  502    0  0.00000000000E+00  0.00000000000E+00  0.13030890983E+04  0.13030890983E+04  0.00000000000E+00 0. -1.
          1   -1    0    0  501    0 -0.00000000000E+00 -0.00000000000E+00 -0.13447313698E+03  0.13447313698E+03  0.00000000000E+00 0. -1.
         25    2    1    2    0    0  0.19709765317E+01  0.45992922121E+02  0.63955153589E+02  0.14776071858E+03  0.12499493850E+03 0.  0.
          2    1    1    2  501    0 -0.58569363575E+02  0.26971132311E+02 -0.79321383997E+02  0.10222374620E+03  0.00000000000E+00 0. -1.
          1    1    1    2  502    0  0.56598387044E+02 -0.72964054433E+02  0.11839821917E+04  0.11875777705E+04  0.00000000000E+00 0. -1.
         22    1    3    3    0    0  0.19715976864E+02  0.83978720986E+02  0.23284982513E+02  0.89349514452E+02  0.00000000000E+00 0.  1.
         22    1    3    3    0    0 -0.17745000332E+02 -0.37985798865E+02  0.40670171076E+02  0.58411204127E+02  0.00000000000E+00 0.  1.
</event>
<event>
 7    1  0.6508013E-006  0.1034516E+03  0.7818608E-02  0.1362622E+00
          2   -1    0    0  502    0  0.00000000000E+00  0.00000000000E+00  0.10986715890E+03  0.10986715890E+03  0.00000000000E+00 0. -1.
          1   -1    0    0  501    0 -0.00000000000E+00 -0.00000000000E+00 -0.46422305735E+03  0.46422305735E+03  0.00000000000E+00 0. -1.
         25    2    1    2    0    0 -0.11727621626E+03 -0.67895647897E+02 -0.26257502544E+03  0.32083352484E+03  0.12499990709E+03 0.  0.
          2    1    1    2  501    0  0.73973861230E+02  0.51307023436E+02 -0.15235868519E+03  0.17696810942E+03  0.00000000000E+00 0. -1.
          1    1    1    2  502    0  0.43302355032E+02  0.16588624461E+02  0.60577812185E+02  0.76288581989E+02  0.00000000000E+00 0. -1.
         22    1    3    3    0    0 -0.65817050203E+02 -0.69951917278E+01 -0.25874459828E+02  0.71065494272E+02  0.00000000000E+00 0. -1.
         22    1    3    3    0    0 -0.51459166058E+02 -0.60900456169E+02 -0.23670056561E+03  0.24976803057E+03  0.00000000000E+00 0. -1.
</event>
<event>
 7    1  0.6508013E-006  0.4100847E+02  0.7818608E-02  0.1516299E+00
          2   -1    0    0  502    0  0.00000000000E+00  0.00000000000E+00  0.21012882925E+03  0.21012882925E+03  0.00000000000E+00 0. -1.
          1   -1    0    0  501    0 -0.00000000000E+00 -0.00000000000E+00 -0.63938614835E+02  0.63938614835E+02  0.00000000000E+00 0. -1.
         25    2    1    2    0    0 -0.30440260271E+02  0.36851880523E+01  0.12229392104E+03  0.17754508926E+03  0.12500506207E+03 0.  0.
          2    1    1    2  501    0  0.43335832039E+01 -0.40778846965E+02 -0.70523515474E+01  0.41610455003E+02  0.00000000000E+00 0. -1.
          1    1    1    2  502    0  0.26106677067E+02  0.37093658913E+02  0.30948644918E+02  0.54911899815E+02  0.00000000000E+00 0. -1.
         22    1    3    3    0    0  0.31159816644E+02 -0.36820234098E+01 -0.87362119624E+01  0.32570122338E+02  0.00000000000E+00 0. -1.
         22    1    3    3    0    0 -0.61600076914E+02  0.73672114621E+01  0.13103013300E+03  0.14497496693E+03  0.00000000000E+00 0. -1.
</event>
<event>
 7    1  0.6508013E-006  0.1402430E+03  0.7818608E-02  0.1362018E+00
          2   -1    0    0  502    0  0.00000000000E+00  0.00000000000E+00  0.14493819037E+03  0.14493819037E+03  0.00000000000E+00 0. -1.
          1   -1    0    0  501    0 -0.00000000000E+00 -0.00000000000E+00 -0.88538764998E+03  0.88538764998E+03  0.00000000000E+00 0. -1.
         25    2    1    2    0    0 -0.10917778367E+03 -0.10178616977E+03 -0.13001334984E+03  0.23411243608E+03  0.12499979515E+03 0.  0.
          2    1    1    2  501    0  0.31789580394E+02 -0.13091298464E+02 -0.65098129920E+03  0.65188849616E+03  0.00000000000E+00 0. -1.
          1    1    1    2  502    0  0.77388203272E+02  0.11487746823E+03  0.40545189439E+02  0.14432490811E+03  0.00000000000E+00 0. -1.
         22    1    3    3    0    0 -0.13363314940E+03 -0.86943257817E+02 -0.12967102702E+03  0.20550309961E+03  0.00000000000E+00 0.  1.
         22    1    3    3    0    0  0.24455365737E+02 -0.14842911952E+02 -0.34232282035E+00  0.28609336473E+02  0.00000000000E+00 0.  1.
</event>
<event>
 7    1  0.6508013E-006  0.1042648E+03  0.7818608E-02  0.1459202E+00
          2   -1    0    0  502    0  0.00000000000E+00  0.00000000000E+00  0.80677594013E+03  0.80677594013E+03  0.00000000000E+00 0. -1.
          1   -1    0    0  501    0 -0.00000000000E+00 -0.00000000000E+00 -0.30404868505E+03  0.30404868505E+03  0.00000000000E+00 0. -1.
         25    2    1    2    0    0  0.62875055701E+01  0.10815812771E+03  0.53001700159E+02  0.17370801108E+03  0.12501031789E+03 0.  0.
          2    1    1    2  501    0 -0.26584550801E+02 -0.10060472286E+03 -0.23240766471E+03  0.25463968901E+03  0.00000000000E+00 0. -1.
          1    1    1    2  502    0  0.20297045230E+02 -0.75534048495E+01  0.68213321962E+03  0.68247692509E+03  0.00000000000E+00 0. -1.
         22    1    3    3    0    0  0.34276566509E+02  0.77862586358E+02 -0.22213987133E+02  0.87925687887E+02  0.00000000000E+00 0. -1.
         22    1    3    3    0    0 -0.27989060939E+02  0.30295541348E+02  0.75215687292E+02  0.85782323194E+02  0.00000000000E+00 0. -1.
</event>
<event>
 7    1  0.6508013E-006  0.4123923E+02  0.7818608E-02  0.1513465E+00
          2   -1    0    0  502    0  0.00000000000E+00  0.00000000000E+00  0.40553172456E+03  0.40553172456E+03  0.00000000000E+00 0. -1.
          1   -1    0    0  501    0 -0.00000000000E+00 -0.00000000000E+00 -0.18231054889E+04  0.18231054889E+04  0.00000000000E+00 0. -1.
         25    2    1    2    0    0 -0.14881313530E+01  0.15476658155E+02 -0.10217491567E+04  0.10294845142E+04  0.12500113709E+03 0.  0.
          2    1    1    2  501    0 -0.39736069868E+02 -0.14363540021E+02 -0.79586825945E+03  0.79698905446E+03  0.00000000000E+00 0. -1.
          1    1    1    2  502    0  0.41224201221E+02 -0.11131181339E+01  0.40004365184E+03  0.40216364477E+03  0.00000000000E+00 0. -1.
         22    1    3    3    0    0 -0.10531136844E+02  0.69075661162E+02 -0.65740991594E+03  0.66111281139E+03  0.00000000000E+00 0.  1.
         22    1    3    3    0    0  0.90430054913E+01 -0.53599003007E+02 -0.36433924076E+03  0.36837170281E+03  0.00000000000E+00 0.  1.
</event>
<event>
 7    1  0.6508013E-006  0.5926896E+02  0.7818608E-02  0.1414584E+00
          2   -1    0    0  502    0  0.00000000000E+00  0.00000000000E+00  0.51299568828E+03  0.51299568828E+03  0.00000000000E+00 0. -1.
          1   -1    0    0  501    0 -0.00000000000E+00 -0.00000000000E+00 -0.49340019890E+03  0.49340019890E+03  0.00000000000E+00 0. -1.
         25    2    1    2    0    0  0.94434740175E+02  0.17361764782E+02 -0.15664755755E+03  0.22222190623E+03  0.12499906916E+03 0.  0.
          2    1    1    2  501    0 -0.38641752229E+02 -0.36650856480E+02 -0.29979531286E+03  0.30448924432E+03  0.00000000000E+00 0. -1.
          1    1    1    2  502    0 -0.55792987946E+02  0.19289091698E+02  0.47603835979E+03  0.47968473663E+03  0.00000000000E+00 0. -1.
         22    1    3    3    0    0 -0.22065283931E+02  0.32739803607E+02 -0.31093134992E+02  0.50254895670E+02  0.00000000000E+00 0. -1.
         22    1    3    3    0    0  0.11650002411E+03 -0.15378038826E+02 -0.12555442256E+03  0.17196701056E+03  0.00000000000E+00 0. -1.
</event>
<event>
 7    1  0.6508013E-006  0.2376448E+03  0.7818608E-02  0.1232481E+00
          2   -1    0    0  502    0  0.00000000000E+00  0.00000000000E+00  0.20007438069E+04  0.20007438069E+04  0.00000000000E+00 0. -1.
          1   -1    0    0  501    0 -0.00000000000E+00 -0.00000000000E+00 -0.38465987981E+03  0.38465987981E+03  0.00000000000E+00 0. -1.
         25    2    1    2    0    0 -0.36637656508E+02 -0.23486289269E+03  0.15675776573E+03  0.31096739152E+03  0.12499930095E+03 0.  0.
          2    1    1    2  501    0 -0.64802161042E+02  0.18960208826E+02 -0.29568068695E+03  0.30329173782E+03  0.00000000000E+00 0. -1.
          1    1    1    2  502    0  0.10143981755E+03  0.21590268386E+03  0.17550068483E+04  0.17711445574E+04  0.00000000000E+00 0. -1.
         22    1    3    3    0    0  0.37278488838E+02 -0.97564394333E+02  0.10121198363E+03  0.14543851760E+03  0.00000000000E+00 0. -1.
         22    1    3    3    0    0 -0.73916145346E+02 -0.13729849835E+03  0.55545782096E+02  0.16552887392E+03  0.00000000000E+00 0. -1.
</event>
<event>
 7    1  0.6508013E-006  0.6239949E+02  0.7818608E-02  0.1425845E+00
          2   -1    0    0  502    0  0.00000000000E+00  0.00000000000E+00  0.14421230272E+04  0.14421230272E+04  0.00000000000E+00 0. -1.
          1   -1    0    0  501    0 -0.00000000000E+00 -0.00000000000E+00 -0.12816767514E+03  0.12816767514E+03  0.00000000000E+00 0. -1.
         25    2    1    2    0    0 -0.27892582369E+02 -0.30500215043E+02  0.34217557912E+03  0.36662994487E+03  0.12500052104E+03 0.  0.
          2    1    1    2  501    0 -0.51925324600E+01  0.63019501335E+02 -0.10678293517E+03  0.12410082669E+03  0.00000000000E+00 0. -1.
          1    1    1    2  502    0  0.33085114829E+02 -0.32519286291E+02  0.10785627081E+04  0.10795599308E+04  0.00000000000E+00 0. -1.
         22    1    3    3    0    0  0.34725168261E+02 -0.52687116417E+02  0.19960479912E+03  0.20934145642E+03  0.00000000000E+00 0. -1.
         22    1    3    3    0    0 -0.62617750630E+02  0.22186901374E+02  0.14257078001E+03  0.15728848845E+03  0.00000000000E+00 0. -1.
</event>
<event>
 7    1  0.6508013E-006  0.2291023E+03  0.7818608E-02  0.1212249E+00
          2   -1    0    0  502    0  0.00000000000E+00  0.00000000000E+00  0.27638691930E+04  0.27638691930E+04  0.00000000000E+00 0. -1.
          1   -1    0    0  501    0 -0.00000000000E+00 -0.00000000000E+00 -0.99072515835E+03  0.99072515835E+03  0.00000000000E+00 0. -1.
         25    2    1    2    0    0  0.23255770299E+03  0.13063908475E+03  0.62697697190E+03  0.69272951346E+03  0.12499759930E+03 0.  0.
          2    1    1    2  501    0 -0.12977601524E+02 -0.85559771446E+02 -0.94990598199E+03  0.95383974925E+03  0.00000000000E+00 0. -1.
          1    1    1    2  502    0 -0.21958010147E+03 -0.45079313308E+02  0.20960730448E+04  0.21080250887E+04  0.00000000000E+00 0. -1.
         22    1    3    3    0    0  0.10969988666E+03  0.16314332344E+01  0.31383076082E+03  0.33245521976E+03  0.00000000000E+00 0.  1.
         22    1    3    3    0    0  0.12285781633E+03  0.12900765152E+03  0.31314621109E+03  0.36027429370E+03  0.00000000000E+00 0.  1.
</event>
<event>
 7    1  0.6508013E-006  0.2740288E+03  0.7818608E-02  0.1186998E+00
          2   -1    0    0  502    0  0.00000000000E+00  0.00000000000E+00  0.20025015229E+04  0.20025015229E+04  0.00000000000E+00 0. -1.
          1   -1    0    0  501    0 -0.00000000000E+00 -0.00000000000E+00 -0.15501195997E+04  0.15501195997E+04  0.00000000000E+00 0. -1.
         25    2    1    2    0    0  0.12156323835E+03 -0.22180034953E+03 -0.53313549234E+03  0.60318425773E+03  0.12499911847E+03 0.  0.
          2    1    1    2  501    0 -0.81102882639E+02 -0.49848465586E+02 -0.97003370568E+03  0.97469376588E+03  0.00000000000E+00 0. -1.
          1    1    1    2  502    0 -0.40460355706E+02  0.27164881511E+03  0.19555511212E+04  0.19747430990E+04  0.00000000000E+00 0. -1.
         22    1    3    3    0    0  0.50152139613E+02 -0.18933439114E+03 -0.43855985375E+03  0.48030978971E+03  0.00000000000E+00 0.  1.
         22    1    3    3    0    0  0.71411098732E+02 -0.32465958386E+02 -0.94575638594E+02  0.12287446802E+03  0.00000000000E+00 0.  1.
</event>
<event>
 7    1  0.6508013E-006  0.9068112E+02  0.7818608E-02  0.1375171E+00
          2   -1    0    0  502    0  0.00000000000E+00  0.00000000000E+00  0.14837897775E+04  0.14837897775E+04  0.00000000000E+00 0. -1.
          1   -1    0    0  501    0 -0.00000000000E+00 -0.00000000000E+00 -0.38816026755E+03  0.38816026755E+03  0.00000000000E+00 0. -1.
         25    2    1    2    0    0  0.30413680579E+01 -0.44030564481E+02 -0.41549420095E+02  0.13892301835E+03  0.12500124076E+03 0.  0.
          2    1    1    2  501    0  0.11764919763E+02 -0.46199179062E+02 -0.29454908837E+03  0.29838220950E+03  0.00000000000E+00 0. -1.
          1    1    1    2  502    0 -0.14806287821E+02  0.90229743543E+02  0.14317280185E+04  0.14346448172E+04  0.00000000000E+00 0. -1.
         22    1    3    3    0    0 -0.94015833967E-02 -0.11973804560E+01  0.43569325335E+02  0.43585776562E+02  0.00000000000E+00 0.  1.
         22    1    3    3    0    0  0.30507696413E+01 -0.42833184025E+02 -0.85118745430E+02  0.95337241793E+02  0.00000000000E+00 0.  1.
</event>
<event>
 7    1  0.6508013E-006  0.8230008E+02  0.7818608E-02  0.1322780E+00
          2   -1    0    0  502    0  0.00000000000E+00  0.00000000000E+00  0.27974730662E+04  0.27974730662E+04  0.00000000000E+00 0. -1.
          1   -1    0    0  501    0 -0.00000000000E+00 -0.00000000000E+00 -0.15098227133E+03  0.15098227133E+03  0.00000000000E+00 0. -1.
         25    2    1    2    0    0  0.42643819699E+02 -0.33514834346E+01 -0.74316602525E+00  0.13211949944E+03  0.12500112814E+03 0.  0.
          2    1    1    2  501    0 -0.13591397515E+02  0.81071780648E+02 -0.63784958735E+02  0.10404749235E+03  0.00000000000E+00 0. -1.
          1    1    1    2  502    0 -0.29052422185E+02 -0.77720297214E+02  0.27110189197E+04  0.27122883458E+04  0.00000000000E+00 0. -1.
         22    1    3    3    0    0  0.26489985509E+02  0.57819377927E+02 -0.18810975480E+02  0.66322338580E+02  0.00000000000E+00 0.  1.
         22    1    3    3    0    0  0.16153834190E+02 -0.61170861362E+02  0.18067809455E+02  0.65797160860E+02  0.00000000000E+00 0.  1.
</event>
<event>
 7    1  0.6508013E-006  0.6420761E+02  0.7818608E-02  0.1428962E+00
          2   -1    0    0  502    0  0.00000000000E+00  0.00000000000E+00  0.20356763811E+04  0.20356763811E+04  0.00000000000E+00 0. -1.
          1   -1    0    0  501    0 -0.00000000000E+00 -0.00000000000E+00 -0.37872503318E+02  0.37872503318E+02  0.00000000000E+00 0. -1.
         25    2    1    2    0    0  0.13041226740E+01  0.10297904603E+03  0.46760179943E+03  0.49485636435E+03  0.12499997539E+03 0.  0.
          2    1    1    2  501    0  0.98079872350E+01 -0.60376497328E+02  0.15170221660E+02  0.63021057341E+02  0.00000000000E+00 0. -1.
          1    1    1    2  502    0 -0.11112109909E+02 -0.42602548700E+02  0.15150318567E+04  0.15156714627E+04  0.00000000000E+00 0. -1.
         22    1    3    3    0    0 -0.45924433573E+02  0.68665076134E+02  0.14383626612E+03  0.16586988193E+03  0.00000000000E+00 0. -1.
         22    1    3    3    0    0  0.47228556247E+02  0.34313969894E+02  0.32376553332E+03  0.32898648242E+03  0.00000000000E+00 0. -1.
</event>
<event>
 7    1  0.6508013E-006  0.3818111E+02  0.7818608E-02  0.1598896E+00
          2   -1    0    0  502    0  0.00000000000E+00  0.00000000000E+00  0.22754430777E+04  0.22754430777E+04  0.00000000000E+00 0. -1.
          1   -1    0    0  501    0 -0.00000000000E+00 -0.00000000000E+00 -0.48451880971E+01  0.48451880971E+01  0.00000000000E+00 0. -1.
         25    2    1    2    0    0 -0.31232721316E+02 -0.37247025175E+02  0.19614704266E+04  0.19660503053E+04  0.12499897948E+03 0.  0.
          2    1    1    2  501    0  0.12870404117E+01  0.23422054177E+02  0.12725874997E+03  0.12940262184E+03  0.00000000000E+00 0. -1.
          1    1    1    2  502    0  0.29945680904E+02  0.13824970998E+02  0.18186871304E+03  0.18483533864E+03  0.00000000000E+00 0. -1.
         22    1    3    3    0    0 -0.57006456275E+02  0.27704351804E+02  0.82267519176E+03  0.82511316696E+03  0.00000000000E+00 0. -1.
         22    1    3    3    0    0  0.25773734959E+02 -0.64951376980E+02  0.11387952348E+04  0.11409371383E+04  0.00000000000E+00 0. -1.
</event>
<event>
 7    1  0.6508013E-006  0.6283443E+02  0.7818608E-02  0.1432135E+00
          2   -1    0    0  502    0  0.00000000000E+00  0.00000000000E+00  0.99126328050E+03  0.99126328050E+03  0.00000000000E+00 0. -1.
          1   -1    0    0  501    0 -0.00000000000E+00 -0.00000000000E+00 -0.14562102303E+04  0.14562102303E+04  0.00000000000E+00 0. -1.
         25    2    1    2    0    0  0.89385205486E+02 -0.25656295007E+02 -0.10526347300E+03  0.18802676677E+03  0.12500282333E+03 0.  0.
          2    1    1    2  501    0 -0.27318964526E+02  0.34391823172E+02 -0.13081621905E+04  0.13088993238E+04  0.00000000000E+00 0. -1.
          1    1    1    2  502    0 -0.62066240959E+02 -0.87355281650E+01  0.94847871368E+03  0.95054742019E+03  0.00000000000E+00 0. -1.
         22    1    3    3    0    0  0.47410020321E+02 -0.55160421192E+02 -0.20495063998E+01  0.72763882313E+02  0.00000000000E+00 0. -1.
         22    1    3    3    0    0  0.41975185165E+02  0.29504126184E+02 -0.10321396660E+03  0.11526288446E+03  0.00000000000E+00 0. -1.
</event>
<event>
 7    1  0.6508013E-006  0.1668086E+03  0.7818608E-02  0.1257271E+00
          2   -1    0    0  502    0  0.00000000000E+00  0.00000000000E+00  0.30241997254E+04  0.30241997254E+04  0.00000000000E+00 0. -1.
          1   -1    0    0  501    0 -0.00000000000E+00 -0.00000000000E+00 -0.76858876551E+03  0.76858876551E+03  0.00000000000E+00 0. -1.
         25    2    1    2    0    0 -0.20644726096E+03 -0.12264815107E+03  0.38841475705E+03  0.47344693945E+03  0.12499176157E+03 0.  0.
          2    1    1    2  501    0  0.14152568333E+03  0.85231050170E+02 -0.71612460816E+03  0.73493421840E+03  0.00000000000E+00 0. -1.
          1    1    1    2  502    0  0.64921577627E+02  0.37417100895E+02  0.25833208110E+04  0.25844073331E+04  0.00000000000E+00 0. -1.
         22    1    3    3    0    0 -0.18665990348E+03 -0.47017689813E+02  0.27219250658E+03  0.33337867862E+03  0.00000000000E+00 0. -1.
         22    1    3    3    0    0 -0.19787357474E+02 -0.75630461252E+02  0.11622225048E+03  0.14006826083E+03  0.00000000000E+00 0. -1.
</event>
<event>
 7    1  0.6508013E-006  0.1139959E+03  0.7818608E-02  0.1396721E+00
          2   -1    0    0  502    0  0.00000000000E+00  0.00000000000E+00  0.10818809489E+04  0.10818809489E+04  0.00000000000E+00 0. -1.
          1   -1    0    0  501    0 -0.00000000000E+00 -0.00000000000E+00 -0.39848682333E+03  0.39848682333E+03  0.00000000000E+00 0. -1.
         25    2    1    2    0    0  0.89505900455E+02  0.69114703460E+02  0.44695466391E+03  0.47768376190E+03  0.12500062535E+03 0.  0.
          2    1    1    2  501    0  0.17777808125E+02 -0.26438922094E+02 -0.37706541520E+03  0.37840903055E+03  0.00000000000E+00 0. -1.
          1    1    1    2  502    0 -0.10728370858E+03 -0.42675781366E+02  0.61350487690E+03  0.62427497981E+03  0.00000000000E+00 0. -1.
         22    1    3    3    0    0  0.33799646034E+02 -0.56438794129E+01  0.31071012893E+03  0.31259407171E+03  0.00000000000E+00 0. -1.
         22    1    3    3    0    0  0.55706254422E+02  0.74758582873E+02  0.13624453498E+03  0.16508969019E+03  0.00000000000E+00 0. -1.
</event>
<event>
 7    1  0.6508013E-006  0.9305655E+02  0.7818608E-02  0.1388814E+00
          2   -1    0    0  502    0  0.00000000000E+00  0.00000000000E+00  0.10169833827E+04  0.10169833827E+04  0.00000000000E+00 0. -1.
          1   -1    0    0  501    0 -0.00000000000E+00 -0.00000000000E+00 -0.54611299460E+03  0.54611299460E+03  0.00000000000E+00 0. -1.
         25    2    1    2    0    0  0.23482209364E+01 -0.63392078764E+02 -0.12195901261E+02  0.14070536748E+03  0.12500076256E+03 0.  0.
          2    1    1    2  501    0  0.28570356851E+02  0.91192013041E+02 -0.46434059339E+03  0.47407218353E+03  0.00000000000E+00 0. -1.
          1    1    1    2  502    0 -0.30918577787E+02 -0.27799934277E+02  0.94740688272E+03  0.94831882625E+03  0.00000000000E+00 0. -1.
         22    1    3    3    0    0  0.21450297005E+02 -0.20060388496E+02  0.52722363553E+02  0.60350493344E+02  0.00000000000E+00 0. -1.
         22    1    3    3    0    0 -0.19102076069E+02 -0.43331690268E+02 -0.64918264813E+02  0.80354874140E+02  0.00000000000E+00 0. -1.
</event>
<event>
 7    1  0.6508013E-006  0.1163072E+03  0.7818608E-02  0.1330962E+00
          2   -1    0    0  502    0  0.00000000000E+00  0.00000000000E+00  0.61528246642E+03  0.61528246642E+03  0.00000000000E+00 0. -1.
          1   -1    0    0  501    0 -0.00000000000E+00 -0.00000000000E+00 -0.11930347875E+04  0.11930347875E+04  0.00000000000E+00 0. -1.
         25    2    1    2    0    0  0.82932198628E+00 -0.67787002168E+02 -0.29469830132E+03  0.32721033217E+03  0.12499498886E+03 0.  0.
          2    1    1    2  501    0  0.29230988226E+02 -0.45534882740E+02 -0.87550061184E+03  0.87717113356E+03  0.00000000000E+00 0. -1.
          1    1    1    2  502    0 -0.30060310213E+02  0.11332188491E+03  0.59244659205E+03  0.60393578821E+03  0.00000000000E+00 0. -1.
         22    1    3    3    0    0  0.57565482116E+02 -0.59383861599E+01 -0.13239078319E+03  0.14448656904E+03  0.00000000000E+00 0. -1.
         22    1    3    3    0    0 -0.56736160130E+02 -0.61848616008E+02 -0.16230751814E+03  0.18272376313E+03  0.00000000000E+00 0. -1.
</event>
<event>
 7    1  0.6508013E-006  0.1210273E+03  0.7818608E-02  0.1333417E+00
          2   -1    0    0  502    0  0.00000000000E+00  0.00000000000E+00  0.12265899209E+04  0.12265899209E+04  0.00000000000E+00 0. -1.
          1   -1    0    0  501    0 -0.00000000000E+00 -0.00000000000E+00 -0.13080149240E+04  0.13080149240E+04  0.00000000000E+00 0. -1.
         25    2    1    2    0    0 -0.79025291119E+02 -0.44956554250E+02  0.31755300266E+03  0.35317199878E+03  0.12499785124E+03 0.  0.
          2    1    1    2  501    0  0.12037470807E+03  0.15288089338E+02 -0.12866219603E+04  0.12923311746E+04  0.00000000000E+00 0. -1.
          1    1    1    2  502    0 -0.41349416950E+02  0.29668464912E+02  0.88764395457E+03  0.88910167145E+03  0.00000000000E+00 0. -1.
         22    1    3    3    0    0 -0.16736017426E+02  0.15523326881E+02  0.22543613378E+03  0.22658887521E+03  0.00000000000E+00 0. -1.
         22    1    3    3    0    0 -0.62289273693E+02 -0.60479881131E+02  0.92116868881E+02  0.12658312356E+03  0.00000000000E+00 0. -1.
</event>
<event>
 7    1  0.6508013E-006  0.4141460E+02  0.7818608E-02  0.1560501E+00
          2   -1    0    0  502    0  0.00000000000E+00  0.00000000000E+00  0.93490963350E+01  0.93490963350E+01  0.00000000000E+00 0. -1.
          1   -1    0    0  501    0 -0.00000000000E+00 -0.00000000000E+00 -0.12057959793E+04  0.12057959793E+04  0.00000000000E+00 0. -1.
         25    2    1    2    0    0  0.27677344526E+02 -0.24238263011E+01 -0.76145103482E+03  0.77213748841E+03  0.12496684463E+03 0.  0.
          2    1    1    2  501    0 -0.40823517485E+02 -0.21633540778E+02 -0.36369583627E+03  0.36661864517E+03  0.00000000000E+00 0. -1.
          1    1    1    2  502    0  0.13146172959E+02  0.24057367079E+02 -0.71300011926E+02  0.76388942098E+02  0.00000000000E+00 0. -1.
         22    1    3    3    0    0  0.36168077206E+02 -0.49855085227E+02 -0.21739636910E+03  0.22595318239E+03  0.00000000000E+00 0. -1.
         22    1    3    3    0    0 -0.84907326797E+01  0.47431258926E+02 -0.54405466572E+03  0.54618430603E+03  0.00000000000E+00 0. -1.
</event>
<event>
 7    1  0.6508013E-006  0.9061057E+02  0.7818608E-02  0.1393477E+00
          2   -1    0    0  502    0  0.00000000000E+00  0.00000000000E+00  0.67202983340E+03  0.67202983340E+03  0.00000000000E+00 0. -1.
          1   -1    0    0  501    0 -0.00000000000E+00 -0.00000000000E+00 -0.18151507430E+04  0.18151507430E+04  0.00000000000E+00 0. -1.
         25    2    1    2    0    0 -0.55406760948E+01 -0.53340621045E+02  0.36408370802E+03  0.38866063446E+03  0.12499688553E+03 0.  0.
          2    1    1    2  501    0  0.31862789340E+02  0.84949100213E+02 -0.18002836934E+04  0.18025684352E+04  0.00000000000E+00 0. -1.
          1    1    1    2  502    0 -0.26322113245E+02 -0.31608479168E+02  0.29307907583E+03  0.29595150666E+03  0.00000000000E+00 0. -1.
         22    1    3    3    0    0 -0.63882468763E+02 -0.42189673182E+02  0.19924392601E+03  0.21344573172E+03  0.00000000000E+00 0.  1.
         22    1    3    3    0    0  0.58341792668E+02 -0.11150947863E+02  0.16483978201E+03  0.17521490274E+03  0.00000000000E+00 0.  1.
</event>
<event>
 7    1  0.6508013E-006  0.6499735E+02  0.7818608E-02  0.1531613E+00
          2   -1    0    0  502    0  0.00000000000E+00  0.00000000000E+00  0.15382031077E+04  0.15382031077E+04  0.00000000000E+00 0. -1.
          1   -1    0    0  501    0 -0.00000000000E+00 -0.00000000000E+00 -0.14655038495E+04  0.14655038495E+04  0.00000000000E+00 0. -1.
         25    2    1    2    0    0 -0.84212274875E+02  0.10597516504E+01  0.10419778822E+03  0.18323355607E+03  0.12499810673E+03 0.  0.
          2    1    1    2  501    0  0.64573237086E+02  0.65176325646E+01 -0.14251679745E+04  0.14266449937E+04  0.00000000000E+00 0. -1.
          1    1    1    2  502    0  0.19639037789E+02 -0.75773842150E+01  0.13936694446E+04  0.13938284074E+04  0.00000000000E+00 0. -1.
         22    1    3    3    0    0 -0.80598945843E+02 -0.49268317586E+02  0.42649794721E+02  0.10364633220E+03  0.00000000000E+00 0.  1.
         22    1    3    3    0    0 -0.36133290320E+01  0.50328069236E+02  0.61547993496E+02  0.79587223868E+02  0.00000000000E+00 0.  1.
</event>
<event>
 7    1  0.6508013E-006  0.7993902E+02  0.7818608E-02  0.1343002E+00
          2   -1    0    0  502    0  0.00000000000E+00  0.00000000000E+00  0.42189034699E+03  0.42189034699E+03  0.00000000000E+00 0. -1.
          1   -1    0    0  501    0 -0.00000000000E+00 -0.00000000000E+00 -0.87929184380E+03  0.87929184380E+03  0.00000000000E+00 0. -1.
         25    2    1    2    0    0  0.90200239971E+02  0.75827294961E+02 -0.19417205263E+03  0.25925578524E+03  0.12499965681E+03 0.  0.
          2    1    1    2  501    0 -0.70880336747E+02  0.14435632872E+01 -0.64654641450E+03  0.65042168791E+03  0.00000000000E+00 0. -1.
          1    1    1    2  502    0 -0.19319903223E+02 -0.77270858248E+02  0.38331697032E+03  0.39150471763E+03  0.00000000000E+00 0. -1.
         22    1    3    3    0    0  0.11856872791E+03  0.80041175595E+02 -0.16406066578E+03  0.21767185185E+03  0.00000000000E+00 0. -1.
         22    1    3    3    0    0 -0.28368487942E+02 -0.42138806343E+01 -0.30111386850E+02  0.41583933390E+02  0.00000000000E+00 0. -1.
</event>
<event>
 7    1  0.6508013E-006  0.7972119E+02  0.7818608E-02  0.1352393E+00
          2   -1    0    0  502    0  0.00000000000E+00  0.00000000000E+00  0.22449103625E+04  0.22449103625E+04  0.00000000000E+00 0. -1.
          1   -1    0    0  501    0 -0.00000000000E+00 -0.00000000000E+00 -0.10995675412E+03  0.10995675412E+03  0.00000000000E+00 0. -1.
         25    2    1    2    0    0 -0.14725817935E+02  0.12780222374E+02  0.15557511892E+03  0.20052328332E+03  0.12500314286E+03 0.  0.
          2    1    1    2  501    0 -0.65446256258E+02  0.44423554638E+01 -0.74251757719E+02  0.99077093743E+02  0.00000000000E+00 0. -1.
          1    1    1    2  502    0  0.80172074193E+02 -0.17222577838E+02  0.20536302472E+04  0.20552667396E+04  0.00000000000E+00 0. -1.
         22    1    3    3    0    0  0.41658058833E+02  0.43997173516E+02  0.60179382077E+02  0.85397325311E+02  0.00000000000E+00 0. -1.
         22    1    3    3    0    0 -0.56383876768E+02 -0.31216951141E+02  0.95395736848E+02  0.11512595801E+03  0.00000000000E+00 0. -1.
</event>
<event>
 7    1  0.6508013E-006  0.6908703E+02  0.7818608E-02  0.1388119E+00
          2   -1    0    0  502    0  0.00000000000E+00  0.00000000000E+00  0.20881961851E+04  0.20881961851E+04  0.00000000000E+00 0. -1.
          1   -1    0    0  501    0 -0.00000000000E+00 -0.00000000000E+00 -0.55864609688E+02  0.55864609688E+02  0.00000000000E+00 0. -1.
         25    2    1    2    0    0 -0.15368256809E+02 -0.12185801992E+02  0.70877024961E+02  0.14502772837E+03  0.12499924897E+03 0.  0.
          2    1    1    2  501    0 -0.54623062572E+02  0.13716159033E+02  0.25516555879E+02  0.61829657991E+02  0.00000000000E+00 0. -1.
          1    1    1    2  502    0  0.69991319381E+02 -0.15303570407E+01  0.19359379946E+04  0.19372034084E+04  0.00000000000E+00 0. -1.
         22    1    3    3    0    0  0.17867554961E+02  0.42211996184E+02  0.66977797303E+02  0.81161120456E+02  0.00000000000E+00 0. -1.
         22    1    3    3    0    0 -0.33235811770E+02 -0.54397798176E+02  0.38992276579E+01  0.63866607917E+02  0.00000000000E+00 0. -1.
</event>
<event>
 7    1  0.7204837E-006  0.6362731E+02  0.7818608E-02  0.1430181E+00
          2   -1    0    0  502    0  0.00000000000E+00  0.00000000000E+00  0.41558513425E+03  0.41558513425E+03  0.00000000000E+00 0. -1.
          1   -1    0    0  501    0 -0.00000000000E+00 -0.00000000000E+00 -0.19918875381E+04  0.19918875381E+04  0.00000000000E+00 0. -1.
         25    2    1    2    0    0  0.19033833590E+02  0.58735730804E+01 -0.37413825994E+03  0.39496694824E+03  0.12499066751E+03 0.  0.
          2    1    1    2  501    0  0.42783571270E+02  0.10362902582E+02 -0.16045106266E+04  0.16051143806E+04  0.00000000000E+00 0. -1.
          1    1    1    2  502    0 -0.61817404860E+02 -0.16236475662E+02  0.40234648270E+03  0.40739134358E+03  0.00000000000E+00 0. -1.
         22    1    3    3    0    0 -0.40943843662E+02  0.29006182171E+02 -0.25197407208E+03  0.25692156378E+03  0.00000000000E+00 0. -1.
         22    1    3    3    0    0  0.59977677252E+02 -0.23132609091E+02 -0.12216418786E+03  0.13804538445E+03  0.00000000000E+00 0. -1.
</event>
<event>
 7    1  0.6508013E-006  0.5825702E+02  0.7818608E-02  0.1424908E+00
          2   -1    0    0  502    0  0.00000000000E+00  0.00000000000E+00  0.14555887975E+04  0.14555887975E+04  0.00000000000E+00 0. -1.
          1   -1    0    0  501    0 -0.00000000000E+00 -0.00000000000E+00 -0.20688665774E+03  0.20688665774E+03  0.00000000000E+00 0. -1.
         25    2    1    2    0    0 -0.77228897005E+02  0.74181914637E+02  0.22364628201E+03  0.27768514164E+03  0.12499647771E+03 0.  0.
          2    1    1    2  501    0  0.38357061874E+02 -0.42659975758E+02 -0.17475786697E+03  0.18393327539E+03  0.00000000000E+00 0. -1.
          1    1    1    2  502    0  0.38871835131E+02 -0.31521938879E+02  0.11998137247E+04  0.12008570382E+04  0.00000000000E+00 0. -1.
         22    1    3    3    0    0 -0.10840300950E+02 -0.34874883952E+02  0.41999233523E+02  0.55657032547E+02  0.00000000000E+00 0.  1.
         22    1    3    3    0    0 -0.66388596055E+02  0.10905679859E+03  0.18164704849E+03  0.22202810910E+03  0.00000000000E+00 0.  1.
</event>
<event>
 7    1  0.6508013E-006  0.7983587E+02  0.7818608E-02  0.1430730E+00
          2   -1    0    0  502    0  0.00000000000E+00  0.00000000000E+00  0.22435959575E+03  0.22435959575E+03  0.00000000000E+00 0. -1.
          1   -1    0    0  501    0 -0.00000000000E+00 -0.00000000000E+00 -0.28080353407E+03  0.28080353407E+03  0.00000000000E+00 0. -1.
         25    2    1    2    0    0  0.63881928079E+02 -0.82490878325E+02 -0.13420234493E+03  0.21099883979E+03  0.12499838106E+03 0.  0.
          2    1    1    2  501    0 -0.10623948574E+01  0.34921715136E+02 -0.96655618063E+02  0.10277627826E+03  0.00000000000E+00 0. -1.
          1    1    1    2  502    0 -0.62819533221E+02  0.47569163189E+02  0.17441402467E+03  0.19138801175E+03  0.00000000000E+00 0. -1.
         22    1    3    3    0    0  0.76586189904E+02 -0.26901602188E+02 -0.13071649473E+03  0.15386988880E+03  0.00000000000E+00 0.  1.
         22    1    3    3    0    0 -0.12704261826E+02 -0.55589276137E+02 -0.34858502010E+01  0.57128950994E+02  0.00000000000E+00 0.  1.
</event>
<event>
 7    1  0.6508013E-006  0.4485928E+02  0.7818608E-02  0.1552673E+00
          2   -1    0    0  502    0  0.00000000000E+00  0.00000000000E+00  0.14743047192E+04  0.14743047192E+04  0.00000000000E+00 0. -1.
          1   -1    0    0  501    0 -0.00000000000E+00 -0.00000000000E+00 -0.12824598932E+02  0.12824598932E+02  0.00000000000E+00 0. -1.
         25    2    1    2    0    0 -0.17583127941E+00 -0.23005135670E+02  0.42568695018E+03  0.44425489371E+03  0.12499505531E+03 0.  0.
          2    1    1    2  501    0  0.17839232748E+02 -0.19735576337E+02  0.56077550144E+02  0.62067888868E+02  0.00000000000E+00 0. -1.
          1    1    1    2  502    0 -0.17663401468E+02  0.42740712007E+02  0.97971561997E+03  0.98080653558E+03  0.00000000000E+00 0. -1.
         22    1    3    3    0    0 -0.11307318906E+02  0.49696350594E+02  0.13197723144E+03  0.14147640207E+03  0.00000000000E+00 0. -1.
         22    1    3    3    0    0  0.11131487627E+02 -0.72701486265E+02  0.29370971874E+03  0.30277849165E+03  0.00000000000E+00 0. -1.
</event>
<event>
 7    1  0.6508013E-006  0.7189434E+02  0.7818608E-02  0.1366057E+00
          2   -1    0    0  502    0  0.00000000000E+00  0.00000000000E+00  0.94978846555E+03  0.94978846555E+03  0.00000000000E+00 0. -1.
          1   -1    0    0  501    0 -0.00000000000E+00 -0.00000000000E+00 -0.10300367283E+03  0.10300367283E+03  0.00000000000E+00 0. -1.
         25    2    1    2    0    0  0.10406287806E+02  0.16909861405E+02  0.85517127414E+02  0.15275206181E+03  0.12500311623E+03 0.  0.
          2    1    1    2  501    0 -0.72587649759E+02  0.19177184553E+02 -0.47003356553E+02  0.88577913907E+02  0.00000000000E+00 0. -1.
          1    1    1    2  502    0  0.62181361953E+02 -0.36087045958E+02  0.80827102186E+03  0.81146216266E+03  0.00000000000E+00 0. -1.
         22    1    3    3    0    0  0.45315639214E+02 -0.35522965548E+02  0.64232059084E+02  0.86262075403E+02  0.00000000000E+00 0.  1.
         22    1    3    3    0    0 -0.34909351408E+02  0.52432826953E+02  0.21285068330E+02  0.66489986402E+02  0.00000000000E+00 0.  1.
</event>
<event>
 7    1  0.6508013E-006  0.1108998E+03  0.7818608E-02  0.1409131E+00
          2   -1    0    0  502    0  0.00000000000E+00  0.00000000000E+00  0.22981971083E+04  0.22981971083E+04  0.00000000000E+00 0. -1.
          1   -1    0    0  501    0 -0.00000000000E+00 -0.00000000000E+00 -0.10658511459E+02  0.10658511459E+02  0.00000000000E+00 0. -1.
         25    2    1    2    0    0  0.76485691777E+02  0.55870992109E+02  0.13805417477E+04  0.13894241183E+04  0.12502893470E+03 0.  0.
          2    1    1    2  501    0 -0.86016637222E+02 -0.83997207803E+02  0.76181541800E+03  0.77124388095E+03  0.00000000000E+00 0. -1.
          1    1    1    2  502    0  0.95309454453E+01  0.28126215694E+02  0.14518143115E+03  0.14818762054E+03  0.00000000000E+00 0. -1.
         22    1    3    3    0    0  0.39611772436E+02  0.56503976460E+02  0.12873834225E+04  0.12892315031E+04  0.00000000000E+00 0. -1.
         22    1    3    3    0    0  0.36873919341E+02 -0.63298435126E+00  0.93158325165E+02  0.10019261522E+03  0.00000000000E+00 0. -1.
</event>
<event>
 7    1  0.6508013E-006  0.1605462E+03  0.7818608E-02  0.1335580E+00
          2   -1    0    0  502    0  0.00000000000E+00  0.00000000000E+00  0.15462617673E+04  0.15462617673E+04  0.00000000000E+00 0. -1.
          1   -1    0    0  501    0 -0.00000000000E+00 -0.00000000000E+00 -0.12654021095E+04  0.12654021095E+04  0.00000000000E+00 0. -1.
         25    2    1    2    0    0  0.18718295161E+03 -0.35851754640E+02 -0.42600766737E+03  0.48314655129E+03  0.12500100669E+03 0.  0.
          2    1    1    2  501    0 -0.15043892960E+03  0.27656841665E+02 -0.80337445903E+03  0.81780639142E+03  0.00000000000E+00 0. -1.
          1    1    1    2  502    0 -0.36744022017E+02  0.81949129759E+01  0.15102417842E+04  0.15107109341E+04  0.00000000000E+00 0. -1.
         22    1    3    3    0    0  0.10108163150E+03 -0.12831154495E+02 -0.91424434946E+02  0.13689617255E+03  0.00000000000E+00 0. -1.
         22    1    3    3    0    0  0.86101320109E+02 -0.23020600145E+02 -0.33458323243E+03  0.34625037874E+03  0.00000000000E+00 0. -1.
</event>
<event>
 7    1  0.6508013E-006  0.1549269E+03  0.7818608E-02  0.1272053E+00
          2   -1    0    0  502    0  0.00000000000E+00  0.00000000000E+00  0.32128083161E+03  0.32128083161E+03  0.00000000000E+00 0. -1.
          1   -1    0    0  501    0 -0.00000000000E+00 -0.00000000000E+00 -0.96415802330E+03  0.96415802330E+03  0.00000000000E+00 0. -1.
         25    2    1    2    0    0 -0.19563188604E+03  0.82099704869E+02 -0.44809115918E+02  0.25028996434E+03  0.12500005202E+03 0.  0.
          2    1    1    2  501    0  0.69145791381E+02 -0.98733785302E+01 -0.79062724821E+03  0.79370653877E+03  0.00000000000E+00 0. -1.
          1    1    1    2  502    0  0.12648609465E+03 -0.72226326339E+02  0.19255917243E+03  0.24144235180E+03  0.00000000000E+00 0. -1.
         22    1    3    3    0    0 -0.51584870238E+02  0.19643955098E+02  0.43387764226E+02  0.70209556998E+02  0.00000000000E+00 0. -1.
         22    1    3    3    0    0 -0.14404701580E+03  0.62455749771E+02 -0.88196880144E+02  0.18008040734E+03  0.00000000000E+00 0. -1.
</event>
<event>
 7    1  0.6508013E-006  0.6445500E+02  0.7818608E-02  0.1507967E+00
          2   -1    0    0  502    0  0.00000000000E+00  0.00000000000E+00  0.28663514628E+03  0.28663514628E+03  0.00000000000E+00 0. -1.
          1   -1    0    0  501    0 -0.00000000000E+00 -0.00000000000E+00 -0.24772092755E+03  0.24772092755E+03  0.00000000000E+00 0. -1.
         25    2    1    2    0    0  0.37079079073E+02 -0.78141212357E+02  0.25118628045E+02  0.15406782506E+03  0.12500016828E+03 0.  0.
          2    1    1    2  501    0 -0.45805833961E+01  0.24439176246E+02 -0.17735797762E+03  0.17909245463E+03  0.00000000000E+00 0. -1.
          1    1    1    2  502    0 -0.32498495677E+02  0.53702036112E+02  0.19115356831E+03  0.20119579414E+03  0.00000000000E+00 0. -1.
         22    1    3    3    0    0 -0.14290592370E+02 -0.96360417127E+02  0.13599795944E+02  0.98359063990E+02  0.00000000000E+00 0.  1.
         22    1    3    3    0    0  0.51369671443E+02  0.18219204770E+02  0.11518832101E+02  0.55708761067E+02  0.00000000000E+00 0.  1.
</event>
<event>
 7    1  0.6508013E-006  0.1338019E+03  0.7818608E-02  0.1232111E+00
          2   -1    0    0  502    0  0.00000000000E+00  0.00000000000E+00  0.60260927573E+03  0.60260927573E+03  0.00000000000E+00 0. -1.
          1   -1    0    0  501    0 -0.00000000000E+00 -0.00000000000E+00 -0.33986789133E+03  0.33986789133E+03  0.00000000000E+00 0. -1.
         25    2    1    2    0    0 -0.33341318505E+02 -0.10478077880E+03  0.11191213120E+02  0.16685734585E+03  0.12500190193E+03 0.  0.
          2    1    1    2  501    0  0.14036591225E+03  0.49678350609E+02 -0.23290500761E+03  0.27643312105E+03  0.00000000000E+00 0. -1.
          1    1    1    2  502    0 -0.10702459374E+03  0.55102428196E+02  0.48445517890E+03  0.49918670016E+03  0.00000000000E+00 0. -1.
         22    1    3    3    0    0 -0.15475170824E+02  0.21989014980E+02 -0.21841635507E+02  0.34641806151E+02  0.00000000000E+00 0. -1.
         22    1    3    3    0    0 -0.17866147681E+02 -0.12676979378E+03  0.33032848627E+02  0.13221553970E+03  0.00000000000E+00 0. -1.
</event>
<event>
 7    1  0.6508013E-006  0.4474850E+02  0.7818608E-02  0.1545581E+00
          2   -1    0    0  502    0  0.00000000000E+00  0.00000000000E+00  0.29465987114E+03  0.29465987114E+03  0.00000000000E+00 0. -1.
          1   -1    0    0  501    0 -0.00000000000E+00 -0.00000000000E+00 -0.46988270762E+03  0.46988270762E+03  0.00000000000E+00 0. -1.
         25    2    1    2    0    0 -0.20027961539E+02  0.25749542279E+01  0.20670965288E+02  0.12829276478E+03  0.12499598016E+03 0.  0.
          2    1    1    2  501    0  0.43335205598E+02  0.12785004993E+02 -0.41395293504E+03  0.41641136971E+03  0.00000000000E+00 0. -1.
          1    1    1    2  502    0 -0.23307244058E+02 -0.15359959221E+02  0.21805913327E+03  0.21983844427E+03  0.00000000000E+00 0. -1.
         22    1    3    3    0    0 -0.25899276133E+02 -0.42993530503E+02  0.52319609471E+02  0.72502122070E+02  0.00000000000E+00 0.  1.
         22    1    3    3    0    0  0.58713145935E+01  0.45568484731E+02 -0.31648644183E+02  0.55790642713E+02  0.00000000000E+00 0.  1.
</event>
<event>
 7    1  0.6508013E-006  0.3672680E+03  0.7818608E-02  0.1294314E+00
          2   -1    0    0  502    0  0.00000000000E+00  0.00000000000E+00  0.92255244783E+03  0.92255244783E+03  0.00000000000E+00 0. -1.
          1   -1    0    0  501    0 -0.00000000000E+00 -0.00000000000E+00 -0.60892474779E+03  0.60892474779E+03  0.00000000000E+00 0. -1.
         25    2    1    2    0    0  0.38001941428E+03  0.31770154223E+02  0.37098031259E+03  0.54651160983E+03  0.12499779766E+03 0.  0.
          2    1    1    2  501    0 -0.36511809834E+03 -0.13129273257E+02 -0.45672702845E+03  0.58487877553E+03  0.00000000000E+00 0. -1.
          1    1    1    2  502    0 -0.14901315942E+02 -0.18640880966E+02  0.39937441590E+03  0.40008681025E+03  0.00000000000E+00 0. -1.
         22    1    3    3    0    0  0.33064345515E+02 -0.89606814067E+01 -0.34410293872E+01  0.34429426932E+02  0.00000000000E+00 0. -1.
         22    1    3    3    0    0  0.34695506876E+03  0.40730835629E+02  0.37442134198E+03  0.51208218290E+03  0.00000000000E+00 0. -1.
</event>
<event>
 7    1  0.6508013E-006  0.1265606E+03  0.7818608E-02  0.1234537E+00
          2   -1    0    0  502    0  0.00000000000E+00  0.00000000000E+00  0.96891724288E+03  0.96891724288E+03  0.00000000000E+00 0. -1.
          1   -1    0    0  501    0 -0.00000000000E+00 -0.00000000000E+00 -0.17840727071E+03  0.17840727071E+03  0.00000000000E+00 0. -1.
         25    2    1    2    0    0  0.71707114890E+02  0.55087584065E+02 -0.74974269587E+02  0.17153873525E+03  0.12501137688E+03 0.  0.
          2    1    1    2  501    0  0.37751384009E+02 -0.12079907848E+03  0.29295306832E+02  0.12990688726E+03  0.00000000000E+00 0. -1.
          1    1    1    2  502    0 -0.10945849890E+03  0.65711494411E+02  0.83618893492E+03  0.84587889108E+03  0.00000000000E+00 0. -1.
         22    1    3    3    0    0  0.10572780019E+03  0.32531813861E+02 -0.68763581710E+02  0.13025020850E+03  0.00000000000E+00 0.  1.
         22    1    3    3    0    0 -0.34020685296E+02  0.22555770203E+02 -0.62106878769E+01  0.41288526752E+02  0.00000000000E+00 0.  1.
</event>
<event>
 7    1  0.6508013E-006  0.1057929E+03  0.7818608E-02  0.1310065E+00
          2   -1    0    0  502    0  0.00000000000E+00  0.00000000000E+00  0.28869803383E+03  0.28869803383E+03  0.00000000000E+00 0. -1.
          1   -1    0    0  501    0 -0.00000000000E+00 -0.00000000000E+00 -0.72206706005E+03  0.72206706005E+03  0.00000000000E+00 0. -1.
         25    2    1    2    0    0 -0.12433196036E+03  0.12244415046E+02 -0.27873963889E+02  0.17891216802E+03  0.12499697570E+03 0.  0.
          2    1    1    2  501    0  0.92327341235E+02  0.51901988010E+02 -0.60793628942E+03  0.61709374190E+03  0.00000000000E+00 0. -1.
          1    1    1    2  502    0  0.32004619126E+02 -0.64146403056E+02  0.20244122709E+03  0.21475918396E+03  0.00000000000E+00 0. -1.
         22    1    3    3    0    0 -0.79259817090E+02  0.66304603379E+02 -0.32633366220E+02  0.10836676439E+03  0.00000000000E+00 0. -1.
         22    1    3    3    0    0 -0.45072143271E+02 -0.54060188333E+02  0.47594023314E+01  0.70545403622E+02  0.00000000000E+00 0. -1.
</event>
<event>
 7    1  0.6508013E-006  0.1847567E+03  0.7818608E-02  0.1253110E+00
          2   -1    0    0  502    0  0.00000000000E+00  0.00000000000E+00  0.13573274655E+04  0.13573274655E+04  0.00000000000E+00 0. -1.
          1   -1    0    0  501    0 -0.00000000000E+00 -0.00000000000E+00 -0.68576684413E+03  0.68576684413E+03  0.00000000000E+00 0. -1.
         25    2    1    2    0    0  0.42666043975E+02  0.13761750726E+03 -0.19615970771E+03  0.27360921419E+03  0.12499760619E+03 0.  0.
          2    1    1    2  501    0 -0.86668953341E+02 -0.19269865694E+03 -0.42511531650E+03  0.47472867217E+03  0.00000000000E+00 0. -1.
          1    1    1    2  502    0  0.44002909367E+02  0.55081149680E+02  0.12928356456E+04  0.12947564233E+04  0.00000000000E+00 0. -1.
         22    1    3    3    0    0  0.69544493798E+01  0.21575223822E+02  0.16974186156E+02  0.28319209819E+02  0.00000000000E+00 0. -1.
         22    1    3    3    0    0  0.35711594595E+02  0.11604228344E+03 -0.21313389386E+03  0.24529000437E+03  0.00000000000E+00 0. -1.
</event>
<event>
 7    1  0.6508013E-006  0.2910681E+02  0.7818608E-02  0.1656870E+00
          2   -1    0    0  502    0  0.00000000000E+00  0.00000000000E+00  0.37959568587E+03  0.37959568587E+03  0.00000000000E+00 0. -1.
          1   -1    0    0  501    0 -0.00000000000E+00 -0.00000000000E+00 -0.50315080948E+03  0.50315080948E+03  0.00000000000E+00 0. -1.
         25    2    1    2    0    0 -0.41898400629E+01 -0.96855885256E+01 -0.48538457179E+02  0.13450734298E+03  0.12499951242E+03 0.  0.
          2    1    1    2  501    0 -0.72393542862E+01  0.28453175159E+02 -0.41074475712E+03  0.41179272325E+03  0.00000000000E+00 0. -1.
          1    1    1    2  502    0  0.11429194349E+02 -0.18767586633E+02  0.33572809068E+03  0.33644642911E+03  0.00000000000E+00 0. -1.
         22    1    3    3    0    0  0.50811507824E+02  0.25460017595E+02 -0.73004433540E+01  0.57300246915E+02  0.00000000000E+00 0. -1.
         22    1    3    3    0    0 -0.55001347887E+02 -0.35145606120E+02 -0.41238013825E+02  0.77207096068E+02  0.00000000000E+00 0. -1.
</event>
<event>
 7    1  0.6508013E-006  0.8293105E+02  0.7818608E-02  0.1417592E+00
          2   -1    0    0  502    0  0.00000000000E+00  0.00000000000E+00  0.98126516732E+03  0.98126516732E+03  0.00000000000E+00 0. -1.
          1   -1    0    0  501    0 -0.00000000000E+00 -0.00000000000E+00 -0.83269827940E+03  0.83269827940E+03  0.00000000000E+00 0. -1.
         25    2    1    2    0    0  0.32249724356E+02  0.35246044283E+02  0.50179857736E+02  0.14291698079E+03  0.12499966767E+03 0.  0.
          2    1    1    2  501    0  0.18610386324E+02  0.32195587077E+02 -0.78387169481E+03  0.78475329641E+03  0.00000000000E+00 0. -1.
          1    1    1    2  502    0 -0.50860110680E+02 -0.67441631360E+02  0.88225872499E+03  0.88629316951E+03  0.00000000000E+00 0. -1.
         22    1    3    3    0    0 -0.23146098686E+02 -0.35120699691E+02  0.42659161675E+01  0.42277694733E+02  0.00000000000E+00 0. -1.
         22    1    3    3    0    0  0.55395823043E+02  0.70366743974E+02  0.45913941568E+02  0.10063928606E+03  0.00000000000E+00 0. -1.
</event>
<event>
 7    1  0.6508013E-006  0.1116213E+03  0.7818608E-02  0.1363483E+00
          2   -1    0    0  502    0  0.00000000000E+00  0.00000000000E+00  0.15973007939E+04  0.15973007939E+04  0.00000000000E+00 0. -1.
          1   -1    0    0  501    0 -0.00000000000E+00 -0.00000000000E+00 -0.12511965113E+04  0.12511965113E+04  0.00000000000E+00 0. -1.
         25    2    1    2    0    0 -0.97411914093E+01  0.15091413712E+03 -0.89739744140E+02  0.21575071719E+03  0.12500073079E+03 0.  0.
          2    1    1    2  501    0  0.16120943111E+02 -0.10872507818E+03 -0.10954037908E+04  0.11009043975E+04  0.00000000000E+00 0. -1.
          1    1    1    2  502    0 -0.63797517013E+01 -0.42189058943E+02  0.15312478176E+04  0.15318421906E+04  0.00000000000E+00 0. -1.
         22    1    3    3    0    0 -0.67187339461E+02  0.90174174483E+02 -0.47334940155E+02  0.12200867546E+03  0.00000000000E+00 0. -1.
         22    1    3    3    0    0  0.57446148052E+02  0.60739962640E+02 -0.42404803986E+02  0.93742041735E+02  0.00000000000E+00 0. -1.
</event>
<event>
 7    1  0.6508013E-006  0.7100813E+02  0.7818608E-02  0.1382193E+00
          2   -1    0    0  502    0  0.00000000000E+00  0.00000000000E+00  0.29150482929E+03  0.29150482929E+03  0.00000000000E+00 0. -1.
          1   -1    0    0  501    0 -0.00000000000E+00 -0.00000000000E+00 -0.29999488554E+03  0.29999488554E+03  0.00000000000E+00 0. -1.
         25    2    1    2    0    0  0.13599336575E+02 -0.97673564339E+01 -0.89051428602E+02  0.15438696432E+03  0.12499933843E+03 0.  0.
          2    1    1    2  501    0  0.31935863061E+02 -0.47800218888E+02 -0.16819794358E+03  0.17775069198E+03  0.00000000000E+00 0. -1.
          1    1    1    2  502    0 -0.45535199636E+02  0.57567575322E+02  0.24875931594E+03  0.25936205852E+03  0.00000000000E+00 0. -1.
         22    1    3    3    0    0 -0.42292482791E+02 -0.21441602660E+02 -0.84767587589E+02  0.97128473327E+02  0.00000000000E+00 0. -1.
         22    1    3    3    0    0  0.55891819366E+02  0.11674246226E+02 -0.42838410139E+01  0.57258490993E+02  0.00000000000E+00 0. -1.
</event>
<event>
 7    1  0.6508013E-006  0.6852953E+02  0.7818608E-02  0.1499545E+00
          2   -1    0    0  502    0  0.00000000000E+00  0.00000000000E+00  0.52584089061E+03  0.52584089061E+03  0.00000000000E+00 0. -1.
          1   -1    0    0  501    0 -0.00000000000E+00 -0.00000000000E+00 -0.45192707039E+03  0.45192707039E+03  0.00000000000E+00 0. -1.
         25    2    1    2    0    0 -0.43880028550E+02 -0.17673264359E+02 -0.64741519549E+02  0.14850704220E+03  0.12500030420E+03 0.  0.
          2    1    1    2  501    0  0.68585973890E+02  0.15859482496E+02 -0.34139225461E+03  0.34857456950E+03  0.00000000000E+00 0. -1.
          1    1    1    2  502    0 -0.24705945340E+02  0.18137818628E+01  0.48004759437E+03  0.48068634930E+03  0.00000000000E+00 0. -1.
         22    1    3    3    0    0 -0.29536816727E+02 -0.14484220731E+02 -0.10268075946E+03  0.10782186492E+03  0.00000000000E+00 0.  1.
         22    1    3    3    0    0 -0.14343211823E+02 -0.31890436273E+01  0.37939239911E+02  0.40685177273E+02  0.00000000000E+00 0.  1.
</event>
<event>
 7    1  0.6508013E-006  0.8577500E+02  0.7818608E-02  0.1374296E+00
          2   -1    0    0  502    0  0.00000000000E+00  0.00000000000E+00  0.15921915610E+04  0.15921915610E+04  0.00000000000E+00 0. -1.
          1   -1    0    0  501    0 -0.00000000000E+00 -0.00000000000E+00 -0.41827594935E+02  0.41827594935E+02  0.00000000000E+00 0. -1.
         25    2    1    2    0    0  0.47264741724E+02 -0.11943348645E+03  0.59706242493E+03  0.62338382062E+03  0.12500214019E+03 0.  0.
          2    1    1    2  501    0 -0.30236186926E+02  0.40777209620E+02 -0.30952224134E+01  0.50858511834E+02  0.00000000000E+00 0. -1.
          1    1    1    2  502    0 -0.17028554798E+02  0.78656276834E+02  0.95639676350E+03  0.95977682343E+03  0.00000000000E+00 0. -1.
         22    1    3    3    0    0  0.67365701083E+02 -0.60777257619E+02  0.50029374469E+03  0.50845436737E+03  0.00000000000E+00 0. -1.
         22    1    3    3    0    0 -0.20100959358E+02 -0.58656228835E+02  0.96768680243E+02  0.11492945325E+03  0.00000000000E+00 0. -1.
</event>
<event>
 7    1  0.6508013E-006  0.8480433E+02  0.7818608E-02  0.1369348E+00
          2   -1    0    0  502    0  0.00000000000E+00  0.00000000000E+00  0.25392239947E+03  0.25392239947E+03  0.00000000000E+00 0. -1.
          1   -1    0    0  501    0 -0.00000000000E+00 -0.00000000000E+00 -0.82720964943E+03  0.82720964943E+03  0.00000000000E+00 0. -1.
         25    2    1    2    0    0 -0.89832037009E+02 -0.31122109440E+01  0.12853391822E+02  0.15449900633E+03  0.12500101018E+03 0.  0.
          2    1    1    2  501    0  0.17744055430E+02  0.50457154116E+02 -0.74444271976E+03  0.74636166763E+03  0.00000000000E+00 0. -1.
          1    1    1    2  502    0  0.72087981578E+02 -0.47344943172E+02  0.15830207798E+03  0.18027137494E+03  0.00000000000E+00 0. -1.
         22    1    3    3    0    0 -0.90634507800E+01 -0.45485959222E+02  0.37919433018E+02  0.59908280118E+02  0.00000000000E+00 0. -1.
         22    1    3    3    0    0 -0.80768586229E+02  0.42373748278E+02 -0.25066041195E+02  0.94590726214E+02  0.00000000000E+00 0. -1.
</event>
<event>
 7    1  0.6508013E-006  0.1886549E+03  0.7818608E-02  0.1315554E+00
          2   -1    0    0  502    0  0.00000000000E+00  0.00000000000E+00  0.10405566143E+04  0.10405566143E+04  0.00000000000E+00 0. -1.
          1   -1    0    0  501    0 -0.00000000000E+00 -0.00000000000E+00 -0.47135230055E+03  0.47135230055E+03  0.00000000000E+00 0. -1.
         25    2    1    2    0    0  0.10629475661E+02 -0.15354784715E+03  0.27007360624E+01  0.19829732309E+03  0.12499842899E+03 0.  0.
          2    1    1    2  501    0  0.11267827032E+01 -0.38239017671E+02 -0.36271892647E+03  0.36473073867E+03  0.00000000000E+00 0. -1.
          1    1    1    2  502    0 -0.11756258365E+02  0.19178686482E+03  0.92922250416E+03  0.94888085309E+03  0.00000000000E+00 0. -1.
         22    1    3    3    0    0  0.10979515925E+02  0.52521605040E+01  0.34289561838E+02  0.36385560473E+02  0.00000000000E+00 0. -1.
         22    1    3    3    0    0 -0.35004026404E+00 -0.15880000765E+03 -0.31588825776E+02  0.16191176261E+03  0.00000000000E+00 0. -1.
</event>
<event>
 7    1  0.6508013E-006  0.1277529E+03  0.7818608E-02  0.1333286E+00
          2   -1    0    0  502    0  0.00000000000E+00  0.00000000000E+00  0.16870115868E+04  0.16870115868E+04  0.00000000000E+00 0. -1.
          1   -1    0    0  501    0 -0.00000000000E+00 -0.00000000000E+00 -0.22505992481E+03  0.22505992481E+03  0.00000000000E+00 0. -1.
         25    2    1    2    0    0  0.66833134216E+02  0.13431574702E+03  0.41368340373E+03  0.45745305058E+03  0.12498778836E+03 0.  0.
          2    1    1    2  501    0  0.20055431498E+02 -0.43904598728E+02 -0.19711473800E+03  0.20293854750E+03  0.00000000000E+00 0. -1.
          1    1    1    2  502    0 -0.86888565714E+02 -0.90411148287E+02  0.12453829962E+04  0.12516799135E+04  0.00000000000E+00 0. -1.
         22    1    3    3    0    0  0.51446131723E+02 -0.78187136972E+01  0.10010203160E+03  0.11281956162E+03  0.00000000000E+00 0. -1.
         22    1    3    3    0    0  0.15387002492E+02  0.14213446071E+03  0.31358137213E+03  0.34463348896E+03  0.00000000000E+00 0. -1.
</event>
<event>
 7    1  0.6508013E-006  0.9664598E+02  0.7818608E-02  0.1326491E+00
          2   -1    0    0  502    0  0.00000000000E+00  0.00000000000E+00  0.11745940131E+04  0.11745940131E+04  0.00000000000E+00 0. -1.
          1   -1    0    0  501    0 -0.00000000000E+00 -0.00000000000E+00 -0.19230475579E+04  0.19230475579E+04  0.00000000000E+00 0. -1.
         25    2    1    2    0    0 -0.96948026794E+01 -0.11034291160E+02  0.52397567415E+03  0.53888012092E+03  0.12500213137E+03 0.  0.
          2    1    1    2  501    0  0.57934794614E+02 -0.77356351032E+02 -0.19104248762E+04  0.19128679131E+04  0.00000000000E+00 0. -1.
          1    1    1    2  502    0 -0.48239991934E+02  0.88390642192E+02  0.63799565718E+03  0.64589353692E+03  0.00000000000E+00 0. -1.
         22    1    3    3    0    0 -0.32443484028E+02  0.35778997121E+01  0.50450936634E+03  0.50556412229E+03  0.00000000000E+00 0.  1.
         22    1    3    3    0    0  0.22748681348E+02 -0.14612190872E+02  0.19466307803E+02  0.33315998629E+02  0.00000000000E+00 0.  1.
</event>
<event>
 7    1  0.6508013E-006  0.4369514E+03  0.7818608E-02  0.1279272E+00
          2   -1    0    0  502    0  0.00000000000E+00  0.00000000000E+00  0.88578307076E+03  0.88578307076E+03  0.00000000000E+00 0. -1.
          1   -1    0    0  501    0 -0.00000000000E+00 -0.00000000000E+00 -0.21018535232E+04  0.21018535232E+04  0.00000000000E+00 0. -1.
         25    2    1    2    0    0 -0.17316180981E+03  0.41440006134E+03 -0.62680879668E+03  0.78117012317E+03  0.12500028206E+03 0.  0.
          2    1    1    2  501    0  0.22495147659E+02 -0.52952320468E+01 -0.13389929982E+04  0.13391924135E+04  0.00000000000E+00 0. -1.
          1    1    1    2  502    0  0.15066666215E+03 -0.40910482929E+03  0.74973134250E+03  0.86727405724E+03  0.00000000000E+00 0. -1.
         22    1    3    3    0    0 -0.81461514596E+01  0.66034929713E+02 -0.17526628115E+03  0.18747064046E+03  0.00000000000E+00 0. -1.
         22    1    3    3    0    0 -0.16501565835E+03  0.34836513163E+03 -0.45154251553E+03  0.59369948271E+03  0.00000000000E+00 0. -1.
</event>
<event>
 7    1  0.6508013E-006  0.5841342E+02  0.7818608E-02  0.1492227E+00
          2   -1    0    0  502    0  0.00000000000E+00  0.00000000000E+00  0.46139899416E+03  0.46139899416E+03  0.00000000000E+00 0. -1.
          1   -1    0    0  501    0 -0.00000000000E+00 -0.00000000000E+00 -0.17335028977E+04  0.17335028977E+04  0.00000000000E+00 0. -1.
         25    2    1    2    0    0 -0.25979875877E+02  0.25757258638E+02  0.99559863299E+02  0.16393829397E+03  0.12500083011E+03 0.  0.
          2    1    1    2  501    0  0.55604534156E+02 -0.18213784258E+02 -0.17001005811E+04  0.17011071665E+04  0.00000000000E+00 0. -1.
          1    1    1    2  502    0 -0.29624658279E+02 -0.75434743794E+01  0.32843681424E+03  0.32985643139E+03  0.00000000000E+00 0. -1.
         22    1    3    3    0    0  0.95461600194E+01  0.67565396514E+02  0.81244029966E+02  0.10609808850E+03  0.00000000000E+00 0. -1.
         22    1    3    3    0    0 -0.35526035896E+02 -0.41808137877E+02  0.18315833333E+02  0.57840205479E+02  0.00000000000E+00 0. -1.
</event>
<event>
 7    1  0.6508013E-006  0.1149337E+03  0.7818608E-02  0.1278453E+00
          2   -1    0    0  502    0  0.00000000000E+00  0.00000000000E+00  0.16852373361E+04  0.16852373361E+04  0.00000000000E+00 0. -1.
          1   -1    0    0  501    0 -0.00000000000E+00 -0.00000000000E+00 -0.27753737734E+03  0.27753737734E+03  0.00000000000E+00 0. -1.
         25    2    1    2    0    0 -0.43018613867E+02 -0.30884768299E+02  0.11415436496E+03  0.17737579741E+03  0.12500593752E+03 0.  0.
          2    1    1    2  501    0  0.17119546943E+02 -0.86876878841E+02 -0.23550507833E+03  0.25160149618E+03  0.00000000000E+00 0. -1.
          1    1    1    2  502    0  0.25899066924E+02  0.11776164714E+03  0.15290506721E+04  0.15337974199E+04  0.00000000000E+00 0. -1.
         22    1    3    3    0    0 -0.63586134693E+02 -0.45181062748E+02  0.20813392827E+02  0.80732411566E+02  0.00000000000E+00 0. -1.
         22    1    3    3    0    0  0.20567520826E+02  0.14296294449E+02  0.93340972137E+02  0.96643385844E+02  0.00000000000E+00 0. -1.
</event>
<event>
 7    1  0.6508013E-006  0.4364967E+02  0.7818608E-02  0.1505928E+00
          2   -1    0    0  502    0  0.00000000000E+00  0.00000000000E+00  0.13906344466E+03  0.13906344466E+03  0.00000000000E+00 0. -1.
          1   -1    0    0  501    0 -0.00000000000E+00 -0.00000000000E+00 -0.14620947390E+04  0.14620947390E+04  0.00000000000E+00 0. -1.
         25    2    1    2    0    0  0.84224382117E+01 -0.34209347949E+02 -0.10394681593E+04  0.10475486661E+04  0.12499174664E+03 0.  0.
          2    1    1    2  501    0 -0.44238260189E+02  0.24047142962E+02 -0.41446708537E+03  0.41751437533E+03  0.00000000000E+00 0. -1.
          1    1    1    2  502    0  0.35815821977E+02  0.10162204986E+02  0.13090395035E+03  0.13609514221E+03  0.00000000000E+00 0. -1.
         22    1    3    3    0    0 -0.31179138114E+02 -0.26459515427E+01 -0.69040869071E+02  0.75800932152E+02  0.00000000000E+00 0.  1.
         22    1    3    3    0    0  0.39601576325E+02 -0.31563396406E+02 -0.97042729020E+03  0.97174773394E+03  0.00000000000E+00 0.  1.
</event>
<event>
 7    1  0.6508013E-006  0.4673576E+02  0.7818608E-02  0.1502920E+00
          2   -1    0    0  502    0  0.00000000000E+00  0.00000000000E+00  0.81920811332E+03  0.81920811332E+03  0.00000000000E+00 0. -1.
          1   -1    0    0  501    0 -0.00000000000E+00 -0.00000000000E+00 -0.45974146004E+03  0.45974146004E+03  0.00000000000E+00 0. -1.
         25    2    1    2    0    0  0.62532988479E+02  0.36635456604E+02  0.22816956784E+02  0.14628194166E+03  0.12500104644E+03 0.  0.
          2    1    1    2  501    0 -0.27056761134E+02 -0.37720817169E+02 -0.39622446327E+03  0.39893452302E+03  0.00000000000E+00 0. -1.
          1    1    1    2  502    0 -0.35476227345E+02  0.10853605655E+01  0.73287415976E+03  0.73373310867E+03  0.00000000000E+00 0. -1.
         22    1    3    3    0    0  0.98180550772E+02  0.94861379729E+01  0.74797680661E+01  0.98920949722E+02  0.00000000000E+00 0. -1.
         22    1    3    3    0    0 -0.35647562293E+02  0.27149318631E+02  0.15337188718E+02  0.47360991938E+02  0.00000000000E+00 0. -1.
</event>
<event>
 7    1  0.6508013E-006  0.8232980E+02  0.7818608E-02  0.1356547E+00
          2   -1    0    0  502    0  0.00000000000E+00  0.00000000000E+00  0.18994873062E+03  0.18994873062E+03  0.00000000000E+00 0. -1.
          1   -1    0    0  501    0 -0.00000000000E+00 -0.00000000000E+00 -0.32237558724E+04  0.32237558724E+04  0.00000000000E+00 0. -1.
         25    2    1    2    0    0  0.29196025995E+02 -0.30670857163E+02 -0.67436355903E+02  0.14821603842E+03  0.12500888983E+03 0.  0.
          2    1    1    2  501    0  0.27637307520E+01  0.83005598812E+02 -0.31090660109E+04  0.31101750800E+04  0.00000000000E+00 0. -1.
          1    1    1    2  502    0 -0.31959756747E+02 -0.52334741650E+02  0.14269522510E+03  0.15531348460E+03  0.00000000000E+00 0. -1.
         22    1    3    3    0    0 -0.33964690885E+02  0.27691783477E+02 -0.35791823950E+02  0.56581708712E+02  0.00000000000E+00 0. -1.
         22    1    3    3    0    0  0.63160716880E+02 -0.58362640640E+02 -0.31644531953E+02  0.91634329712E+02  0.00000000000E+00 0. -1.
</event>
<event>
 7    1  0.6508013E-006  0.6039981E+02  0.7818608E-02  0.1397545E+00
          2   -1    0    0  502    0  0.00000000000E+00  0.00000000000E+00  0.19158256789E+04  0.19158256789E+04  0.00000000000E+00 0. -1.
          1   -1    0    0  501    0 -0.00000000000E+00 -0.00000000000E+00 -0.49458286399E+03  0.49458286399E+03  0.00000000000E+00 0. -1.
         25    2    1    2    0    0 -0.88835411392E+01  0.54590903474E+01  0.68885675240E+03  0.70018360859E+03  0.12499896580E+03 0.  0.
          2    1    1    2  501    0 -0.31287671664E+02  0.50889946435E+02 -0.48610921126E+03  0.48976613840E+03  0.00000000000E+00 0. -1.
          1    1    1    2  502    0  0.40171212803E+02 -0.56349036782E+02  0.12184952738E+04  0.12204587959E+04  0.00000000000E+00 0. -1.
         22    1    3    3    0    0 -0.11615398703E+02 -0.15234795355E+02  0.11171539435E+02  0.22177009940E+02  0.00000000000E+00 0. -1.
         22    1    3    3    0    0  0.27318575634E+01  0.20693885702E+02  0.67768521296E+03  0.67800659865E+03  0.00000000000E+00 0. -1.
</event>
<event>
 7    1  0.6508013E-006  0.8069501E+02  0.7818608E-02  0.1373334E+00
          2   -1    0    0  502    0  0.00000000000E+00  0.00000000000E+00  0.19770904999E+04  0.19770904999E+04  0.00000000000E+00 0. -1.
          1   -1    0    0  501    0 -0.00000000000E+00 -0.00000000000E+00 -0.74486149676E+02  0.74486149676E+02  0.00000000000E+00 0. -1.
         25    2    1    2    0    0 -0.41606348118E+02  0.87303975495E+02  0.54172281821E+03  0.56430640281E+03  0.12500012858E+03 0.  0.
          2    1    1    2  501    0 -0.12256328855E+02 -0.79754118426E+02 -0.36690380809E+02  0.88640403016E+02  0.00000000000E+00 0. -1.
          1    1    1    2  502    0  0.53862676973E+02 -0.75498570696E+01  0.13975719128E+04  0.13986298437E+04  0.00000000000E+00 0. -1.
         22    1    3    3    0    0  0.14381285925E+02  0.25347723054E+02  0.18627603921E+02  0.34587802427E+02  0.00000000000E+00 0. -1.
         22    1    3    3    0    0 -0.55987634043E+02  0.61956252442E+02  0.52309521429E+03  0.52971860038E+03  0.00000000000E+00 0. -1.
</event>
<event>
 7    1  0.6508013E-006  0.9945844E+02  0.7818608E-02  0.1371228E+00
          2   -1    0    0  502    0  0.00000000000E+00  0.00000000000E+00  0.19126643500E+04  0.19126643500E+04  0.00000000000E+00 0. -1.
          1   -1    0    0  501    0 -0.00000000000E+00 -0.00000000000E+00 -0.20584479823E+03  0.20584479823E+03  0.00000000000E+00 0. -1.
         25    2    1    2    0    0  0.61128303913E+02 -0.12581760456E+02  0.13656706045E+03  0.19537440482E+03  0.12500250326E+03 0.  0.
          2    1    1    2  501    0  0.40006335608E+02  0.20387577053E+02 -0.17208524481E+03  0.17784682080E+03  0.00000000000E+00 0. -1.
          1    1    1    2  502    0 -0.10113463952E+03 -0.78058165964E+01  0.17423377361E+04  0.17452879226E+04  0.00000000000E+00 0. -1.
         22    1    3    3    0    0  0.51126185526E+02  0.11663932481E+02 -0.38006665692E+01  0.52577364272E+02  0.00000000000E+00 0. -1.
         22    1    3    3    0    0  0.10002118386E+02 -0.24245692937E+02  0.14036772702E+03  0.14279704054E+03  0.00000000000E+00 0. -1.
</event>
<event>
 7    1  0.6508013E-006  0.7004055E+02  0.7818608E-02  0.1476701E+00
          2   -1    0    0  502    0  0.00000000000E+00  0.00000000000E+00  0.13616693141E+03  0.13616693141E+03  0.00000000000E+00 0. -1.
          1   -1    0    0  501    0 -0.00000000000E+00 -0.00000000000E+00 -0.70838819966E+03  0.70838819966E+03  0.00000000000E+00 0. -1.
         25    2    1    2    0    0 -0.56314168923E+02 -0.46242531553E+02 -0.99377061726E+02  0.17553040867E+03  0.12500186649E+03 0.  0.
          2    1    1    2  501    0  0.32713900079E+02  0.62096678341E+02 -0.56666274051E+03  0.57099287054E+03  0.00000000000E+00 0. -1.
          1    1    1    2  502    0  0.23600268844E+02 -0.15854146788E+02  0.93818533985E+02  0.98031851859E+02  0.00000000000E+00 0. -1.
         22    1    3    3    0    0  0.20357811207E+01 -0.74406748950E+02 -0.76712190759E+02  0.10688904951E+03  0.00000000000E+00 0.  1.
         22    1    3    3    0    0 -0.58349950044E+02  0.28164217397E+02 -0.22664870966E+02  0.68641359162E+02  0.00000000000E+00 0.  1.
</event>
<event>
 7    1  0.6508013E-006  0.4042269E+02  0.7818608E-02  0.1583064E+00
          2   -1    0    0  502    0  0.00000000000E+00  0.00000000000E+00  0.67600402654E+02  0.67600402654E+02  0.00000000000E+00 0. -1.
          1   -1    0    0  501    0 -0.00000000000E+00 -0.00000000000E+00 -0.26181769379E+03  0.26181769379E+03  0.00000000000E+00 0. -1.
         25    2    1    2    0    0 -0.31530896300E+02 -0.18454050046E+02 -0.89137273250E+02  0.15783712268E+03  0.12502941425E+03 0.  0.
          2    1    1    2  501    0  0.41197863432E+02 -0.39471998489E+01 -0.13016599551E+03  0.13658708111E+03  0.00000000000E+00 0. -1.
          1    1    1    2  502    0 -0.96669671323E+01  0.22401249895E+02  0.25085977621E+02  0.34993892662E+02  0.00000000000E+00 0. -1.
         22    1    3    3    0    0  0.45052989237E+02  0.21523256514E+01 -0.55947377685E+02  0.71864549081E+02  0.00000000000E+00 0.  1.
         22    1    3    3    0    0 -0.76583885537E+02 -0.20606375698E+02 -0.33189895566E+02  0.85972573597E+02  0.00000000000E+00 0.  1.
</event>
<event>
 7    1  0.6508013E-006  0.3499370E+02  0.7818608E-02  0.1567778E+00
          2   -1    0    0  502    0  0.00000000000E+00  0.00000000000E+00  0.73501966678E+03  0.73501966678E+03  0.00000000000E+00 0. -1.
          1   -1    0    0  501    0 -0.00000000000E+00 -0.00000000000E+00 -0.51241983521E+03  0.51241983521E+03  0.00000000000E+00 0. -1.
         25    2    1    2    0    0  0.59564876338E+01  0.12015676293E+01  0.26428726701E+03  0.29242081702E+03  0.12500100486E+03 0.  0.
          2    1    1    2  501    0 -0.19840876850E+02 -0.28907746777E+02 -0.49720923353E+03  0.49844391873E+03  0.00000000000E+00 0. -1.
          1    1    1    2  502    0  0.13884389217E+02  0.27706179147E+02  0.45552179808E+03  0.45657476623E+03  0.00000000000E+00 0. -1.
         22    1    3    3    0    0  0.48904356315E+02 -0.31698028180E+02  0.71799387981E+02  0.92474608253E+02  0.00000000000E+00 0. -1.
         22    1    3    3    0    0 -0.42947868681E+02  0.32899595810E+02  0.19248787903E+03  0.19994620877E+03  0.00000000000E+00 0. -1.
</event>
<event>
 7    1  0.6508013E-006  0.7302721E+02  0.7818608E-02  0.1406450E+00
          2   -1    0    0  502    0  0.00000000000E+00  0.00000000000E+00  0.78892214672E+03  0.78892214672E+03  0.00000000000E+00 0. -1.
          1   -1    0    0  501    0 -0.00000000000E+00 -0.00000000000E+00 -0.12047741563E+04  0.12047741563E+04  0.00000000000E+00 0. -1.
         25    2    1    2    0    0  0.26648013075E+02 -0.27700491156E+02 -0.95380053309E+01  0.13112487782E+03  0.12500130490E+03 0.  0.
          2    1    1    2  501    0  0.45120249422E+02  0.92305370499E+01 -0.11320877092E+04  0.11330241043E+04  0.00000000000E+00 0. -1.
          1    1    1    2  502    0 -0.71768262497E+02  0.18469954106E+02  0.72577370490E+03  0.72954732090E+03  0.00000000000E+00 0. -1.
         22    1    3    3    0    0 -0.34619528363E+02  0.14023567397E+02  0.29270582416E+02  0.47454601269E+02  0.00000000000E+00 0. -1.
         22    1    3    3    0    0  0.61267541438E+02 -0.41724058553E+02 -0.38808587747E+02  0.83670276556E+02  0.00000000000E+00 0. -1.
</event>
<event>
 7    1  0.6508013E-006  0.5842156E+02  0.7818608E-02  0.1471475E+00
          2   -1    0    0  502    0  0.00000000000E+00  0.00000000000E+00  0.10306262301E+04  0.10306262301E+04  0.00000000000E+00 0. -1.
          1   -1    0    0  501    0 -0.00000000000E+00 -0.00000000000E+00 -0.11016042457E+03  0.11016042457E+03  0.00000000000E+00 0. -1.
         25    2    1    2    0    0 -0.18576738894E+02  0.28311234997E+02  0.17253279839E+03  0.21572949967E+03  0.12500011702E+03 0.  0.
          2    1    1    2  501    0  0.53895472818E+02 -0.26263094035E+02 -0.77993066552E+02  0.98373728854E+02  0.00000000000E+00 0. -1.
          1    1    1    2  502    0 -0.35318733924E+02 -0.20481409621E+01  0.82592607372E+03  0.82668342616E+03  0.00000000000E+00 0. -1.
         22    1    3    3    0    0 -0.64064578963E+01 -0.39225284439E+02  0.12773964940E+03  0.13377998233E+03  0.00000000000E+00 0.  1.
         22    1    3    3    0    0 -0.12170280998E+02  0.67536519437E+02  0.44793148987E+02  0.81949517347E+02  0.00000000000E+00 0.  1.
</event>
<event>
 7    1  0.6508013E-006  0.1377775E+03  0.7818608E-02  0.1288829E+00
          2   -1    0    0  502    0  0.00000000000E+00  0.00000000000E+00  0.50261392805E+03  0.50261392805E+03  0.00000000000E+00 0. -1.
          1   -1    0    0  501    0 -0.00000000000E+00 -0.00000000000E+00 -0.41933309655E+03  0.41933309655E+03  0.00000000000E+00 0. -1.
         25    2    1    2    0    0 -0.15363949632E+02 -0.11763513719E+03  0.97937254553E+02  0.19822024032E+03  0.12500192555E+03 0.  0.
          2    1    1    2  501    0  0.63598864152E+02 -0.20947135710E+02 -0.35070418419E+03  0.35703924550E+03  0.00000000000E+00 0. -1.
          1    1    1    2  502    0 -0.48234914519E+02  0.13858227290E+03  0.33604776113E+03  0.36668753879E+03  0.00000000000E+00 0. -1.
         22    1    3    3    0    0 -0.58051260196E+02 -0.13472024413E+02  0.38129591374E+02  0.70748215458E+02  0.00000000000E+00 0. -1.
         22    1    3    3    0    0  0.42687310563E+02 -0.10416311278E+03  0.59807663179E+02  0.12747202486E+03  0.00000000000E+00 0. -1.
</event>
<event>
 7    1  0.6508013E-006  0.4713714E+02  0.7818608E-02  0.1530050E+00
          2   -1    0    0  502    0  0.00000000000E+00  0.00000000000E+00  0.11268272186E+04  0.11268272186E+04  0.00000000000E+00 0. -1.
          1   -1    0    0  501    0 -0.00000000000E+00 -0.00000000000E+00 -0.31831035880E+03  0.31831035880E+03  0.00000000000E+00 0. -1.
         25    2    1    2    0    0  0.43479700137E+02 -0.37896418593E+02  0.83845522570E+02  0.16118731352E+03  0.12499862207E+03 0.  0.
          2    1    1    2  501    0 -0.14943465276E+02  0.44658911411E+02 -0.27744076331E+03  0.28140913750E+03  0.00000000000E+00 0. -1.
          1    1    1    2  502    0 -0.28536234861E+02 -0.67624928177E+01  0.10021121006E+04  0.10025411264E+04  0.00000000000E+00 0. -1.
         22    1    3    3    0    0  0.80335374426E+02 -0.45390480640E+02  0.33110758477E+02  0.98032598883E+02  0.00000000000E+00 0.  1.
         22    1    3    3    0    0 -0.36855674288E+02  0.74940620466E+01  0.50734764093E+02  0.63154714636E+02  0.00000000000E+00 0.  1.
</event>
<event>
 7    1  0.6508013E-006  0.9151300E+02  0.7818608E-02  0.1337692E+00
          2   -1    0    0  502    0  0.00000000000E+00  0.00000000000E+00  0.34074971467E+04  0.34074971467E+04  0.00000000000E+00 0. -1.
          1   -1    0    0  501    0 -0.00000000000E+00 -0.00000000000E+00 -0.45557090437E+03  0.45557090437E+03  0.00000000000E+00 0. -1.
         25    2    1    2    0    0  0.61035344943E+02 -0.65487038644E+02  0.19144094809E+03  0.24553781468E+03  0.12500126508E+03 0.  0.
          2    1    1    2  501    0 -0.59132869804E+02 -0.26604619175E+02 -0.42540009991E+03  0.43031354505E+03  0.00000000000E+00 0. -1.
          1    1    1    2  502    0 -0.19024751394E+01  0.92091657819E+02  0.31858853941E+04  0.31872166913E+04  0.00000000000E+00 0. -1.
         22    1    3    3    0    0 -0.39747790706E+01 -0.56077008943E+02  0.16571679239E+03  0.17499281437E+03  0.00000000000E+00 0. -1.
         22    1    3    3    0    0  0.65010124014E+02 -0.94100297015E+01  0.25724155704E+02  0.70545000319E+02  0.00000000000E+00 0. -1.
</event>
<event>
 7    1  0.6508013E-006  0.1714901E+03  0.7818608E-02  0.1203048E+00
          2   -1    0    0  502    0  0.00000000000E+00  0.00000000000E+00  0.94167850962E+03  0.94167850962E+03  0.00000000000E+00 0. -1.
          1   -1    0    0  501    0 -0.00000000000E+00 -0.00000000000E+00 -0.68229755412E+03  0.68229755412E+03  0.00000000000E+00 0. -1.
         25    2    1    2    0    0  0.88339239307E+02 -0.22967709299E+03  0.50614883915E+03  0.57651280448E+03  0.12499991247E+03 0.  0.
          2    1    1    2  501    0  0.17075993287E+02  0.12644779030E+03 -0.62687329015E+03  0.63972709426E+03  0.00000000000E+00 0. -1.
          1    1    1    2  502    0 -0.10541523259E+03  0.10322930269E+03  0.38010540651E+03  0.40773616500E+03  0.00000000000E+00 0. -1.
         22    1    3    3    0    0  0.21770492145E+02  0.12321850644E+02  0.46821077921E+02  0.53084796969E+02  0.00000000000E+00 0.  1.
         22    1    3    3    0    0  0.66568747162E+02 -0.24199894363E+03  0.45932776123E+03  0.52342800751E+03  0.00000000000E+00 0.  1.
</event>
<event>
 7    1  0.6508013E-006  0.1116411E+03  0.7818608E-02  0.1292997E+00
          2   -1    0    0  502    0  0.00000000000E+00  0.00000000000E+00  0.19413505844E+04  0.19413505844E+04  0.00000000000E+00 0. -1.
          1   -1    0    0  501    0 -0.00000000000E+00 -0.00000000000E+00 -0.62820528568E+02  0.62820528568E+02  0.00000000000E+00 0. -1.
         25    2    1    2    0    0  0.24883819336E+02  0.76745885174E+02  0.15635121731E+03  0.21582538998E+03  0.12500304176E+03 0.  0.
          2    1    1    2  501    0  0.76354054217E+02 -0.22059122535E+02  0.19566610449E+02  0.81849854776E+02  0.00000000000E+00 0. -1.
          1    1    1    2  502    0 -0.10123787355E+03 -0.54686762638E+02  0.17026122281E+04  0.17064958682E+04  0.00000000000E+00 0. -1.
         22    1    3    3    0    0 -0.35339083339E+02  0.72065566789E+02  0.53215183738E+02  0.96302401362E+02  0.00000000000E+00 0.  1.
         22    1    3    3    0    0  0.60222902675E+02  0.46803183849E+01  0.10313603357E+03  0.11952298861E+03  0.00000000000E+00 0.  1.
</event>
<event>
 7    1  0.6508013E-006  0.2697571E+02  0.7818608E-02  0.1680320E+00
          2   -1    0    0  502    0  0.00000000000E+00  0.00000000000E+00  0.22708104233E+02  0.22708104233E+02  0.00000000000E+00 0. -1.
          1   -1    0    0  501    0 -0.00000000000E+00 -0.00000000000E+00 -0.26462634951E+04  0.26462634951E+04  0.00000000000E+00 0. -1.
         25    2    1    2    0    0  0.40064611680E+01  0.44911037427E+02 -0.12224721451E+04  0.12296730716E+04  0.12499865741E+03 0.  0.
          2    1    1    2  501    0 -0.93753890876E+01 -0.18603110064E+02 -0.14106433471E+04  0.14107971599E+04  0.00000000000E+00 0. -1.
          1    1    1    2  502    0  0.53689279197E+01 -0.26307927364E+02  0.95601013975E+01  0.28501367825E+02  0.00000000000E+00 0. -1.
         22    1    3    3    0    0 -0.19838947318E+02  0.23028205581E+02 -0.11488399208E+04  0.11492419439E+04  0.00000000000E+00 0. -1.
         22    1    3    3    0    0  0.23845408486E+02  0.21882831846E+02 -0.73632224356E+02  0.80431127676E+02  0.00000000000E+00 0. -1.
</event>
<event>
 7    1  0.6508013E-006  0.2499015E+03  0.7818608E-02  0.1140477E+00
          2   -1    0    0  502    0  0.00000000000E+00  0.00000000000E+00  0.11925331838E+04  0.11925331838E+04  0.00000000000E+00 0. -1.
          1   -1    0    0  501    0 -0.00000000000E+00 -0.00000000000E+00 -0.92183824571E+03  0.92183824571E+03  0.00000000000E+00 0. -1.
         25    2    1    2    0    0 -0.13337563343E+03  0.21906040098E+03  0.71302926816E+03  0.76799252906E+03  0.12500107424E+03 0.  0.
          2    1    1    2  501    0 -0.43141595293E+02 -0.24752371620E+03 -0.85792426949E+03  0.89395930529E+03  0.00000000000E+00 0. -1.
          1    1    1    2  502    0  0.17651722872E+03  0.28463315222E+02  0.41558993943E+03  0.45241959518E+03  0.00000000000E+00 0. -1.
         22    1    3    3    0    0 -0.13487385959E+03  0.22170215333E+03  0.58555642275E+03  0.64048351034E+03  0.00000000000E+00 0. -1.
         22    1    3    3    0    0  0.14982261662E+01 -0.26417523486E+01  0.12747284541E+03  0.12750901871E+03  0.00000000000E+00 0. -1.
</event>
<event>
 7    1  0.6508013E-006  0.7629683E+02  0.7818608E-02  0.1376642E+00
          2   -1    0    0  502    0  0.00000000000E+00  0.00000000000E+00  0.57346426990E+03  0.57346426990E+03  0.00000000000E+00 0. -1.
          1   -1    0    0  501    0 -0.00000000000E+00 -0.00000000000E+00 -0.97196598736E+03  0.97196598736E+03  0.00000000000E+00 0. -1.
         25    2    1    2    0    0  0.14544431662E+02  0.15355376983E+02 -0.19333470776E+03  0.23119569697E+03  0.12500325188E+03 0.  0.
          2    1    1    2  501    0  0.43589468449E+02  0.35127115187E+02 -0.75598829760E+03  0.75805821814E+03  0.00000000000E+00 0. -1.
          1    1    1    2  502    0 -0.58133900111E+02 -0.50482492170E+02  0.55082128790E+03  0.55617634214E+03  0.00000000000E+00 0. -1.
         22    1    3    3    0    0  0.42027054103E+02  0.16953519495E+02 -0.19813479083E+03  0.20325129873E+03  0.00000000000E+00 0. -1.
         22    1    3    3    0    0 -0.27482622441E+02 -0.15981425125E+01  0.48000830672E+01  0.27944398243E+02  0.00000000000E+00 0. -1.
</event>
<event>
 7    1  0.6508013E-006  0.3834949E+03  0.7818608E-02  0.1125312E+00
          2   -1    0    0  502    0  0.00000000000E+00  0.00000000000E+00  0.75830813771E+03  0.75830813771E+03  0.00000000000E+00 0. -1.
          1   -1    0    0  501    0 -0.00000000000E+00 -0.00000000000E+00 -0.11925856235E+04  0.11925856235E+04  0.00000000000E+00 0. -1.
         25    2    1    2    0    0 -0.27219945718E+03  0.91540388035E+02 -0.18500659689E+02  0.31375270999E+03  0.12500520583E+03 0.  0.
          2    1    1    2  501    0 -0.13555232064E+03  0.35902421299E+02 -0.94593980982E+03  0.95627691559E+03  0.00000000000E+00 0. -1.
          1    1    1    2  502    0  0.40775177782E+03 -0.12744280933E+03  0.53016298368E+03  0.68086413566E+03  0.00000000000E+00 0. -1.
         22    1    3    3    0    0 -0.16564144849E+03  0.22449310847E+02 -0.63801581925E+02  0.17891814573E+03  0.00000000000E+00 0.  1.
         22    1    3    3    0    0 -0.10655800869E+03  0.69091077188E+02  0.45300922236E+02  0.13483456426E+03  0.00000000000E+00 0.  1.
</event>
<event>
 7    1  0.6508013E-006  0.7749603E+02  0.7818608E-02  0.1375515E+00
          2   -1    0    0  502    0  0.00000000000E+00  0.00000000000E+00  0.44482688265E+03  0.44482688265E+03  0.00000000000E+00 0. -1.
          1   -1    0    0  501    0 -0.00000000000E+00 -0.00000000000E+00 -0.27761291023E+03  0.27761291023E+03  0.00000000000E+00 0. -1.
         25    2    1    2    0    0  0.84301233118E+02 -0.33161472112E+02 -0.11104921244E+03  0.19016806247E+03  0.12500233302E+03 0.  0.
          2    1    1    2  501    0 -0.74758475463E+02 -0.21641555808E+02 -0.11292575773E+03  0.13714741466E+03  0.00000000000E+00 0. -1.
          1    1    1    2  502    0 -0.95427576549E+01  0.54803027920E+02  0.39118894259E+03  0.39512431575E+03  0.00000000000E+00 0. -1.
         22    1    3    3    0    0  0.10085698687E+03  0.15870625809E+02 -0.66155126683E+02  0.12165734400E+03  0.00000000000E+00 0. -1.
         22    1    3    3    0    0 -0.16555753748E+02 -0.49032097921E+02 -0.44894085761E+02  0.68510718468E+02  0.00000000000E+00 0. -1.
</event>
<event>
 7    1  0.6508013E-006  0.6939401E+02  0.7818608E-02  0.1438716E+00
          2   -1    0    0  502    0  0.00000000000E+00  0.00000000000E+00  0.65700086931E+02  0.65700086931E+02  0.00000000000E+00 0. -1.
          1   -1    0    0  501    0 -0.00000000000E+00 -0.00000000000E+00 -0.23973341545E+04  0.23973341545E+04  0.00000000000E+00 0. -1.
         25    2    1    2    0    0  0.81134846221E+02 -0.11531242698E+02 -0.37577686424E+03  0.40441032968E+03  0.12499452079E+03 0.  0.
          2    1    1    2  501    0 -0.15857063106E+02  0.34367566413E+02 -0.19837083590E+04  0.19840694115E+04  0.00000000000E+00 0. -1.
          1    1    1    2  502    0 -0.65277783115E+02 -0.22836323715E+02  0.27851155602E+02  0.74554500317E+02  0.00000000000E+00 0. -1.
         22    1    3    3    0    0  0.83724634028E+02 -0.23020183157E+02 -0.11872943641E+03  0.14709324337E+03  0.00000000000E+00 0.  1.
         22    1    3    3    0    0 -0.25897878068E+01  0.11488940459E+02 -0.25704742783E+03  0.25731708631E+03  0.00000000000E+00 0.  1.
</event>
<event>
 7    1  0.6508013E-006  0.8072237E+02  0.7818608E-02  0.1357898E+00
          2   -1    0    0  502    0  0.00000000000E+00  0.00000000000E+00  0.83060485442E+02  0.83060485442E+02  0.00000000000E+00 0. -1.
          1   -1    0    0  501    0 -0.00000000000E+00 -0.00000000000E+00 -0.92236056137E+03  0.92236056137E+03  0.00000000000E+00 0. -1.
         25    2    1    2    0    0  0.29270541592E+02 -0.35531583915E+01 -0.47435258853E+03  0.49143005472E+03  0.12499492351E+03 0.  0.
          2    1    1    2  501    0 -0.25234847546E+02  0.84174579749E+02 -0.41151947043E+03  0.42079737636E+03  0.00000000000E+00 0. -1.
          1    1    1    2  502    0 -0.40356940464E+01 -0.80621421357E+02  0.46571983035E+02  0.93193615725E+02  0.00000000000E+00 0. -1.
         22    1    3    3    0    0  0.31567920582E+02 -0.62170620885E+02 -0.25172309582E+03  0.26120152503E+03  0.00000000000E+00 0.  1.
         22    1    3    3    0    0 -0.22973789900E+01  0.58617462494E+02 -0.22262949271E+03  0.23022852969E+03  0.00000000000E+00 0.  1.
</event>
<event>
 7    1  0.6508013E-006  0.6174331E+02  0.7818608E-02  0.1399366E+00
          2   -1    0    0  502    0  0.00000000000E+00  0.00000000000E+00  0.30245369803E+03  0.30245369803E+03  0.00000000000E+00 0. -1.
          1   -1    0    0  501    0 -0.00000000000E+00 -0.00000000000E+00 -0.86111039317E+03  0.86111039317E+03  0.00000000000E+00 0. -1.
         25    2    1    2    0    0 -0.46840705577E+02 -0.34685198182E+02 -0.22440221431E+03  0.26338536711E+03  0.12497352980E+03 0.  0.
          2    1    1    2  501    0  0.50689083053E+02 -0.27357390922E+02 -0.61243488298E+03  0.61513762352E+03  0.00000000000E+00 0. -1.
          1    1    1    2  502    0 -0.38483774753E+01  0.62042589104E+02  0.27818040215E+03  0.28504110056E+03  0.00000000000E+00 0. -1.
         22    1    3    3    0    0 -0.48110595066E+01  0.41628195154E+02 -0.12167511738E+03  0.12868911032E+03  0.00000000000E+00 0.  1.
         22    1    3    3    0    0 -0.42029646071E+02 -0.76313393335E+02 -0.10272709693E+03  0.13469625680E+03  0.00000000000E+00 0.  1.
</event>
<event>
 7    1  0.6508013E-006  0.1357262E+03  0.7818608E-02  0.1401525E+00
          2   -1    0    0  502    0  0.00000000000E+00  0.00000000000E+00  0.17488264104E+03  0.17488264104E+03  0.00000000000E+00 0. -1.
          1   -1    0    0  501    0 -0.00000000000E+00 -0.00000000000E+00 -0.13577163897E+04  0.13577163897E+04  0.00000000000E+00 0. -1.
         25    2    1    2    0    0  0.18423425381E+02  0.15544397277E+03 -0.23717072375E+03  0.31044633214E+03  0.12499888663E+03 0.  0.
          2    1    1    2  501    0 -0.26113860927E+02 -0.13085959246E+03 -0.10785595249E+04  0.10867827821E+04  0.00000000000E+00 0. -1.
          1    1    1    2  502    0  0.76904355458E+01 -0.24584380307E+02  0.13289650006E+03  0.13536991646E+03  0.00000000000E+00 0. -1.
         22    1    3    3    0    0 -0.47428487273E+02  0.86267102460E+02 -0.81460096030E+02  0.12777801696E+03  0.00000000000E+00 0.  1.
         22    1    3    3    0    0  0.65851912655E+02  0.69176870311E+02 -0.15571062772E+03  0.18266831518E+03  0.00000000000E+00 0.  1.
</event>
<event>
 7    1  0.6508013E-006  0.1264839E+03  0.7818608E-02  0.1278834E+00
          2   -1    0    0  502    0  0.00000000000E+00  0.00000000000E+00  0.19056018332E+04  0.19056018332E+04  0.00000000000E+00 0. -1.
          1   -1    0    0  501    0 -0.00000000000E+00 -0.00000000000E+00 -0.51912469281E+03  0.51912469281E+03  0.00000000000E+00 0. -1.
         25    2    1    2    0    0  0.15623588658E+03  0.13229420633E+03  0.43978823535E+03  0.50094917067E+03  0.12499988141E+03 0.  0.
          2    1    1    2  501    0 -0.10028068457E+03 -0.74881810183E+02 -0.47938447971E+03  0.49545229900E+03  0.00000000000E+00 0. -1.
          1    1    1    2  502    0 -0.55955202009E+02 -0.57412396151E+02  0.14260733848E+04  0.14283250564E+04  0.00000000000E+00 0. -1.
         22    1    3    3    0    0  0.34760770732E+02 -0.13677456528E+01  0.18734423740E+03  0.19054670083E+03  0.00000000000E+00 0. -1.
         22    1    3    3    0    0  0.12147511585E+03  0.13366195199E+03  0.25244399795E+03  0.31040246984E+03  0.00000000000E+00 0. -1.
</event>
<event>
 7    1  0.6508013E-006  0.1901235E+03  0.7818608E-02  0.1335473E+00
          2   -1    0    0  502    0  0.00000000000E+00  0.00000000000E+00  0.71790153831E+03  0.71790153831E+03  0.00000000000E+00 0. -1.
          1   -1    0    0  501    0 -0.00000000000E+00 -0.00000000000E+00 -0.36411767695E+03  0.36411767695E+03  0.00000000000E+00 0. -1.
         25    2    1    2    0    0 -0.19543394085E+03  0.65193896939E+02  0.21762694402E+03  0.32470313668E+03  0.12500388304E+03 0.  0.
          2    1    1    2  501    0  0.16924525523E+03 -0.83267501512E+02 -0.28128020099E+03  0.33866795640E+03  0.00000000000E+00 0. -1.
          1    1    1    2  502    0  0.26188685624E+02  0.18073604573E+02  0.41743711834E+03  0.41864812218E+03  0.00000000000E+00 0. -1.
         22    1    3    3    0    0 -0.11113242435E+03  0.12885079727E+02  0.19202930889E+03  0.22224242730E+03  0.00000000000E+00 0.  1.
         22    1    3    3    0    0 -0.84301516503E+02  0.52308817212E+02  0.25597635130E+02  0.10246070938E+03  0.00000000000E+00 0.  1.
</event>
<event>
 7    1  0.6508013E-006  0.4457656E+02  0.7818608E-02  0.1521558E+00
          2   -1    0    0  502    0  0.00000000000E+00  0.00000000000E+00  0.16194860349E+04  0.16194860349E+04  0.00000000000E+00 0. -1.
          1   -1    0    0  501    0 -0.00000000000E+00 -0.00000000000E+00 -0.38863699046E+02  0.38863699046E+02  0.00000000000E+00 0. -1.
         25    2    1    2    0    0  0.14956300573E+02  0.75131243178E+02  0.14838525875E+04  0.14910741767E+04  0.12496121193E+03 0.  0.
          2    1    1    2  501    0 -0.12692743953E+02 -0.42400894340E+02 -0.18095856088E+02  0.47816331911E+02  0.00000000000E+00 0. -1.
          1    1    1    2  502    0 -0.22635566195E+01 -0.32730348838E+02  0.11486560442E+03  0.11945922527E+03  0.00000000000E+00 0. -1.
         22    1    3    3    0    0 -0.39968691759E+01  0.18271007018E+02  0.12336921174E+04  0.12338338807E+04  0.00000000000E+00 0. -1.
         22    1    3    3    0    0  0.18953169749E+02  0.56860236160E+02  0.25016047008E+03  0.25724029600E+03  0.00000000000E+00 0. -1.
</event>
<event>
 7    1  0.6508013E-006  0.9275146E+02  0.7818608E-02  0.1419045E+00
          2   -1    0    0  502    0  0.00000000000E+00  0.00000000000E+00  0.58540223305E+03  0.58540223305E+03  0.00000000000E+00 0. -1.
          1   -1    0    0  501    0 -0.00000000000E+00 -0.00000000000E+00 -0.50224229581E+03  0.50224229581E+03  0.00000000000E+00 0. -1.
         25    2    1    2    0    0 -0.12248782539E+03  0.32112552411E+01  0.95088390121E+01  0.17529143780E+03  0.12499236224E+03 0.  0.
          2    1    1    2  501    0  0.90523362056E+02 -0.10915047593E+02 -0.41383441733E+03  0.42376000555E+03  0.00000000000E+00 0. -1.
          1    1    1    2  502    0  0.31964463338E+02  0.77037923520E+01  0.48748551556E+03  0.48859308551E+03  0.00000000000E+00 0. -1.
         22    1    3    3    0    0 -0.10476320562E+03 -0.30458659587E+01  0.60451458903E+02  0.12099167507E+03  0.00000000000E+00 0.  1.
         22    1    3    3    0    0 -0.17724619770E+02  0.62571211998E+01 -0.50942619891E+02  0.54299762735E+02  0.00000000000E+00 0.  1.
</event>
<event>
 7    1  0.6508013E-006  0.1122766E+03  0.7818608E-02  0.1357872E+00
          2   -1    0    0  502    0  0.00000000000E+00  0.00000000000E+00  0.38293005658E+03  0.38293005658E+03  0.00000000000E+00 0. -1.
          1   -1    0    0  501    0 -0.00000000000E+00 -0.00000000000E+00 -0.21049541952E+04  0.21049541952E+04  0.00000000000E+00 0. -1.
         25    2    1    2    0    0  0.76076898656E+02  0.48082584614E+02  0.12488804303E+03  0.19829739495E+03  0.12500081639E+03 0.  0.
          2    1    1    2  501    0  0.42690467887E+02 -0.12439196652E+02 -0.20506222530E+04  0.20511042963E+04  0.00000000000E+00 0. -1.
          1    1    1    2  502    0 -0.11876736654E+03 -0.35643387963E+02  0.20371007142E+03  0.23848256049E+03  0.00000000000E+00 0. -1.
         22    1    3    3    0    0  0.47031036783E+02 -0.15734975614E+02  0.11781178855E+03  0.12782458840E+03  0.00000000000E+00 0. -1.
         22    1    3    3    0    0  0.29045861873E+02  0.63817560228E+02  0.70762544844E+01  0.70472806550E+02  0.00000000000E+00 0. -1.
</event>
<event>
 7    1  0.6508013E-006  0.1361298E+03  0.7818608E-02  0.1245896E+00
          2   -1    0    0  502    0  0.00000000000E+00  0.00000000000E+00  0.40352989047E+03  0.40352989047E+03  0.00000000000E+00 0. -1.
          1   -1    0    0  501    0 -0.00000000000E+00 -0.00000000000E+00 -0.17725504773E+04  0.17725504773E+04  0.00000000000E+00 0. -1.
         25    2    1    2    0    0  0.23268574033E+03  0.12880679487E+02 -0.14165876028E+03  0.29999911773E+03  0.12499480237E+03 0.  0.
          2    1    1    2  501    0 -0.10236239055E+03 -0.98830187641E+01 -0.15368358593E+04  0.15402727653E+04  0.00000000000E+00 0. -1.
          1    1    1    2  502    0 -0.13032334978E+03 -0.29976607227E+01  0.30947403276E+03  0.33580848473E+03  0.00000000000E+00 0. -1.
         22    1    3    3    0    0 -0.56115229290E+01  0.20398419078E+02  0.26334575660E+01  0.21319469722E+02  0.00000000000E+00 0. -1.
         22    1    3    3    0    0  0.23829726326E+03 -0.75177395914E+01 -0.14429221785E+03  0.27867964801E+03  0.00000000000E+00 0. -1.
</event>
<event>
 7    1  0.6508013E-006  0.4796838E+02  0.7818608E-02  0.1486881E+00
          2   -1    0    0  502    0  0.00000000000E+00  0.00000000000E+00  0.66063552609E+02  0.66063552609E+02  0.00000000000E+00 0. -1.
          1   -1    0    0  501    0 -0.00000000000E+00 -0.00000000000E+00 -0.46080643783E+03  0.46080643783E+03  0.00000000000E+00 0. -1.
         25    2    1    2    0    0  0.19892205134E+02  0.38511751970E+02 -0.25383676595E+03  0.28623844114E+03  0.12498194497E+03 0.  0.
          2    1    1    2  501    0  0.17388615253E+02 -0.48669050592E+02 -0.17903585726E+03  0.18634612582E+03  0.00000000000E+00 0. -1.
          1    1    1    2  502    0 -0.37280820387E+02  0.10157298621E+02  0.38129737985E+02  0.54285423484E+02  0.00000000000E+00 0. -1.
         22    1    3    3    0    0  0.37889005267E+02  0.64086913974E+02 -0.78712054010E+02  0.10834342024E+03  0.00000000000E+00 0. -1.
         22    1    3    3    0    0 -0.17996800133E+02 -0.25575162003E+02 -0.17512471194E+03  0.17789502090E+03  0.00000000000E+00 0. -1.
</event>
<event>
 7    1  0.6508013E-006  0.3239640E+02  0.7818608E-02  0.1594047E+00
          2   -1    0    0  502    0  0.00000000000E+00  0.00000000000E+00  0.97662390002E+03  0.97662390002E+03  0.00000000000E+00 0. -1.
          1   -1    0    0  501    0 -0.00000000000E+00 -0.00000000000E+00 -0.11246875355E+04  0.11246875355E+04  0.00000000000E+00 0. -1.
         25    2    1    2    0    0 -0.19602548412E+02 -0.56736634028E+01 -0.16515211603E+03  0.20812590893E+03  0.12499888870E+03 0.  0.
          2    1    1    2  501    0  0.23716293850E+02 -0.22495761912E+02 -0.93755149627E+03  0.93812117024E+03  0.00000000000E+00 0. -1.
          1    1    1    2  502    0 -0.41137454381E+01  0.28169425315E+02  0.95463997682E+03  0.95506435635E+03  0.00000000000E+00 0. -1.
         22    1    3    3    0    0  0.10880169698E+02 -0.18902984075E+02  0.14000584347E+02  0.25917508785E+02  0.00000000000E+00 0. -1.
         22    1    3    3    0    0 -0.30482718110E+02  0.13229320672E+02 -0.17915270038E+03  0.18220840014E+03  0.00000000000E+00 0. -1.
</event>
<event>
 7    1  0.6508013E-006  0.4344697E+02  0.7818608E-02  0.1491829E+00
          2   -1    0    0  502    0  0.00000000000E+00  0.00000000000E+00  0.21236975099E+04  0.21236975099E+04  0.00000000000E+00 0. -1.
          1   -1    0    0  501    0 -0.00000000000E+00 -0.00000000000E+00 -0.31098570106E+03  0.31098570106E+03  0.00000000000E+00 0. -1.
         25    2    1    2    0    0 -0.29912075460E+02 -0.53936199648E+02  0.77912832146E+03  0.79149912926E+03  0.12500433761E+03 0.  0.
          2    1    1    2  501    0 -0.10936167487E+02  0.39736900188E+02 -0.30305576879E+03  0.30584541846E+03  0.00000000000E+00 0. -1.
          1    1    1    2  502    0  0.40848242947E+02  0.14199299460E+02  0.13366392562E+04  0.13373386632E+04  0.00000000000E+00 0. -1.
         22    1    3    3    0    0  0.43559354422E+02 -0.23386622969E+02  0.45795440349E+03  0.46061544391E+03  0.00000000000E+00 0. -1.
         22    1    3    3    0    0 -0.73471429882E+02 -0.30549576679E+02  0.32117391797E+03  0.33088368534E+03  0.00000000000E+00 0. -1.
</event>
<event>
 7    1  0.6508013E-006  0.1359985E+03  0.7818608E-02  0.1311705E+00
          2   -1    0    0  502    0  0.00000000000E+00  0.00000000000E+00  0.29993458697E+04  0.29993458697E+04  0.00000000000E+00 0. -1.
          1   -1    0    0  501    0 -0.00000000000E+00 -0.00000000000E+00 -0.45848847425E+03  0.45848847425E+03  0.00000000000E+00 0. -1.
         25    2    1    2    0    0 -0.39707563297E+02  0.17978100511E+03  0.41400405918E+03  0.47001541298E+03  0.12496890428E+03 0.  0.
          2    1    1    2  501    0  0.83902166597E+01 -0.13463733251E+03 -0.41961104914E+03  0.44076188538E+03  0.00000000000E+00 0. -1.
          1    1    1    2  502    0  0.31317346637E+02 -0.45143672600E+02  0.25464643854E+04  0.25470570456E+04  0.00000000000E+00 0. -1.
         22    1    3    3    0    0 -0.36128305051E+01 -0.18994584085E+02  0.24262180513E+02  0.31024186888E+02  0.00000000000E+00 0. -1.
         22    1    3    3    0    0 -0.36094732792E+02  0.19877558919E+03  0.38974187867E+03  0.43899122609E+03  0.00000000000E+00 0. -1.
</event>
<event>
 7    1  0.6508013E-006  0.1503048E+03  0.7818608E-02  0.1387050E+00
          2   -1    0    0  502    0  0.00000000000E+00  0.00000000000E+00  0.89705128299E+03  0.89705128299E+03  0.00000000000E+00 0. -1.
          1   -1    0    0  501    0 -0.00000000000E+00 -0.00000000000E+00 -0.62173128687E+03  0.62173128687E+03  0.00000000000E+00 0. -1.
         25    2    1    2    0    0 -0.71842062895E+02 -0.12555936061E+03  0.26361204685E+03  0.32564174186E+03  0.12499919103E+03 0.  0.
          2    1    1    2  501    0 -0.24962986614E+02  0.76567200492E+01 -0.58076065114E+03  0.58134732301E+03  0.00000000000E+00 0. -1.
          1    1    1    2  502    0  0.96805049509E+02  0.11790264056E+03  0.59246860041E+03  0.61179350498E+03  0.00000000000E+00 0. -1.
         22    1    3    3    0    0 -0.72516604687E+02 -0.70429322019E+02  0.66588849245E+02  0.12104966831E+03  0.00000000000E+00 0. -1.
         22    1    3    3    0    0  0.67454179208E+00 -0.55130038591E+02  0.19702319761E+03  0.20459207355E+03  0.00000000000E+00 0. -1.
</event>
<event>
 7    1  0.6508013E-006  0.4296636E+02  0.7818608E-02  0.1555255E+00
          2   -1    0    0  502    0  0.00000000000E+00  0.00000000000E+00  0.13411466069E+04  0.13411466069E+04  0.00000000000E+00 0. -1.
          1   -1    0    0  501    0 -0.00000000000E+00 -0.00000000000E+00 -0.17178282857E+03  0.17178282857E+03  0.00000000000E+00 0. -1.
         25    2    1    2    0    0  0.50796568717E+02 -0.36642543190E+02  0.14910556481E+02  0.14059789360E+03  0.12498990210E+03 0.  0.
          2    1    1    2  501    0 -0.27309818637E+02  0.77133018058E+00 -0.10685620953E+03  0.11029356581E+03  0.00000000000E+00 0. -1.
          1    1    1    2  502    0 -0.23486750080E+02  0.35871213009E+02  0.12613094314E+04  0.12620379761E+04  0.00000000000E+00 0. -1.
         22    1    3    3    0    0 -0.88737861103E+01 -0.17050359175E+02 -0.47999018223E+02  0.51704589529E+02  0.00000000000E+00 0. -1.
         22    1    3    3    0    0  0.59670354828E+02 -0.19592184014E+02  0.62909574704E+02  0.88893304073E+02  0.00000000000E+00 0. -1.
</event>
<event>
 7    1  0.6508013E-006  0.3486743E+02  0.7818608E-02  0.1627473E+00
          2   -1    0    0  502    0  0.00000000000E+00  0.00000000000E+00  0.10506968301E+04  0.10506968301E+04  0.00000000000E+00 0. -1.
          1   -1    0    0  501    0 -0.00000000000E+00 -0.00000000000E+00 -0.48192735846E+02  0.48192735846E+02  0.00000000000E+00 0. -1.
         25    2    1    2    0    0  0.13487493541E+02  0.10384943573E+02  0.85149204340E+03  0.86078642902E+03  0.12499926748E+03 0.  0.
          2    1    1    2  501    0 -0.34608397094E+02 -0.54429759514E+01 -0.35768372055E+02  0.50067390346E+02  0.00000000000E+00 0. -1.
          1    1    1    2  502    0  0.21120903553E+02 -0.49419676219E+01  0.18678042287E+03  0.18803574655E+03  0.00000000000E+00 0. -1.
         22    1    3    3    0    0 -0.32693142172E+02 -0.34883440666E+02  0.56817442666E+03  0.57018231741E+03  0.00000000000E+00 0. -1.
         22    1    3    3    0    0  0.46180635713E+02  0.45268384240E+02  0.28331761675E+03  0.29060411161E+03  0.00000000000E+00 0. -1.
</event>
<event>
 7    1  0.6508013E-006  0.1165015E+03  0.7818608E-02  0.1332024E+00
          2   -1    0    0  502    0  0.00000000000E+00  0.00000000000E+00  0.26679430333E+04  0.26679430333E+04  0.00000000000E+00 0. -1.
          1   -1    0    0  501    0 -0.00000000000E+00 -0.00000000000E+00 -0.15115641882E+03  0.15115641882E+03  0.00000000000E+00 0. -1.
         25    2    1    2    0    0 -0.73376971903E+02 -0.68502339723E+01  0.19356764705E+02  0.14638797323E+03  0.12499459451E+03 0.  0.
          2    1    1    2  501    0 -0.33647454196E+02 -0.41618013749E+02 -0.78004506419E+02  0.94598695889E+02  0.00000000000E+00 0. -1.
          1    1    1    2  502    0  0.10702442610E+03  0.48468247721E+02  0.25754343562E+04  0.25781127830E+04  0.00000000000E+00 0. -1.
         22    1    3    3    0    0 -0.92684185182E+02 -0.14612483568E+01 -0.26443079702E+02  0.96393619570E+02  0.00000000000E+00 0.  1.
         22    1    3    3    0    0  0.19307213279E+02 -0.53889856156E+01  0.45799844407E+02  0.49994353664E+02  0.00000000000E+00 0.  1.
</event>
<event>
 7    1  0.6508013E-006  0.8617757E+02  0.7818608E-02  0.1386545E+00
          2   -1    0    0  502    0  0.00000000000E+00  0.00000000000E+00  0.13170579135E+03  0.13170579135E+03  0.00000000000E+00 0. -1.
          1   -1    0    0  501    0 -0.00000000000E+00 -0.00000000000E+00 -0.18522791674E+04  0.18522791674E+04  0.00000000000E+00 0. -1.
         25    2    1    2    0    0  0.58906354741E+02  0.91298405370E+02 -0.72141245875E+03  0.74018024436E+03  0.12500200420E+03 0.  0.
          2    1    1    2  501    0  0.12739961240E+02 -0.43915839007E+02 -0.11058721783E+04  0.11068171404E+04  0.00000000000E+00 0. -1.
          1    1    1    2  502    0 -0.71646315982E+02 -0.47382566363E+02  0.10671126103E+03  0.13698757396E+03  0.00000000000E+00 0. -1.
         22    1    3    3    0    0  0.86867168273E+02  0.21667891613E+02 -0.43369669756E+03  0.44284108654E+03  0.00000000000E+00 0.  1.
         22    1    3    3    0    0 -0.27960813532E+02  0.69630513757E+02 -0.28771576119E+03  0.29733915783E+03  0.00000000000E+00 0.  1.
</event>
<event>
 7    1  0.6508013E-006  0.3039695E+02  0.7818608E-02  0.1647718E+00
          2   -1    0    0  502    0  0.00000000000E+00  0.00000000000E+00  0.20496592919E+04  0.20496592919E+04  0.00000000000E+00 0. -1.
          1   -1    0    0  501    0 -0.00000000000E+00 -0.00000000000E+00 -0.11133942875E+02  0.11133942875E+02  0.00000000000E+00 0. -1.
         25    2    1    2    0    0 -0.24190536244E+02  0.20230519493E+02  0.81779289866E+03  0.82789327066E+03  0.12501034576E+03 0.  0.
          2    1    1    2  501    0  0.19721280085E+02  0.10092847594E+02  0.14946209953E+02  0.26724214726E+02  0.00000000000E+00 0. -1.
          1    1    1    2  502    0  0.44692561592E+01 -0.30323367088E+02  0.12057862404E+04  0.12061757494E+04  0.00000000000E+00 0. -1.
         22    1    3    3    0    0 -0.34169729523E+01 -0.47519752668E+02  0.50156890752E+03  0.50382652926E+03  0.00000000000E+00 0. -1.
         22    1    3    3    0    0 -0.20773563292E+02  0.67750272161E+02  0.31622399114E+03  0.32406674140E+03  0.00000000000E+00 0. -1.
</event>
<event>
 7    1  0.6508013E-006  0.2042010E+03  0.7818608E-02  0.1261555E+00
          2   -1    0    0  502    0  0.00000000000E+00  0.00000000000E+00  0.19264295788E+04  0.19264295788E+04  0.00000000000E+00 0. -1.
          1   -1    0    0  501    0 -0.00000000000E+00 -0.00000000000E+00 -0.15111336394E+04  0.15111336394E+04  0.00000000000E+00 0. -1.
         25    2    1    2    0    0 -0.34152652581E+02 -0.15544260390E+03  0.13359899945E+03  0.24249254907E+03  0.12500054766E+03 0.  0.
          2    1    1    2  501    0  0.43792197738E+01  0.20601453181E+03 -0.14488997213E+04  0.14634792678E+04  0.00000000000E+00 0. -1.
          1    1    1    2  502    0  0.29773432807E+02 -0.50571927909E+02  0.17305966613E+04  0.17315914013E+04  0.00000000000E+00 0. -1.
         22    1    3    3    0    0 -0.78560206421E+02 -0.11067651636E+03  0.11158356274E+03  0.17570398055E+03  0.00000000000E+00 0.  1.
         22    1    3    3    0    0  0.44407553840E+02 -0.44766087538E+02  0.22015436712E+02  0.66788568522E+02  0.00000000000E+00 0.  1.
</event>
<event>
 7    1  0.6960347E-006  0.9177459E+02  0.7818608E-02  0.1315642E+00
          2   -1    0    0  502    0  0.00000000000E+00  0.00000000000E+00  0.61707656731E+03  0.61707656731E+03  0.00000000000E+00 0. -1.
          1   -1    0    0  501    0 -0.00000000000E+00 -0.00000000000E+00 -0.15090405563E+04  0.15090405563E+04  0.00000000000E+00 0. -1.
         25    2    1    2    0    0  0.15224040675E+02  0.94487582002E+02 -0.34802071444E+03  0.38197208520E+03  0.12499832651E+03 0.  0.
          2    1    1    2  501    0  0.63339268469E+02 -0.46503009895E+02 -0.11391522060E+04  0.11418590725E+04  0.00000000000E+00 0. -1.
          1    1    1    2  502    0 -0.78563309143E+02 -0.47984572107E+02  0.59520893146E+03  0.60228596596E+03  0.00000000000E+00 0. -1.
         22    1    3    3    0    0 -0.22324636994E+02  0.47106894609E+02 -0.30073810966E+03  0.30522263930E+03  0.00000000000E+00 0.  1.
         22    1    3    3    0    0  0.37548677668E+02  0.47380687393E+02 -0.47282604774E+02  0.76749445905E+02  0.00000000000E+00 0.  1.
</event>
<event>
 7    1  0.6508013E-006  0.1126733E+03  0.7818608E-02  0.1377288E+00
          2   -1    0    0  502    0  0.00000000000E+00  0.00000000000E+00  0.10459049207E+04  0.10459049207E+04  0.00000000000E+00 0. -1.
          1   -1    0    0  501    0 -0.00000000000E+00 -0.00000000000E+00 -0.24428833130E+03  0.24428833130E+03  0.00000000000E+00 0. -1.
         25    2    1    2    0    0 -0.10907507154E+03 -0.61203365347E+02  0.25004306858E+03  0.30625081928E+03  0.12499922001E+03 0.  0.
          2    1    1    2  501    0  0.31086615014E-02  0.37708219481E+02 -0.21044617905E+03  0.21379781127E+03  0.00000000000E+00 0. -1.
          1    1    1    2  502    0  0.10907196288E+03  0.23495145866E+02  0.76201969987E+03  0.77014462146E+03  0.00000000000E+00 0. -1.
         22    1    3    3    0    0 -0.12296277825E+03 -0.12005441000E+02  0.19736981718E+03  0.23284935083E+03  0.00000000000E+00 0. -1.
         22    1    3    3    0    0  0.13887706708E+02 -0.49197924347E+02  0.52673251398E+02  0.73401468449E+02  0.00000000000E+00 0. -1.
</event>
<event>
 7    1  0.6508013E-006  0.3383862E+02  0.7818608E-02  0.1627359E+00
          2   -1    0    0  502    0  0.00000000000E+00  0.00000000000E+00  0.18191562208E+03  0.18191562208E+03  0.00000000000E+00 0. -1.
          1   -1    0    0  501    0 -0.00000000000E+00 -0.00000000000E+00 -0.42589889596E+03  0.42589889596E+03  0.00000000000E+00 0. -1.
         25    2    1    2    0    0 -0.32223025425E+02  0.14828562394E+02 -0.10890732356E+02  0.13039729936E+03  0.12500655183E+03 0.  0.
          2    1    1    2  501    0 -0.95864905702E+00 -0.22345092784E+02 -0.35252478324E+03  0.35323355585E+03  0.00000000000E+00 0. -1.
          1    1    1    2  502    0  0.33181674482E+02  0.75165303904E+01  0.11943224172E+03  0.12418366283E+03  0.00000000000E+00 0. -1.
         22    1    3    3    0    0 -0.18227005631E+02  0.47239601837E+02 -0.54432330245E+02  0.74341659195E+02  0.00000000000E+00 0. -1.
         22    1    3    3    0    0 -0.13996019794E+02 -0.32411039443E+02  0.43541597889E+02  0.56055640168E+02  0.00000000000E+00 0. -1.
</event>
<event>
 7    1  0.6508013E-006  0.1360118E+03  0.7818608E-02  0.1240132E+00
          2   -1    0    0  502    0  0.00000000000E+00  0.00000000000E+00  0.80900001353E+02  0.80900001353E+02  0.00000000000E+00 0. -1.
          1   -1    0    0  501    0 -0.00000000000E+00 -0.00000000000E+00 -0.37990585502E+04  0.37990585502E+04  0.00000000000E+00 0. -1.
         25    2    1    2    0    0  0.85050034276E+02 -0.73533341344E+01 -0.11810550065E+04  0.11907159612E+04  0.12500396779E+03 0.  0.
          2    1    1    2  501    0 -0.55210722970E+02 -0.12534492294E+03 -0.25490316494E+04  0.25527087423E+04  0.00000000000E+00 0. -1.
          1    1    1    2  502    0 -0.29839311306E+02  0.13269825707E+03  0.11928107016E+02  0.13653384806E+03  0.00000000000E+00 0. -1.
         22    1    3    3    0    0 -0.28215509688E+02  0.18113061728E+02 -0.19649635983E+03  0.19933644278E+03  0.00000000000E+00 0.  1.
         22    1    3    3    0    0  0.11326554396E+03 -0.25466395862E+02 -0.98455864668E+03  0.99137951841E+03  0.00000000000E+00 0.  1.
</event>
<event>
 7    1  0.6508013E-006  0.7485422E+02  0.7818608E-02  0.1488545E+00
          2   -1    0    0  502    0  0.00000000000E+00  0.00000000000E+00  0.18093116131E+03  0.18093116131E+03  0.00000000000E+00 0. -1.
          1   -1    0    0  501    0 -0.00000000000E+00 -0.00000000000E+00 -0.92322497587E+03  0.92322497587E+03  0.00000000000E+00 0. -1.
         25    2    1    2    0    0 -0.62413547445E+01  0.65769920631E+02 -0.25785048084E+03  0.29406972379E+03  0.12500198002E+03 0.  0.
          2    1    1    2  501    0 -0.16632559863E+02 -0.74477025978E+02 -0.64407970043E+03  0.64858471301E+03  0.00000000000E+00 0. -1.
          1    1    1    2  502    0  0.22873914608E+02  0.87071053474E+01  0.15963636670E+03  0.16150170038E+03  0.00000000000E+00 0. -1.
         22    1    3    3    0    0  0.43588581855E+02  0.39843249345E+01 -0.30735953407E+02  0.53483998964E+02  0.00000000000E+00 0. -1.
         22    1    3    3    0    0 -0.49829936600E+02  0.61785595696E+02 -0.22711452743E+03  0.24058572482E+03  0.00000000000E+00 0. -1.
</event>
<event>
 7    1  0.6508013E-006  0.9678977E+02  0.7818608E-02  0.1298935E+00
          2   -1    0    0  502    0  0.00000000000E+00  0.00000000000E+00  0.39054576573E+04  0.39054576573E+04  0.00000000000E+00 0. -1.
          1   -1    0    0  501    0 -0.00000000000E+00 -0.00000000000E+00 -0.48278065687E+03  0.48278065687E+03  0.00000000000E+00 0. -1.
         25    2    1    2    0    0  0.60442157391E+02 -0.18907810189E+02  0.46404486984E+03  0.48474061953E+03  0.12500026929E+03 0.  0.
          2    1    1    2  501    0  0.16127925290E+02  0.85246381448E+02 -0.46769459611E+03  0.47567351278E+03  0.00000000000E+00 0. -1.
          1    1    1    2  502    0 -0.76570082681E+02 -0.66338571260E+02  0.34263267267E+04  0.34278241819E+04  0.00000000000E+00 0. -1.
         22    1    3    3    0    0  0.45652002461E+02 -0.15128687645E+02  0.46676388579E+03  0.46923502384E+03  0.00000000000E+00 0.  1.
         22    1    3    3    0    0  0.14790154930E+02 -0.37791225434E+01 -0.27190159499E+01  0.15505595693E+02  0.00000000000E+00 0.  1.
</event>
<event>
 7    1  0.6508013E-006  0.5560469E+02  0.7818608E-02  0.1419117E+00
          2   -1    0    0  502    0  0.00000000000E+00  0.00000000000E+00  0.87796810049E+03  0.87796810049E+03  0.00000000000E+00 0. -1.
          1   -1    0    0  501    0 -0.00000000000E+00 -0.00000000000E+00 -0.80781352902E+02  0.80781352902E+02  0.00000000000E+00 0. -1.
         25    2    1    2    0    0 -0.27835624468E+01  0.27350771805E+02  0.28020188551E+03  0.30804897386E+03  0.12500104284E+03 0.  0.
          2    1    1    2  501    0  0.55783911387E+02 -0.10532796531E+02 -0.53205687499E+02  0.77805075378E+02  0.00000000000E+00 0. -1.
          1    1    1    2  502    0 -0.53000348940E+02 -0.16817975275E+02  0.57019054958E+03  0.57289540416E+03  0.00000000000E+00 0. -1.
         22    1    3    3    0    0  0.58792966970E+02 -0.12374686989E+00  0.10532790975E+03  0.12062585482E+03  0.00000000000E+00 0. -1.
         22    1    3    3    0    0 -0.61576529417E+02  0.27474518675E+02  0.17487397577E+03  0.18742311904E+03  0.00000000000E+00 0. -1.
</event>
<event>
 7    1  0.6508013E-006  0.1069452E+03  0.7818608E-02  0.1461131E+00
          2   -1    0    0  502    0  0.00000000000E+00  0.00000000000E+00  0.10749003161E+04  0.10749003161E+04  0.00000000000E+00 0. -1.
          1   -1    0    0  501    0 -0.00000000000E+00 -0.00000000000E+00 -0.37941454900E+03  0.37941454900E+03  0.00000000000E+00 0. -1.
         25    2    1    2    0    0 -0.11601094886E+03 -0.99256738068E+01  0.42235302704E+03  0.45559164318E+03  0.12499842652E+03 0.  0.
          2    1    1    2  501    0  0.10645848236E+03 -0.85739843700E+01 -0.35475851117E+03  0.37048687280E+03  0.00000000000E+00 0. -1.
          1    1    1    2  502    0  0.95524664945E+01  0.18499658177E+02  0.62789125123E+03  0.62823634911E+03  0.00000000000E+00 0. -1.
         22    1    3    3    0    0 -0.17135308096E+02 -0.54302901453E+02  0.20434955987E+03  0.21213478383E+03  0.00000000000E+00 0. -1.
         22    1    3    3    0    0 -0.98875640761E+02  0.44377227646E+02  0.21800346717E+03  0.24345685936E+03  0.00000000000E+00 0. -1.
</event>
<event>
 7    1  0.6508013E-006  0.5155343E+02  0.7818608E-02  0.1516542E+00
          2   -1    0    0  502    0  0.00000000000E+00  0.00000000000E+00  0.26636319789E+04  0.26636319789E+04  0.00000000000E+00 0. -1.
          1   -1    0    0  501    0 -0.00000000000E+00 -0.00000000000E+00 -0.77993188233E+02  0.77993188233E+02  0.00000000000E+00 0. -1.
         25    2    1    2    0    0  0.26169319291E+02  0.10924746660E+02  0.51753680277E+03  0.53317306238E+03  0.12499995546E+03 0.  0.
          2    1    1    2  501    0 -0.34323170072E+02 -0.39106181182E+02 -0.60414990856E+02  0.79732957619E+02  0.00000000000E+00 0. -1.
          1    1    1    2  502    0  0.81538507813E+01  0.28181434523E+02  0.21285169788E+04  0.21287191472E+04  0.00000000000E+00 0. -1.
         22    1    3    3    0    0  0.44992035586E+02  0.44008650955E+02  0.13731975992E+03  0.15105549010E+03  0.00000000000E+00 0. -1.
         22    1    3    3    0    0 -0.18822716294E+02 -0.33083904295E+02  0.38021704285E+03  0.38211757228E+03  0.00000000000E+00 0. -1.
</event>
<event>
 7    1  0.6508013E-006  0.6453108E+02  0.7818608E-02  0.1524297E+00
          2   -1    0    0  502    0  0.00000000000E+00  0.00000000000E+00  0.23547146185E+04  0.23547146185E+04  0.00000000000E+00 0. -1.
          1   -1    0    0  501    0 -0.00000000000E+00 -0.00000000000E+00 -0.12098284842E+04  0.12098284842E+04  0.00000000000E+00 0. -1.
         25    2    1    2    0    0  0.44865616538E+02  0.44297721023E+02  0.44857054943E+03  0.46991046936E+03  0.12500039905E+03 0.  0.
          2    1    1    2  501    0  0.14027030237E+02 -0.17276183930E+02 -0.11985014480E+04  0.11987080316E+04  0.00000000000E+00 0. -1.
          1    1    1    2  502    0 -0.58892646774E+02 -0.27021537093E+02  0.18948170329E+04  0.18959246017E+04  0.00000000000E+00 0. -1.
         22    1    3    3    0    0 -0.32354599496E+02  0.24056661451E+02  0.28567309230E+03  0.28850417455E+03  0.00000000000E+00 0. -1.
         22    1    3    3    0    0  0.77220216034E+02  0.20241059572E+02  0.16289745713E+03  0.18140629481E+03  0.00000000000E+00 0. -1.
</event>
<event>
 7    1  0.6508013E-006  0.1431817E+03  0.7818608E-02  0.1371861E+00
          2   -1    0    0  502    0  0.00000000000E+00  0.00000000000E+00  0.11455351134E+04  0.11455351134E+04  0.00000000000E+00 0. -1.
          1   -1    0    0  501    0 -0.00000000000E+00 -0.00000000000E+00 -0.26077016870E+04  0.26077016870E+04  0.00000000000E+00 0. -1.
         25    2    1    2    0    0 -0.11629997546E+03 -0.78267725729E+02  0.46507841538E+02  0.19349371692E+03  0.12500127192E+03 0.  0.
          2    1    1    2  501    0  0.98732184450E+02  0.10384257854E+03 -0.25319479965E+04  0.25359992079E+04  0.00000000000E+00 0. -1.
          1    1    1    2  502    0  0.17567791010E+02 -0.25574852812E+02  0.10232735814E+04  0.10237438755E+04  0.00000000000E+00 0. -1.
         22    1    3    3    0    0 -0.42172744972E+02  0.19226091961E+02 -0.23979499455E+02  0.52184283311E+02  0.00000000000E+00 0. -1.
         22    1    3    3    0    0 -0.74127230488E+02 -0.97493817690E+02  0.70487340993E+02  0.14130943361E+03  0.00000000000E+00 0. -1.
</event>
<event>
 7    1  0.6508013E-006  0.1221790E+03  0.7818608E-02  0.1386444E+00
          2   -1    0    0  502    0  0.00000000000E+00  0.00000000000E+00  0.49345527517E+03  0.49345527517E+03  0.00000000000E+00 0. -1.
          1   -1    0    0  501    0 -0.00000000000E+00 -0.00000000000E+00 -0.78087646236E+03  0.78087646236E+03  0.00000000000E+00 0. -1.
         25    2    1    2    0    0 -0.11488041535E+02 -0.13585988944E+03 -0.41340566282E+03  0.45290077650E+03  0.12499994658E+03 0.  0.
          2    1    1    2  501    0 -0.25605746933E+02  0.19653860403E+02 -0.33909123879E+03  0.34062412822E+03  0.00000000000E+00 0. -1.
          1    1    1    2  502    0  0.37093788468E+02  0.11620602903E+03  0.46507571442E+03  0.48080683280E+03  0.00000000000E+00 0. -1.
         22    1    3    3    0    0 -0.52282350121E+02 -0.56651711396E+02 -0.95423105339E+02  0.12267204071E+03  0.00000000000E+00 0.  1.
         22    1    3    3    0    0  0.40794308586E+02 -0.79208178040E+02 -0.31798255748E+03  0.33022873580E+03  0.00000000000E+00 0.  1.
</event>
<event>
 7    1  0.6508013E-006  0.1780723E+03  0.7818608E-02  0.1278982E+00
          2   -1    0    0  502    0  0.00000000000E+00  0.00000000000E+00  0.21358237716E+04  0.21358237716E+04  0.00000000000E+00 0. -1.
          1   -1    0    0  501    0 -0.00000000000E+00 -0.00000000000E+00 -0.14260480762E+03  0.14260480762E+03  0.00000000000E+00 0. -1.
         25    2    1    2    0    0 -0.87397206728E+01 -0.17610556933E+03  0.97563799043E+03  0.99929124498E+03  0.12499579859E+03 0.  0.
          2    1    1    2  501    0 -0.56583552215E+02  0.56385347237E+01 -0.11693490420E+03  0.13002793268E+03  0.00000000000E+00 0. -1.
          1    1    1    2  502    0  0.65323272888E+02  0.17046703460E+03  0.11345158777E+04  0.11491094015E+04  0.00000000000E+00 0. -1.
         22    1    3    3    0    0 -0.15131209495E+02 -0.24351926490E+02  0.48111131510E+03  0.48196479887E+03  0.00000000000E+00 0.  1.
         22    1    3    3    0    0  0.63914888226E+01 -0.15175364284E+03  0.49452667532E+03  0.51732644612E+03  0.00000000000E+00 0.  1.
</event>
<event>
 7    1  0.6508013E-006  0.2032872E+03  0.7818608E-02  0.1287467E+00
          2   -1    0    0  502    0  0.00000000000E+00  0.00000000000E+00  0.14660075339E+04  0.14660075339E+04  0.00000000000E+00 0. -1.
          1   -1    0    0  501    0 -0.00000000000E+00 -0.00000000000E+00 -0.11082017913E+04  0.11082017913E+04  0.00000000000E+00 0. -1.
         25    2    1    2    0    0 -0.57451375168E+02 -0.24027907970E+03 -0.15480662946E+03  0.31721552896E+03  0.12500361051E+03 0.  0.
          2    1    1    2  501    0  0.28335698720E+01  0.45878646738E+02 -0.86421559402E+03  0.86543715676E+03  0.00000000000E+00 0. -1.
          1    1    1    2  502    0  0.54617805296E+02  0.19440043296E+03  0.13768279660E+04  0.13915566395E+04  0.00000000000E+00 0. -1.
         22    1    3    3    0    0 -0.77074465466E+02 -0.17018994612E+03 -0.57062571222E+02  0.19534899033E+03  0.00000000000E+00 0.  1.
         22    1    3    3    0    0  0.19623090298E+02 -0.70089133581E+02 -0.97744058234E+02  0.12186653864E+03  0.00000000000E+00 0.  1.
</event>
<event>
 7    1  0.6508013E-006  0.5297296E+02  0.7818608E-02  0.1442716E+00
          2   -1    0    0  502    0  0.00000000000E+00  0.00000000000E+00  0.10027444850E+04  0.10027444850E+04  0.00000000000E+00 0. -1.
          1   -1    0    0  501    0 -0.00000000000E+00 -0.00000000000E+00 -0.23057951446E+03  0.23057951446E+03  0.00000000000E+00 0. -1.
         25    2    1    2    0    0 -0.26659889706E+02 -0.27307447146E+02  0.15173655009E+03  0.20026316566E+03  0.12499963400E+03 0.  0.
          2    1    1    2  501    0 -0.14922555833E+02  0.51530932895E+02 -0.20211349073E+03  0.20911236896E+03  0.00000000000E+00 0. -1.
          1    1    1    2  502    0  0.41582445539E+02 -0.24223485749E+02  0.82254191114E+03  0.82394846479E+03  0.00000000000E+00 0. -1.
         22    1    3    3    0    0 -0.17470310326E+02 -0.33654726773E+02 -0.91354373353E+01  0.39003956112E+02  0.00000000000E+00 0. -1.
         22    1    3    3    0    0 -0.91895793795E+01  0.63472796269E+01  0.16087198742E+03  0.16125920955E+03  0.00000000000E+00 0. -1.
</event>
<event>
 7    1  0.6508013E-006  0.8544553E+02  0.7818608E-02  0.1438304E+00
          2   -1    0    0  502    0  0.00000000000E+00  0.00000000000E+00  0.47571700055E+03  0.47571700055E+03  0.00000000000E+00 0. -1.
          1   -1    0    0  501    0 -0.00000000000E+00 -0.00000000000E+00 -0.28887992744E+04  0.28887992744E+04  0.00000000000E+00 0. -1.
         25    2    1    2    0    0  0.64898045505E+02  0.12086342344E+02  0.75276201441E+02  0.16015397456E+03  0.12499981233E+03 0.  0.
          2    1    1    2  501    0 -0.74985233824E+02 -0.41223828762E+02 -0.28450519996E+04  0.28463385375E+04  0.00000000000E+00 0. -1.
          1    1    1    2  502    0  0.10087188318E+02  0.29137486418E+02  0.35669352435E+03  0.35802376290E+03  0.00000000000E+00 0. -1.
         22    1    3    3    0    0  0.10238861060E+03  0.48657376706E+01  0.47713832146E+02  0.11306508198E+03  0.00000000000E+00 0.  1.
         22    1    3    3    0    0 -0.37490565099E+02  0.72206046730E+01  0.27562369295E+02  0.47088892581E+02  0.00000000000E+00 0.  1.
</event>
<event>
 7    1  0.6508013E-006  0.3212616E+02  0.7818608E-02  0.1609322E+00
          2   -1    0    0  502    0  0.00000000000E+00  0.00000000000E+00  0.32749721481E+03  0.32749721481E+03  0.00000000000E+00 0. -1.
          1   -1    0    0  501    0 -0.00000000000E+00 -0.00000000000E+00 -0.40468701099E+03  0.40468701099E+03  0.00000000000E+00 0. -1.
         25    2    1    2    0    0  0.25933279181E+01  0.65970537029E+01  0.89389861961E+01  0.12551997231E+03  0.12500044602E+03 0.  0.
          2    1    1    2  501    0 -0.23663002804E+02 -0.22156646547E+02 -0.34497575201E+03  0.34649548938E+03  0.00000000000E+00 0. -1.
          1    1    1    2  502    0  0.21069674886E+02  0.15559592844E+02  0.25884696964E+03  0.26016876411E+03  0.00000000000E+00 0. -1.
         22    1    3    3    0    0  0.29601102397E+02 -0.49289048543E+02 -0.14293259614E+02  0.59244686174E+02  0.00000000000E+00 0. -1.
         22    1    3    3    0    0 -0.27007774479E+02  0.55886102246E+02  0.23232245810E+02  0.66275286133E+02  0.00000000000E+00 0. -1.
</event>
<event>
 7    1  0.6508013E-006  0.2716724E+03  0.7818608E-02  0.1118376E+00
          2   -1    0    0  502    0  0.00000000000E+00  0.00000000000E+00  0.11705363153E+04  0.11705363153E+04  0.00000000000E+00 0. -1.
          1   -1    0    0  501    0 -0.00000000000E+00 -0.00000000000E+00 -0.66352958620E+03  0.66352958620E+03  0.00000000000E+00 0. -1.
         25    2    1    2    0    0  0.24824015519E+03 -0.21664807134E+03 -0.81204808856E+01  0.35249205475E+03  0.12500057996E+03 0.  0.
          2    1    1    2  501    0 -0.27298001637E+03  0.22556538581E+01 -0.43152974618E+03  0.51062814175E+03  0.00000000000E+00 0. -1.
          1    1    1    2  502    0  0.24739861180E+02  0.21439241748E+03  0.94665695620E+03  0.97094570503E+03  0.00000000000E+00 0. -1.
         22    1    3    3    0    0  0.18114702588E+03 -0.10671094336E+03  0.41811163001E+02  0.21435868018E+03  0.00000000000E+00 0.  1.
         22    1    3    3    0    0  0.67093129311E+02 -0.10993712798E+03 -0.49931643886E+02  0.13813337457E+03  0.00000000000E+00 0.  1.
</event>
<event>
 7    1  0.6508013E-006  0.8293719E+02  0.7818608E-02  0.1418143E+00
          2   -1    0    0  502    0  0.00000000000E+00  0.00000000000E+00  0.21501922545E+04  0.21501922545E+04  0.00000000000E+00 0. -1.
          1   -1    0    0  501    0 -0.00000000000E+00 -0.00000000000E+00 -0.16460735916E+03  0.16460735916E+03  0.00000000000E+00 0. -1.
         25    2    1    2    0    0  0.11461472103E+03 -0.25768543249E+02  0.25422196561E+03  0.30667802771E+03  0.12498821059E+03 0.  0.
          2    1    1    2  501    0 -0.80761897426E+02  0.10769449127E+02 -0.12618558083E+03  0.15020408090E+03  0.00000000000E+00 0. -1.
          1    1    1    2  502    0 -0.33852823602E+02  0.14999094122E+02  0.18575485105E+04  0.18579175050E+04  0.00000000000E+00 0. -1.
         22    1    3    3    0    0  0.88612986711E+02 -0.17120319010E+01  0.25630228252E+03  0.27119375452E+03  0.00000000000E+00 0.  1.
         22    1    3    3    0    0  0.26001734317E+02 -0.24056511348E+02 -0.20803169052E+01  0.35484273195E+02  0.00000000000E+00 0.  1.
</event>
<event>
 7    1  0.6508013E-006  0.1271956E+03  0.7818608E-02  0.1278859E+00
          2   -1    0    0  502    0  0.00000000000E+00  0.00000000000E+00  0.50189921267E+03  0.50189921267E+03  0.00000000000E+00 0. -1.
          1   -1    0    0  501    0 -0.00000000000E+00 -0.00000000000E+00 -0.36763559571E+03  0.36763559571E+03  0.00000000000E+00 0. -1.
         25    2    1    2    0    0 -0.19625232242E+03 -0.18208502054E+02  0.25139600188E+02  0.23475012164E+03  0.12501638498E+03 0.  0.
          2    1    1    2  501    0  0.11695629907E+03  0.26247687147E+02 -0.24449397280E+03  0.27229583124E+03  0.00000000000E+00 0. -1.
          1    1    1    2  502    0  0.79296023353E+02 -0.80391850930E+01  0.35361798957E+03  0.36248885550E+03  0.00000000000E+00 0. -1.
         22    1    3    3    0    0 -0.21205792952E+03 -0.14283589157E+02  0.35450760902E+02  0.21547469188E+03  0.00000000000E+00 0. -1.
         22    1    3    3    0    0  0.15805607106E+02 -0.39249128971E+01 -0.10311160714E+02  0.19275429762E+02  0.00000000000E+00 0. -1.
</event>
<event>
 7    1  0.6508013E-006  0.4004567E+02  0.7818608E-02  0.1518647E+00
          2   -1    0    0  502    0  0.00000000000E+00  0.00000000000E+00  0.10089554743E+04  0.10089554743E+04  0.00000000000E+00 0. -1.
          1   -1    0    0  501    0 -0.00000000000E+00 -0.00000000000E+00 -0.31192490201E+02  0.31192490201E+02  0.00000000000E+00 0. -1.
         25    2    1    2    0    0 -0.18823734871E+02  0.16245759108E+01  0.39397338378E+03  0.41375927948E+03  0.12499896794E+03 0.  0.
          2    1    1    2  501    0  0.21845818588E+02  0.35490773382E+02  0.26408785338E+00  0.41676186575E+02  0.00000000000E+00 0. -1.
          1    1    1    2  502    0 -0.30220837167E+01 -0.37115349293E+02  0.58352551248E+03  0.58471249847E+03  0.00000000000E+00 0. -1.
         22    1    3    3    0    0 -0.60610270088E+02 -0.16360450275E+02  0.11426442505E+03  0.13037495160E+03  0.00000000000E+00 0. -1.
         22    1    3    3    0    0  0.41786535217E+02  0.17985026186E+02  0.27970895873E+03  0.28338432788E+03  0.00000000000E+00 0. -1.
</event>
<event>
 7    1  0.6508013E-006  0.4214963E+02  0.7818608E-02  0.1552065E+00
          2   -1    0    0  502    0  0.00000000000E+00  0.00000000000E+00  0.30752777277E+03  0.30752777277E+03  0.00000000000E+00 0. -1.
          1   -1    0    0  501    0 -0.00000000000E+00 -0.00000000000E+00 -0.49672489570E+03  0.49672489570E+03  0.00000000000E+00 0. -1.
         25    2    1    2    0    0  0.59969906076E+02 -0.30450332372E+01 -0.77393071761E+01  0.13889210675E+03  0.12500183431E+03 0.  0.
          2    1    1    2  501    0 -0.38810815054E+02 -0.15934091588E+02 -0.42152944137E+03  0.42361213932E+03  0.00000000000E+00 0. -1.
          1    1    1    2  502    0 -0.21159091022E+02  0.18979124825E+02  0.24007162560E+03  0.24174842240E+03  0.00000000000E+00 0. -1.
         22    1    3    3    0    0 -0.32339181600E+02 -0.17704231687E+02 -0.24042836618E+02  0.44015002883E+02  0.00000000000E+00 0. -1.
         22    1    3    3    0    0  0.92309087676E+02  0.14659198450E+02  0.16303529442E+02  0.94877103871E+02  0.00000000000E+00 0. -1.
</event>
<event>
 7    1  0.6508013E-006  0.1255518E+03  0.7818608E-02  0.1275614E+00
          2   -1    0    0  502    0  0.00000000000E+00  0.00000000000E+00  0.46607175532E+03  0.46607175532E+03  0.00000000000E+00 0. -1.
          1   -1    0    0  501    0 -0.00000000000E+00 -0.00000000000E+00 -0.16640213213E+04  0.16640213213E+04  0.00000000000E+00 0. -1.
         25    2    1    2    0    0 -0.12967980619E+03  0.48407766978E+02 -0.30663277735E+03  0.35890036152E+03  0.12500258124E+03 0.  0.
          2    1    1    2  501    0  0.69573804055E+02 -0.10606452252E+03 -0.13242546965E+04  0.13303160145E+04  0.00000000000E+00 0. -1.
          1    1    1    2  502    0  0.60106002140E+02  0.57656755541E+02  0.43293790795E+03  0.44087670055E+03  0.00000000000E+00 0. -1.
         22    1    3    3    0    0 -0.93320144963E+02  0.89063278764E+02 -0.18431686751E+03  0.22497472020E+03  0.00000000000E+00 0.  1.
         22    1    3    3    0    0 -0.36359661232E+02 -0.40655511786E+02 -0.12231590983E+03  0.13392564131E+03  0.00000000000E+00 0.  1.
</event>
<event>
 7    1  0.6508013E-006  0.8172810E+02  0.7818608E-02  0.1395833E+00
          2   -1    0    0  502    0  0.00000000000E+00  0.00000000000E+00  0.16829661326E+04  0.16829661326E+04  0.00000000000E+00 0. -1.
          1   -1    0    0  501    0 -0.00000000000E+00 -0.00000000000E+00 -0.59021172460E+02  0.59021172460E+02  0.00000000000E+00 0. -1.
         25    2    1    2    0    0  0.15823368457E+01 -0.48067161363E+02  0.12014976434E+03  0.17992560976E+03  0.12499721351E+03 0.  0.
          2    1    1    2  501    0  0.36508638709E+02 -0.25886164478E+02 -0.10102145430E+02  0.45880579268E+02  0.00000000000E+00 0. -1.
          1    1    1    2  502    0 -0.38090975554E+02  0.73953325840E+02  0.15138973413E+04  0.15161811161E+04  0.00000000000E+00 0. -1.
         22    1    3    3    0    0 -0.19182423697E+02  0.17216866358E+02  0.10713684161E+03  0.11019386868E+03  0.00000000000E+00 0.  1.
         22    1    3    3    0    0  0.20764760543E+02 -0.65284027721E+02  0.13012922734E+02  0.69731741079E+02  0.00000000000E+00 0.  1.
</event>
<event>
 7    1  0.6508013E-006  0.1836857E+03  0.7818608E-02  0.1180474E+00
          2   -1    0    0  502    0  0.00000000000E+00  0.00000000000E+00  0.11898696230E+04  0.11898696230E+04  0.00000000000E+00 0. -1.
          1   -1    0    0  501    0 -0.00000000000E+00 -0.00000000000E+00 -0.16771131773E+04  0.16771131773E+04  0.00000000000E+00 0. -1.
         25    2    1    2    0    0  0.75843026442E+02  0.43821791464E+02 -0.45227817677E+03  0.47733971601E+03  0.12500056492E+03 0.  0.
          2    1    1    2  501    0  0.93114776350E+02 -0.12108857168E+03 -0.12001034847E+04  0.12097855916E+04  0.00000000000E+00 0. -1.
          1    1    1    2  502    0 -0.16895780279E+03  0.77266780214E+02  0.11651381071E+04  0.11798574927E+04  0.00000000000E+00 0. -1.
         22    1    3    3    0    0  0.30455622695E+01  0.28287127935E+02 -0.12107879849E+02  0.30919861105E+02  0.00000000000E+00 0.  1.
         22    1    3    3    0    0  0.72797464172E+02  0.15534663529E+02 -0.44017029692E+03  0.44641985490E+03  0.00000000000E+00 0.  1.
</event>
<event>
 7    1  0.6508013E-006  0.1145620E+03  0.7818608E-02  0.1317444E+00
          2   -1    0    0  502    0  0.00000000000E+00  0.00000000000E+00  0.35309746469E+04  0.35309746469E+04  0.00000000000E+00 0. -1.
          1   -1    0    0  501    0 -0.00000000000E+00 -0.00000000000E+00 -0.11609175171E+03  0.11609175171E+03  0.00000000000E+00 0. -1.
         25    2    1    2    0    0 -0.17254614763E+03 -0.19277913355E+02  0.47498839819E+03  0.52094423678E+03  0.12500043366E+03 0.  0.
          2    1    1    2  501    0  0.60944596014E+02  0.11041138239E+02 -0.81662586526E+02  0.10249355372E+03  0.00000000000E+00 0. -1.
          1    1    1    2  502    0  0.11160155161E+03  0.82367751154E+01  0.30215570835E+04  0.30236286081E+04  0.00000000000E+00 0. -1.
         22    1    3    3    0    0 -0.92751599356E+02  0.15661916597E+02  0.38248506330E+03  0.39388193468E+03  0.00000000000E+00 0.  1.
         22    1    3    3    0    0 -0.79794548270E+02 -0.34939829951E+02  0.92503334887E+02  0.12706230210E+03  0.00000000000E+00 0.  1.
</event>
<event>
 7    1  0.6508013E-006  0.9996385E+02  0.7818608E-02  0.1316649E+00
          2   -1    0    0  502    0  0.00000000000E+00  0.00000000000E+00  0.27905562559E+04  0.27905562559E+04  0.00000000000E+00 0. -1.
          1   -1    0    0  501    0 -0.00000000000E+00 -0.00000000000E+00 -0.20101599252E+03  0.20101599252E+03  0.00000000000E+00 0. -1.
         25    2    1    2    0    0  0.37928904679E+02  0.12827235534E+03  0.33323441270E+03  0.38021395192E+03  0.12500030589E+03 0.  0.
          2    1    1    2  501    0  0.35885319064E+02 -0.61831205752E+02 -0.16927133359E+03  0.18374884627E+03  0.00000000000E+00 0. -1.
          1    1    1    2  502    0 -0.73814223744E+02 -0.66441149590E+02  0.24255771843E+04  0.24276094503E+04  0.00000000000E+00 0. -1.
         22    1    3    3    0    0  0.71556018237E+02  0.30407248050E+02  0.11676020443E+03  0.14027761695E+03  0.00000000000E+00 0. -1.
         22    1    3    3    0    0 -0.33627113558E+02  0.97865107292E+02  0.21647420827E+03  0.23993633497E+03  0.00000000000E+00 0. -1.
</event>
<event>
 7    1  0.1666128E-005  0.5829412E+02  0.7818608E-02  0.1445667E+00
          2   -1    0    0  502    0  0.00000000000E+00  0.00000000000E+00  0.11618233307E+04  0.11618233307E+04  0.00000000000E+00 0. -1.
          1   -1    0    0  501    0 -0.00000000000E+00 -0.00000000000E+00 -0.19938037091E+04  0.19938037091E+04  0.00000000000E+00 0. -1.
         25    2    1    2    0    0 -0.43344167935E+01  0.28012026364E+02 -0.48117527816E+03  0.49795124761E+03  0.12498934312E+03 0.  0.
          2    1    1    2  501    0  0.45098525937E+02 -0.40998456135E+02 -0.15032259717E+04  0.15044610572E+04  0.00000000000E+00 0. -1.
          1    1    1    2  502    0 -0.40764109144E+02  0.12986429771E+02  0.11524208715E+04  0.11532147350E+04  0.00000000000E+00 0. -1.
         22    1    3    3    0    0 -0.37767012403E+02  0.63510701083E+01 -0.41483342439E+02  0.56458400768E+02  0.00000000000E+00 0.  1.
         22    1    3    3    0    0  0.33432595609E+02  0.21660956256E+02 -0.43969193572E+03  0.44149284684E+03  0.00000000000E+00 0.  1.
</event>
<event>
 7    1  0.6508013E-006  0.1087152E+03  0.7818608E-02  0.1264438E+00
          2   -1    0    0  502    0  0.00000000000E+00  0.00000000000E+00  0.75825025540E+03  0.75825025540E+03  0.00000000000E+00 0. -1.
          1   -1    0    0  501    0 -0.00000000000E+00 -0.00000000000E+00 -0.24308627093E+03  0.24308627093E+03  0.00000000000E+00 0. -1.
         25    2    1    2    0    0 -0.21005370646E+01  0.10783947876E+03  0.16176993622E+03  0.23114519421E+03  0.12499929243E+03 0.  0.
          2    1    1    2  501    0  0.96763018294E+02 -0.54379095427E+02 -0.18782001396E+03  0.21816627918E+03  0.00000000000E+00 0. -1.
          1    1    1    2  502    0 -0.94662481230E+02 -0.53460383337E+02  0.54121406221E+03  0.55202505294E+03  0.00000000000E+00 0. -1.
         22    1    3    3    0    0 -0.12688517705E+02  0.20321451912E+02  0.13769103470E+03  0.13975972569E+03  0.00000000000E+00 0.  1.
         22    1    3    3    0    0  0.10587980640E+02  0.87518026852E+02  0.24078901520E+02  0.91385468520E+02  0.00000000000E+00 0.  1.
</event>
<event>
 7    1  0.6508013E-006  0.5089464E+02  0.7818608E-02  0.1530280E+00
          2   -1    0    0  502    0  0.00000000000E+00  0.00000000000E+00  0.41907567654E+03  0.41907567654E+03  0.00000000000E+00 0. -1.
          1   -1    0    0  501    0 -0.00000000000E+00 -0.00000000000E+00 -0.12617703032E+04  0.12617703032E+04  0.00000000000E+00 0. -1.
         25    2    1    2    0    0  0.43887022106E+02  0.16539464089E+02  0.23888081090E+02  0.13562312259E+03  0.12499346535E+03 0.  0.
          2    1    1    2  501    0  0.64349169512E+01 -0.26345862414E+02 -0.12038126172E+04  0.12041180714E+04  0.00000000000E+00 0. -1.
          1    1    1    2  502    0 -0.50321939057E+02  0.98063983258E+01  0.33722990946E+03  0.34110478571E+03  0.00000000000E+00 0. -1.
         22    1    3    3    0    0 -0.24208831813E+02 -0.25369888073E+02 -0.23932362134E+02  0.42455349673E+02  0.00000000000E+00 0.  1.
         22    1    3    3    0    0  0.68095853919E+02  0.41909352161E+02  0.47820443223E+02  0.93167772913E+02  0.00000000000E+00 0.  1.
</event>
<event>
 7    1  0.6508013E-006  0.8708749E+02  0.7818608E-02  0.1315284E+00
          2   -1    0    0  502    0  0.00000000000E+00  0.00000000000E+00  0.20706355324E+04  0.20706355324E+04  0.00000000000E+00 0. -1.
          1   -1    0    0  501    0 -0.00000000000E+00 -0.00000000000E+00 -0.25666920311E+03  0.25666920311E+03  0.00000000000E+00 0. -1.
         25    2    1    2    0    0 -0.41732270342E+02 -0.61026972122E+02 -0.15231888678E+01  0.14524357625E+03  0.12501001009E+03 0.  0.
          2    1    1    2  501    0 -0.45626349380E+02  0.69422603481E+02 -0.17285467040E+03  0.19178112188E+03  0.00000000000E+00 0. -1.
          1    1    1    2  502    0  0.87358619722E+02 -0.83956313594E+01  0.19883441886E+04  0.19902800374E+04  0.00000000000E+00 0. -1.
         22    1    3    3    0    0  0.25164045877E+02 -0.51794506573E+02 -0.37509597234E+02  0.68723140213E+02  0.00000000000E+00 0.  1.
         22    1    3    3    0    0 -0.66896316219E+02 -0.92324655484E+01  0.35986408366E+02  0.76520436034E+02  0.00000000000E+00 0.  1.
</event>
<event>
 7    1  0.6508013E-006  0.6449358E+02  0.7818608E-02  0.1430033E+00
          2   -1    0    0  502    0  0.00000000000E+00  0.00000000000E+00  0.33286580117E+04  0.33286580117E+04  0.00000000000E+00 0. -1.
          1   -1    0    0  501    0 -0.00000000000E+00 -0.00000000000E+00 -0.23174774305E+02  0.23174774305E+02  0.00000000000E+00 0. -1.
         25    2    1    2    0    0 -0.59729858701E+02  0.64148382191E+02  0.10663660393E+04  0.10772389915E+04  0.12499857596E+03 0.  0.
          2    1    1    2  501    0  0.43377713964E+02 -0.29524981678E+01  0.10047057934E+02  0.44623835417E+02  0.00000000000E+00 0. -1.
          1    1    1    2  502    0  0.16352144737E+02 -0.61195884024E+02  0.22290701401E+04  0.22299699591E+04  0.00000000000E+00 0. -1.
         22    1    3    3    0    0 -0.33325857882E+02 -0.33527483943E+02  0.23253836373E+03  0.23729474412E+03  0.00000000000E+00 0.  1.
         22    1    3    3    0    0 -0.26404000819E+02  0.97675866134E+02  0.83382767559E+03  0.83994424735E+03  0.00000000000E+00 0.  1.
</event>
<event>
 7    1  0.6508013E-006  0.4857181E+02  0.7818608E-02  0.1530247E+00
          2   -1    0    0  502    0  0.00000000000E+00  0.00000000000E+00  0.20102564233E+03  0.20102564233E+03  0.00000000000E+00 0. -1.
          1   -1    0    0  501    0 -0.00000000000E+00 -0.00000000000E+00 -0.27850770490E+03  0.27850770490E+03  0.00000000000E+00 0. -1.
         25    2    1    2    0    0 -0.40112650647E+02 -0.64062297003E+02 -0.34775207369E+02  0.15015762543E+03  0.12499997915E+03 0.  0.
          2    1    1    2  501    0  0.25143028110E+02  0.39900254572E+02 -0.18158977426E+03  0.18761409407E+03  0.00000000000E+00 0. -1.
          1    1    1    2  502    0  0.14969622537E+02  0.24162042431E+02  0.13888291905E+03  0.14176162773E+03  0.00000000000E+00 0. -1.
         22    1    3    3    0    0 -0.57466218678E+02  0.31589596450E+01 -0.53151429055E+02  0.78341685748E+02  0.00000000000E+00 0. -1.
         22    1    3    3    0    0  0.17353568032E+02 -0.67221256648E+02  0.18376221686E+02  0.71815939681E+02  0.00000000000E+00 0. -1.
</event>
<event>
 7    1  0.8153580E-006  0.5171114E+02  0.7818608E-02  0.1500825E+00
          2   -1    0    0  502    0  0.00000000000E+00  0.00000000000E+00  0.18385844160E+04  0.18385844160E+04  0.00000000000E+00 0. -1.
          1   -1    0    0  501    0 -0.00000000000E+00 -0.00000000000E+00 -0.10821574351E+04  0.10821574351E+04  0.00000000000E+00 0. -1.
         25    2    1    2    0    0  0.14733433733E+02 -0.35222132401E+02 -0.49859576834E+02  0.13989112244E+03  0.12500350417E+03 0.  0.
          2    1    1    2  501    0  0.30794594556E+02  0.10520010516E+02 -0.98663979858E+03  0.98717631142E+03  0.00000000000E+00 0. -1.
          1    1    1    2  502    0 -0.45528028289E+02  0.24702121885E+02  0.17929263563E+04  0.17936744173E+04  0.00000000000E+00 0. -1.
         22    1    3    3    0    0  0.55777285949E+02 -0.53188170565E+02 -0.55156791699E+02  0.94775306839E+02  0.00000000000E+00 0.  1.
         22    1    3    3    0    0 -0.41043852216E+02  0.17966038164E+02  0.52972148648E+01  0.45115815601E+02  0.00000000000E+00 0.  1.
</event>
<event>
 7    1  0.6508013E-006  0.4860400E+02  0.7818608E-02  0.1491772E+00
          2   -1    0    0  502    0  0.00000000000E+00  0.00000000000E+00  0.18876218119E+04  0.18876218119E+04  0.00000000000E+00 0. -1.
          1   -1    0    0  501    0 -0.00000000000E+00 -0.00000000000E+00 -0.78733087929E+03  0.78733087929E+03  0.00000000000E+00 0. -1.
         25    2    1    2    0    0  0.43867562186E+02 -0.42541009150E+02  0.68874359357E+02  0.15525131252E+03  0.12500076875E+03 0.  0.
          2    1    1    2  501    0 -0.48237359428E+02  0.59450520185E+01 -0.74315726153E+03  0.74474485688E+03  0.00000000000E+00 0. -1.
          1    1    1    2  502    0  0.43697972419E+01  0.36595957132E+02  0.17745738348E+04  0.17749565218E+04  0.00000000000E+00 0. -1.
         22    1    3    3    0    0 -0.23218705683E+02  0.19261430930E+02  0.55352665800E+02  0.63039897099E+02  0.00000000000E+00 0. -1.
         22    1    3    3    0    0  0.67086267870E+02 -0.61802440080E+02  0.13521693557E+02  0.92211415417E+02  0.00000000000E+00 0. -1.
</event>
<event>
 7    1  0.6508013E-006  0.2312232E+03  0.7818608E-02  0.1229172E+00
          2   -1    0    0  502    0  0.00000000000E+00  0.00000000000E+00  0.91415059043E+03  0.91415059043E+03  0.00000000000E+00 0. -1.
          1   -1    0    0  501    0 -0.00000000000E+00 -0.00000000000E+00 -0.20382743716E+03  0.20382743716E+03  0.00000000000E+00 0. -1.
         25    2    1    2    0    0 -0.23749699824E+03 -0.56033439447E+02  0.61709789190E+03  0.67526326860E+03  0.12500441284E+03 0.  0.
          2    1    1    2  501    0  0.49399716442E+02 -0.52107881379E+02 -0.11914571495E+03  0.13910882315E+03  0.00000000000E+00 0. -1.
          1    1    1    2  502    0  0.18809728180E+03  0.10814132083E+03  0.21237097633E+03  0.30360593584E+03  0.00000000000E+00 0. -1.
         22    1    3    3    0    0 -0.13636047779E+03  0.32225396590E+01  0.20056009959E+03  0.24254673408E+03  0.00000000000E+00 0. -1.
         22    1    3    3    0    0 -0.10113652045E+03 -0.59255979106E+02  0.41653779231E+03  0.43271653452E+03  0.00000000000E+00 0. -1.
</event>
<event>
 7    1  0.6508013E-006  0.6305263E+02  0.7818608E-02  0.1397372E+00
          2   -1    0    0  502    0  0.00000000000E+00  0.00000000000E+00  0.57985728563E+03  0.57985728563E+03  0.00000000000E+00 0. -1.
          1   -1    0    0  501    0 -0.00000000000E+00 -0.00000000000E+00 -0.69249626489E+03  0.69249626489E+03  0.00000000000E+00 0. -1.
         25    2    1    2    0    0  0.60732965042E+02 -0.56188958187E+01  0.10412973672E+03  0.17374613156E+03  0.12499860451E+03 0.  0.
          2    1    1    2  501    0 -0.18015703259E+02  0.54398532502E+02 -0.65404471927E+03  0.65655027280E+03  0.00000000000E+00 0. -1.
          1    1    1    2  502    0 -0.42717261783E+02 -0.48779636684E+02  0.43727600330E+03  0.44205714616E+03  0.00000000000E+00 0. -1.
         22    1    3    3    0    0  0.93206585503E+02  0.19933037922E+02  0.56959913833E+02  0.11103704502E+03  0.00000000000E+00 0.  1.
         22    1    3    3    0    0 -0.32473620461E+02 -0.25551933741E+02  0.47169822891E+02  0.62709086545E+02  0.00000000000E+00 0.  1.
</event>
<event>
 7    1  0.6508013E-006  0.4707839E+02  0.7818608E-02  0.1574193E+00
          2   -1    0    0  502    0  0.00000000000E+00  0.00000000000E+00  0.12442021443E+04  0.12442021443E+04  0.00000000000E+00 0. -1.
          1   -1    0    0  501    0 -0.00000000000E+00 -0.00000000000E+00 -0.17713356553E+03  0.17713356553E+03  0.00000000000E+00 0. -1.
         25    2    1    2    0    0 -0.63032357625E+02 -0.19445160338E+01  0.77132291929E+02  0.15984710954E+03  0.12499939488E+03 0.  0.
          2    1    1    2  501    0  0.18351243506E+02 -0.12368865668E+02 -0.13438186678E+03  0.13619193477E+03  0.00000000000E+00 0. -1.
          1    1    1    2  502    0  0.44681114119E+02  0.14313381702E+02  0.11243181536E+04  0.11252966655E+04  0.00000000000E+00 0. -1.
         22    1    3    3    0    0 -0.87897022962E+02 -0.37925920093E+02  0.59338929043E+02  0.11262935035E+03  0.00000000000E+00 0.  1.
         22    1    3    3    0    0  0.24864665336E+02  0.35981404059E+02  0.17793362885E+02  0.47217759192E+02  0.00000000000E+00 0.  1.
</event>
<event>
 7    1  0.6508013E-006  0.1204518E+03  0.7818608E-02  0.1254876E+00
          2   -1    0    0  502    0  0.00000000000E+00  0.00000000000E+00  0.21195974530E+04  0.21195974530E+04  0.00000000000E+00 0. -1.
          1   -1    0    0  501    0 -0.00000000000E+00 -0.00000000000E+00 -0.58020178662E+03  0.58020178662E+03  0.00000000000E+00 0. -1.
         25    2    1    2    0    0 -0.68219211870E+02 -0.20901253684E+02 -0.58334469872E+02  0.15530242790E+03  0.12500084185E+03 0.  0.
          2    1    1    2  501    0  0.41204378767E+02 -0.97944519294E+02 -0.46559950314E+03  0.47757075602E+03  0.00000000000E+00 0. -1.
          1    1    1    2  502    0  0.27014833104E+02  0.11884577298E+03  0.20633296394E+04  0.20669260557E+04  0.00000000000E+00 0. -1.
         22    1    3    3    0    0  0.33508814364E+02  0.22690444754E+01  0.39100179003E+01  0.33812385939E+02  0.00000000000E+00 0.  1.
         22    1    3    3    0    0 -0.10172802623E+03 -0.23170298159E+02 -0.62244487772E+02  0.12149004196E+03  0.00000000000E+00 0.  1.
</event>
<event>
 7    1  0.6508013E-006  0.1637448E+03  0.7818608E-02  0.1301165E+00
          2   -1    0    0  502    0  0.00000000000E+00  0.00000000000E+00  0.13370145652E+04  0.13370145652E+04  0.00000000000E+00 0. -1.
          1   -1    0    0  501    0 -0.00000000000E+00 -0.00000000000E+00 -0.81950813531E+03  0.81950813531E+03  0.00000000000E+00 0. -1.
         25    2    1    2    0    0 -0.68095810244E+02  0.17304721991E+03  0.36207299846E+03  0.42579834973E+03  0.12499999492E+03 0.  0.
          2    1    1    2  501    0  0.96674890753E+02 -0.13172784523E+03 -0.77848894518E+03  0.79545163114E+03  0.00000000000E+00 0. -1.
          1    1    1    2  502    0 -0.28579080509E+02 -0.41319374672E+02  0.93392237665E+03  0.93527271967E+03  0.00000000000E+00 0. -1.
         22    1    3    3    0    0 -0.54501315718E+02  0.23470504419E+02  0.43439155261E+02  0.73540588810E+02  0.00000000000E+00 0. -1.
         22    1    3    3    0    0 -0.13594494526E+02  0.14957671549E+03  0.31863384320E+03  0.35225776092E+03  0.00000000000E+00 0. -1.
</event>
<event>
 7    1  0.6694441E-006  0.5209648E+02  0.7818608E-02  0.1469199E+00
          2   -1    0    0  502    0  0.00000000000E+00  0.00000000000E+00  0.21879789035E+04  0.21879789035E+04  0.00000000000E+00 0. -1.
          1   -1    0    0  501    0 -0.00000000000E+00 -0.00000000000E+00 -0.84028126697E+03  0.84028126697E+03  0.00000000000E+00 0. -1.
         25    2    1    2    0    0 -0.27913490675E+01 -0.27170019953E+02 -0.60614247851E+03  0.61950039638E+03  0.12500414091E+03 0.  0.
          2    1    1    2  501    0 -0.40265536201E+02 -0.21893741592E+01 -0.22535860942E+03  0.22893800385E+03  0.00000000000E+00 0. -1.
          1    1    1    2  502    0  0.43056885268E+02  0.29359394113E+02  0.21791987244E+04  0.21798217702E+04  0.00000000000E+00 0. -1.
         22    1    3    3    0    0 -0.35424138476E+02 -0.67322598736E+02 -0.37479497547E+03  0.38243754461E+03  0.00000000000E+00 0.  1.
         22    1    3    3    0    0  0.32632789409E+02  0.40152578783E+02 -0.23134750304E+03  0.23706285177E+03  0.00000000000E+00 0.  1.
</event>
<event>
 7    1  0.6508013E-006  0.1339170E+03  0.7818608E-02  0.1421518E+00
          2   -1    0    0  502    0  0.00000000000E+00  0.00000000000E+00  0.59079886732E+03  0.59079886732E+03  0.00000000000E+00 0. -1.
          1   -1    0    0  501    0 -0.00000000000E+00 -0.00000000000E+00 -0.42669437115E+03  0.42669437115E+03  0.00000000000E+00 0. -1.
         25    2    1    2    0    0 -0.14911878190E+03 -0.15255527595E+02  0.38706021715E+03  0.43348424773E+03  0.12499535628E+03 0.  0.
          2    1    1    2  501    0  0.13350665899E+03 -0.72895969441E+00 -0.39168144955E+03  0.41381024311E+03  0.00000000000E+00 0. -1.
          1    1    1    2  502    0  0.15612122915E+02  0.15984487290E+02  0.16872572857E+03  0.17019874764E+03  0.00000000000E+00 0. -1.
         22    1    3    3    0    0 -0.46780542805E+02  0.41866596333E+02  0.63250815184E+02  0.89117319838E+02  0.00000000000E+00 0.  1.
         22    1    3    3    0    0 -0.10233823910E+03 -0.57122123929E+02  0.32380940196E+03  0.34436692789E+03  0.00000000000E+00 0.  1.
</event>
<event>
 7    1  0.6508013E-006  0.3674528E+02  0.7818608E-02  0.1568486E+00
          2   -1    0    0  502    0  0.00000000000E+00  0.00000000000E+00  0.75805823444E+02  0.75805823444E+02  0.00000000000E+00 0. -1.
          1   -1    0    0  501    0 -0.00000000000E+00 -0.00000000000E+00 -0.53691706682E+03  0.53691706682E+03  0.00000000000E+00 0. -1.
         25    2    1    2    0    0 -0.48595820953E+02 -0.34907378525E+02 -0.21600674859E+03  0.25663696239E+03  0.12499414442E+03 0.  0.
          2    1    1    2  501    0  0.13408147768E+02  0.26144690708E+02 -0.29385908260E+03  0.29532437032E+03  0.00000000000E+00 0. -1.
          1    1    1    2  502    0  0.35187673185E+02  0.87626878172E+01  0.48754587821E+02  0.60761557547E+02  0.00000000000E+00 0. -1.
         22    1    3    3    0    0  0.41802428065E+01 -0.57688064475E+02 -0.17938626096E+03  0.18848028500E+03  0.00000000000E+00 0. -1.
         22    1    3    3    0    0 -0.52776063759E+02  0.22780685950E+02 -0.36620487629E+02  0.68156677387E+02  0.00000000000E+00 0. -1.
</event>
<event>
 7    1  0.6508013E-006  0.1719724E+03  0.7818608E-02  0.1187538E+00
          2   -1    0    0  502    0  0.00000000000E+00  0.00000000000E+00  0.10060831292E+04  0.10060831292E+04  0.00000000000E+00 0. -1.
          1   -1    0    0  501    0 -0.00000000000E+00 -0.00000000000E+00 -0.46770563212E+03  0.46770563212E+03  0.00000000000E+00 0. -1.
         25    2    1    2    0    0 -0.67607177988E+02  0.25289561565E+02 -0.16314222852E+02  0.14526578135E+03  0.12500280366E+03 0.  0.
          2    1    1    2  501    0  0.59005852832E+01  0.15066896232E+03 -0.36247875856E+03  0.39258986681E+03  0.00000000000E+00 0. -1.
          1    1    1    2  502    0  0.61706592705E+02 -0.17595852388E+03  0.91717047848E+03  0.93593311316E+03  0.00000000000E+00 0. -1.
         22    1    3    3    0    0 -0.92395673009E+02 -0.97483898532E+01  0.12245562675E+02  0.93712033916E+02  0.00000000000E+00 0.  1.
         22    1    3    3    0    0  0.24788495020E+02  0.35037951419E+02 -0.28559785527E+02  0.51553747432E+02  0.00000000000E+00 0.  1.
</event>
<event>
 7    1  0.6508013E-006  0.5204474E+02  0.7818608E-02  0.1479802E+00
          2   -1    0    0  502    0  0.00000000000E+00  0.00000000000E+00  0.28639928596E+02  0.28639928596E+02  0.00000000000E+00 0. -1.
          1   -1    0    0  501    0 -0.00000000000E+00 -0.00000000000E+00 -0.11778875168E+04  0.11778875168E+04  0.00000000000E+00 0. -1.
         25    2    1    2    0    0 -0.45207911789E+02 -0.64998138217E+02 -0.29288841283E+03  0.32814093164E+03  0.12499734153E+03 0.  0.
          2    1    1    2  501    0  0.32338247327E+02  0.18849598905E+02 -0.81271989025E+03  0.81358139706E+03  0.00000000000E+00 0. -1.
          1    1    1    2  502    0  0.12869664461E+02  0.46148539312E+02 -0.43639285110E+02  0.64805116687E+02  0.00000000000E+00 0. -1.
         22    1    3    3    0    0 -0.33767770281E+02 -0.52333454268E+02 -0.30230136274E+03  0.30865055752E+03  0.00000000000E+00 0. -1.
         22    1    3    3    0    0 -0.11440141508E+02 -0.12664683949E+02  0.94129499110E+01  0.19490374118E+02  0.00000000000E+00 0. -1.
</event>
<event>
 7    1  0.6508013E-006  0.8792172E+02  0.7818608E-02  0.1312753E+00
          2   -1    0    0  502    0  0.00000000000E+00  0.00000000000E+00  0.34963936237E+04  0.34963936237E+04  0.00000000000E+00 0. -1.
          1   -1    0    0  501    0 -0.00000000000E+00 -0.00000000000E+00 -0.17830485277E+04  0.17830485277E+04  0.00000000000E+00 0. -1.
         25    2    1    2    0    0  0.10033390669E+03 -0.10727890922E+03  0.12859935657E+03  0.23181529094E+03  0.12499950964E+03 0.  0.
          2    1    1    2  501    0 -0.81288894121E+02  0.21891230244E+02 -0.17298397435E+04  0.17318870196E+04  0.00000000000E+00 0. -1.
          1    1    1    2  502    0 -0.19045012566E+02  0.85387678972E+02  0.33145854830E+04  0.33157398408E+04  0.00000000000E+00 0. -1.
         22    1    3    3    0    0 -0.15013674561E+02  0.16656514911E+02  0.74580155536E+01  0.23632010257E+02  0.00000000000E+00 0.  1.
         22    1    3    3    0    0  0.11534758125E+03 -0.12393542413E+03  0.12114134101E+03  0.20818328068E+03  0.00000000000E+00 0.  1.
</event>
<event>
 7    1  0.6508013E-006  0.9659001E+02  0.7818608E-02  0.1370534E+00
          2   -1    0    0  502    0  0.00000000000E+00  0.00000000000E+00  0.48475073126E+03  0.48475073126E+03  0.00000000000E+00 0. -1.
          1   -1    0    0  501    0 -0.00000000000E+00 -0.00000000000E+00 -0.30692523037E+03  0.30692523037E+03  0.00000000000E+00 0. -1.
         25    2    1    2    0    0 -0.11162108161E+03  0.84903882065E+02  0.15617489928E+03  0.24430162437E+03  0.12499899781E+03 0.  0.
          2    1    1    2  501    0  0.79894151602E+02 -0.50907723170E+02 -0.25230297280E+03  0.26950224827E+03  0.00000000000E+00 0. -1.
          1    1    1    2  502    0  0.31726930004E+02 -0.33996158895E+02  0.27395357442E+03  0.27787208900E+03  0.00000000000E+00 0. -1.
         22    1    3    3    0    0 -0.13890269500E+03  0.61879235563E+02  0.12326985307E+03  0.19575100293E+03  0.00000000000E+00 0.  1.
         22    1    3    3    0    0  0.27281613392E+02  0.23024646502E+02  0.32905046206E+02  0.48550621434E+02  0.00000000000E+00 0.  1.
</event>
<event>
 7    1  0.6508013E-006  0.1559780E+03  0.7818608E-02  0.1340667E+00
          2   -1    0    0  502    0  0.00000000000E+00  0.00000000000E+00  0.15294191162E+04  0.15294191162E+04  0.00000000000E+00 0. -1.
          1   -1    0    0  501    0 -0.00000000000E+00 -0.00000000000E+00 -0.34373228636E+03  0.34373228636E+03  0.00000000000E+00 0. -1.
         25    2    1    2    0    0 -0.15715877135E+03  0.99356963964E+02  0.21352232198E+02  0.22505383013E+03  0.12499049138E+03 0.  0.
          2    1    1    2  501    0  0.13183138032E+03 -0.72282706050E+02 -0.21824597490E+03  0.26502001432E+03  0.00000000000E+00 0. -1.
          1    1    1    2  502    0  0.25327391035E+02 -0.27074257914E+02  0.13825805726E+04  0.13830775581E+04  0.00000000000E+00 0. -1.
         22    1    3    3    0    0 -0.48025208696E+02  0.86081741964E+02  0.51282715817E+02  0.11111437311E+03  0.00000000000E+00 0. -1.
         22    1    3    3    0    0 -0.10913356266E+03  0.13275222000E+02 -0.29930483619E+02  0.11393945702E+03  0.00000000000E+00 0. -1.
</event>
<event>
 7    1  0.6508013E-006  0.8722379E+02  0.7818608E-02  0.1311869E+00
          2   -1    0    0  502    0  0.00000000000E+00  0.00000000000E+00  0.70951588762E+03  0.70951588762E+03  0.00000000000E+00 0. -1.
          1   -1    0    0  501    0 -0.00000000000E+00 -0.00000000000E+00 -0.81430470044E+03  0.81430470044E+03  0.00000000000E+00 0. -1.
         25    2    1    2    0    0 -0.44548310729E+02 -0.47214952271E+02 -0.33424960225E+02  0.14476434580E+03  0.12500273654E+03 0.  0.
          2    1    1    2  501    0 -0.35951550332E+02  0.80797126165E+02 -0.71958210581E+03  0.72499592865E+03  0.00000000000E+00 0. -1.
          1    1    1    2  502    0  0.80499861062E+02 -0.33582173895E+02  0.64821825321E+03  0.65406031361E+03  0.00000000000E+00 0. -1.
         22    1    3    3    0    0 -0.53430706047E+02 -0.85894319783E+02 -0.24777126541E+02  0.10414691795E+03  0.00000000000E+00 0. -1.
         22    1    3    3    0    0  0.88823953172E+01  0.38679367512E+02 -0.86478336840E+01  0.40617427850E+02  0.00000000000E+00 0. -1.
</event>
<event>
 7    1  0.6508013E-006  0.5013566E+02  0.7818608E-02  0.1495517E+00
          2   -1    0    0  502    0  0.00000000000E+00  0.00000000000E+00  0.31945599069E+03  0.31945599069E+03  0.00000000000E+00 0. -1.
          1   -1    0    0  501    0 -0.00000000000E+00 -0.00000000000E+00 -0.19329363731E+03  0.19329363731E+03  0.00000000000E+00 0. -1.
         25    2    1    2    0    0 -0.33458562731E+02 -0.72332453322E+02  0.10751264253E+03  0.18312401177E+03  0.12499590457E+03 0.  0.
          2    1    1    2  501    0  0.23507728313E+02  0.25679266181E+02 -0.15019221705E+03  0.15417438200E+03  0.00000000000E+00 0. -1.
          1    1    1    2  502    0  0.99508344184E+01  0.46653187141E+02  0.16884192790E+03  0.17545123423E+03  0.00000000000E+00 0. -1.
         22    1    3    3    0    0 -0.72850076377E+02 -0.28423094767E+02  0.94603459561E+02  0.12273883047E+03  0.00000000000E+00 0. -1.
         22    1    3    3    0    0  0.39391513646E+02 -0.43909358555E+02  0.12909182969E+02  0.60385181303E+02  0.00000000000E+00 0. -1.
</event>
<event>
 7    1  0.6508013E-006  0.3721701E+03  0.7818608E-02  0.1265271E+00
          2   -1    0    0  502    0  0.00000000000E+00  0.00000000000E+00  0.55168098689E+03  0.55168098689E+03  0.00000000000E+00 0. -1.
          1   -1    0    0  501    0 -0.00000000000E+00 -0.00000000000E+00 -0.33702169314E+04  0.33702169314E+04  0.00000000000E+00 0. -1.
         25    2    1    2    0    0 -0.19819871870E+03  0.31590026354E+03  0.14657716292E+03  0.41974455722E+03  0.12499968010E+03 0.  0.
          2    1    1    2  501    0  0.17087259908E+03 -0.33064614499E+03 -0.32219855275E+04  0.32434110220E+04  0.00000000000E+00 0. -1.
          1    1    1    2  502    0  0.27326119620E+02  0.14745881443E+02  0.25687242006E+03  0.25874233906E+03  0.00000000000E+00 0. -1.
         22    1    3    3    0    0 -0.18965472262E+03  0.19841850902E+03  0.88358266956E+02  0.28835048444E+03  0.00000000000E+00 0.  1.
         22    1    3    3    0    0 -0.85439960732E+01  0.11748175452E+03  0.58218895963E+02  0.13139407278E+03  0.00000000000E+00 0.  1.
</event>
<event>
 7    1  0.6508013E-006  0.4606914E+02  0.7818608E-02  0.1491252E+00
          2   -1    0    0  502    0  0.00000000000E+00  0.00000000000E+00  0.19630889265E+03  0.19630889265E+03  0.00000000000E+00 0. -1.
          1   -1    0    0  501    0 -0.00000000000E+00 -0.00000000000E+00 -0.17810469658E+03  0.17810469658E+03  0.00000000000E+00 0. -1.
         25    2    1    2    0    0  0.61799220685E+02 -0.31697887908E+01  0.23713960604E+01  0.13949707636E+03  0.12499847821E+03 0.  0.
          2    1    1    2  501    0 -0.37056614178E+02 -0.27008388544E+02 -0.10143919288E+03  0.11132185571E+03  0.00000000000E+00 0. -1.
          1    1    1    2  502    0 -0.24742606507E+02  0.30178177335E+02  0.11727199289E+03  0.12359465717E+03  0.00000000000E+00 0. -1.
         22    1    3    3    0    0  0.16329407816E+02 -0.29579670732E+02  0.55353451976E+02  0.64850683311E+02  0.00000000000E+00 0. -1.
         22    1    3    3    0    0  0.45469812868E+02  0.26409881941E+02 -0.52982055916E+02  0.74646393051E+02  0.00000000000E+00 0. -1.
</event>
<event>
 7    1  0.6508013E-006  0.7679324E+02  0.7818608E-02  0.1451990E+00
          2   -1    0    0  502    0  0.00000000000E+00  0.00000000000E+00  0.23009852801E+04  0.23009852801E+04  0.00000000000E+00 0. -1.
          1   -1    0    0  501    0 -0.00000000000E+00 -0.00000000000E+00 -0.39030709642E+03  0.39030709642E+03  0.00000000000E+00 0. -1.
         25    2    1    2    0    0 -0.68389741821E+02 -0.32927693662E+02  0.39034613136E+03  0.41684157222E+03  0.12500161705E+03 0.  0.
          2    1    1    2  501    0  0.50312876145E+02  0.58106559469E+02 -0.37301421345E+03  0.38085083851E+03  0.00000000000E+00 0. -1.
          1    1    1    2  502    0  0.18076865677E+02 -0.25178865807E+02  0.18933462657E+04  0.18935999658E+04  0.00000000000E+00 0. -1.
         22    1    3    3    0    0 -0.25953592809E+02 -0.73821406053E+02  0.14777789742E+03  0.16721691283E+03  0.00000000000E+00 0. -1.
         22    1    3    3    0    0 -0.42436149012E+02  0.40893712391E+02  0.24256823395E+03  0.24962465939E+03  0.00000000000E+00 0. -1.
</event>
<event>
 7    1  0.6508013E-006  0.1074771E+03  0.7818608E-02  0.1289968E+00
          2   -1    0    0  502    0  0.00000000000E+00  0.00000000000E+00  0.83098675491E+03  0.83098675491E+03  0.00000000000E+00 0. -1.
          1   -1    0    0  501    0 -0.00000000000E+00 -0.00000000000E+00 -0.58669688282E+02  0.58669688282E+02  0.00000000000E+00 0. -1.
         25    2    1    2    0    0 -0.40223725779E+02  0.51048395639E+02  0.29815518273E+03  0.32976542478E+03  0.12499934232E+03 0.  0.
          2    1    1    2  501    0 -0.84316616435E+02  0.10152500778E+02  0.23164410374E+02  0.88028148833E+02  0.00000000000E+00 0. -1.
          1    1    1    2  502    0  0.12454034221E+03 -0.61200896417E+02  0.45099747352E+03  0.47186286958E+03  0.00000000000E+00 0. -1.
         22    1    3    3    0    0  0.12390574910E+02  0.37089669607E+02  0.15742361715E+02  0.42154381629E+02  0.00000000000E+00 0. -1.
         22    1    3    3    0    0 -0.52614300689E+02  0.13958726032E+02  0.28241282102E+03  0.28761104315E+03  0.00000000000E+00 0. -1.
</event>
<event>
 7    1  0.6508013E-006  0.4489195E+02  0.7818608E-02  0.1530620E+00
          2   -1    0    0  502    0  0.00000000000E+00  0.00000000000E+00  0.13626365809E+04  0.13626365809E+04  0.00000000000E+00 0. -1.
          1   -1    0    0  501    0 -0.00000000000E+00 -0.00000000000E+00 -0.25330358295E+03  0.25330358295E+03  0.00000000000E+00 0. -1.
         25    2    1    2    0    0  0.23145886665E+02  0.26794259573E+02  0.63504989607E+03  0.64820254564E+03  0.12499802099E+03 0.  0.
          2    1    1    2  501    0  0.23280186647E+02 -0.19978852321E+02 -0.24500622185E+03  0.24691936006E+03  0.00000000000E+00 0. -1.
          1    1    1    2  502    0 -0.46426073312E+02 -0.68154072527E+01  0.71928932372E+03  0.72081825814E+03  0.00000000000E+00 0. -1.
         22    1    3    3    0    0 -0.27542492081E+02 -0.36892213944E+02  0.17210584004E+03  0.17815735880E+03  0.00000000000E+00 0. -1.
         22    1    3    3    0    0  0.50688378746E+02  0.63686473517E+02  0.46294405603E+03  0.47004518683E+03  0.00000000000E+00 0. -1.
</event>
<event>
 7    1  0.6508013E-006  0.1077298E+03  0.7818608E-02  0.1316145E+00
          2   -1    0    0  502    0  0.00000000000E+00  0.00000000000E+00  0.12484074237E+03  0.12484074237E+03  0.00000000000E+00 0. -1.
          1   -1    0    0  501    0 -0.00000000000E+00 -0.00000000000E+00 -0.12698779431E+04  0.12698779431E+04  0.00000000000E+00 0. -1.
         25    2    1    2    0    0  0.20086064149E+02  0.13243124858E+03 -0.50631263348E+03  0.53844158108E+03  0.12500147133E+03 0.  0.
          2    1    1    2  501    0  0.46127297430E+02 -0.48091857664E+02 -0.71915661280E+03  0.72223734885E+03  0.00000000000E+00 0. -1.
          1    1    1    2  502    0 -0.66213361579E+02 -0.84339390917E+02  0.80432045561E+02  0.13403975554E+03  0.00000000000E+00 0. -1.
         22    1    3    3    0    0  0.13840533159E+02 -0.18533570247E+02 -0.14462086267E+03  0.14645903012E+03  0.00000000000E+00 0. -1.
         22    1    3    3    0    0  0.62455309903E+01  0.15096481883E+03 -0.36169177082E+03  0.39198255096E+03  0.00000000000E+00 0. -1.
</event>
<event>
 7    1  0.6508013E-006  0.1322438E+03  0.7818608E-02  0.1224448E+00
          2   -1    0    0  502    0  0.00000000000E+00  0.00000000000E+00  0.12253789895E+04  0.12253789895E+04  0.00000000000E+00 0. -1.
          1   -1    0    0  501    0 -0.00000000000E+00 -0.00000000000E+00 -0.14191478164E+04  0.14191478164E+04  0.00000000000E+00 0. -1.
         25    2    1    2    0    0 -0.21666226574E+02  0.14403538712E+03 -0.37933516336E+01  0.19197593054E+03  0.12499900109E+03 0.  0.
          2    1    1    2  501    0  0.12098712895E+03 -0.56721056088E+02 -0.13139984791E+04  0.13207752142E+04  0.00000000000E+00 0. -1.
          1    1    1    2  502    0 -0.99320902377E+02 -0.87314331031E+02  0.11240230038E+04  0.11317756611E+04  0.00000000000E+00 0. -1.
         22    1    3    3    0    0 -0.32106156347E+02  0.11801825387E+03 -0.54605497326E+02  0.13394354729E+03  0.00000000000E+00 0. -1.
         22    1    3    3    0    0  0.10439929773E+02  0.26017133252E+02  0.50812145692E+02  0.58032383254E+02  0.00000000000E+00 0. -1.
</event>
<event>
 7    1  0.6508013E-006  0.5137036E+02  0.7818608E-02  0.1446153E+00
          2   -1    0    0  502    0  0.00000000000E+00  0.00000000000E+00  0.25410983472E+03  0.25410983472E+03  0.00000000000E+00 0. -1.
          1   -1    0    0  501    0 -0.00000000000E+00 -0.00000000000E+00 -0.18788756700E+03  0.18788756700E+03  0.00000000000E+00 0. -1.
         25    2    1    2    0    0  0.23399696483E+02 -0.47623698819E+02 -0.54104505483E+02  0.14618112071E+03  0.12500424014E+03 0.  0.
          2    1    1    2  501    0 -0.48335450393E+02  0.19366576442E+01 -0.77444223869E+02  0.91310865827E+02  0.00000000000E+00 0. -1.
          1    1    1    2  502    0  0.24935753910E+02  0.45687041174E+02  0.19777099707E+03  0.20450541518E+03  0.00000000000E+00 0. -1.
         22    1    3    3    0    0 -0.36581639764E+02 -0.61739488690E+02 -0.42726080627E+02  0.83519451610E+02  0.00000000000E+00 0.  1.
         22    1    3    3    0    0  0.59981336247E+02  0.14115789871E+02 -0.11378424857E+02  0.62661669096E+02  0.00000000000E+00 0.  1.
</event>
<event>
 7    1  0.6508013E-006  0.8551559E+02  0.7818608E-02  0.1343100E+00
          2   -1    0    0  502    0  0.00000000000E+00  0.00000000000E+00  0.46895835978E+03  0.46895835978E+03  0.00000000000E+00 0. -1.
          1   -1    0    0  501    0 -0.00000000000E+00 -0.00000000000E+00 -0.15364630879E+03  0.15364630879E+03  0.00000000000E+00 0. -1.
         25    2    1    2    0    0 -0.51160325083E+02  0.79120389634E+02  0.43567621256E+02  0.16246059637E+03  0.12497156809E+03 0.  0.
          2    1    1    2  501    0 -0.14614053449E+02 -0.86755629419E+02 -0.69760257464E+02  0.11227913126E+03  0.00000000000E+00 0. -1.
          1    1    1    2  502    0  0.65774378532E+02  0.76352397849E+01  0.34150468720E+03  0.34786494094E+03  0.00000000000E+00 0. -1.
         22    1    3    3    0    0 -0.84782639411E+02  0.36192151212E+02 -0.76076398690E+00  0.92187561616E+02  0.00000000000E+00 0. -1.
         22    1    3    3    0    0  0.33622314329E+02  0.42928238422E+02  0.44328385243E+02  0.70273034751E+02  0.00000000000E+00 0. -1.
</event>
<event>
 7    1  0.6508013E-006  0.6388208E+02  0.7818608E-02  0.1409118E+00
          2   -1    0    0  502    0  0.00000000000E+00  0.00000000000E+00  0.95066609585E+02  0.95066609585E+02  0.00000000000E+00 0. -1.
          1   -1    0    0  501    0 -0.00000000000E+00 -0.00000000000E+00 -0.13435099655E+04  0.13435099655E+04  0.00000000000E+00 0. -1.
         25    2    1    2    0    0 -0.65576631392E+02  0.93404195885E+02 -0.46335689621E+03  0.49330438489E+03  0.12499985796E+03 0.  0.
          2    1    1    2  501    0  0.28750606849E+02 -0.42799801999E+02 -0.85205359498E+03  0.85361217726E+03  0.00000000000E+00 0. -1.
          1    1    1    2  502    0  0.36826024543E+02 -0.50604393886E+02  0.66967135279E+02  0.91660012937E+02  0.00000000000E+00 0. -1.
         22    1    3    3    0    0  0.14356043241E+02  0.44134079221E+02 -0.45377377340E+02  0.64907775347E+02  0.00000000000E+00 0. -1.
         22    1    3    3    0    0 -0.79932674633E+02  0.49270116664E+02 -0.41797951887E+03  0.42839660954E+03  0.00000000000E+00 0. -1.
</event>
<event>
 7    1  0.6508013E-006  0.1115658E+03  0.7818608E-02  0.1452666E+00
          2   -1    0    0  502    0  0.00000000000E+00  0.00000000000E+00  0.80312557376E+03  0.80312557376E+03  0.00000000000E+00 0. -1.
          1   -1    0    0  501    0 -0.00000000000E+00 -0.00000000000E+00 -0.21262164087E+03  0.21262164087E+03  0.00000000000E+00 0. -1.
         25    2    1    2    0    0  0.81842536162E+02 -0.10064003239E+03  0.57027290866E+02  0.18895533695E+03  0.12500156244E+03 0.  0.
          2    1    1    2  501    0 -0.70040765892E+02  0.82993168365E+02 -0.12635954848E+03  0.16661425622E+03  0.00000000000E+00 0. -1.
          1    1    1    2  502    0 -0.11801770271E+02  0.17646864024E+02  0.65983619050E+03  0.66017762146E+03  0.00000000000E+00 0. -1.
         22    1    3    3    0    0  0.82232790507E+02 -0.10868675518E+02  0.54302236665E+02  0.99141781550E+02  0.00000000000E+00 0.  1.
         22    1    3    3    0    0 -0.39025434468E+00 -0.89771356870E+02  0.27250542012E+01  0.89813555398E+02  0.00000000000E+00 0.  1.
</event>
<event>
 7    1  0.6508013E-006  0.1636817E+03  0.7818608E-02  0.1224990E+00
          2   -1    0    0  502    0  0.00000000000E+00  0.00000000000E+00  0.89974162848E+03  0.89974162848E+03  0.00000000000E+00 0. -1.
          1   -1    0    0  501    0 -0.00000000000E+00 -0.00000000000E+00 -0.49925732916E+03  0.49925732916E+03  0.00000000000E+00 0. -1.
         25    2    1    2    0    0  0.15308536885E+03 -0.63785706955E+02 -0.24588534315E+03  0.32185208079E+03  0.12500165345E+03 0.  0.
          2    1    1    2  501    0 -0.17331512167E+03 -0.40193479595E+02 -0.17465610018E+03  0.24931586498E+03  0.00000000000E+00 0. -1.
          1    1    1    2  502    0  0.20229752821E+02  0.10397918655E+03  0.82102574265E+03  0.82783101188E+03  0.00000000000E+00 0. -1.
         22    1    3    3    0    0  0.12659858178E+03 -0.90476889753E+02 -0.13937422800E+03  0.20889816639E+03  0.00000000000E+00 0.  1.
         22    1    3    3    0    0  0.26486787064E+02  0.26691182798E+02 -0.10651111515E+03  0.11295391440E+03  0.00000000000E+00 0.  1.
</event>
<event>
 7    1  0.6508013E-006  0.2855785E+03  0.7818608E-02  0.1312518E+00
          2   -1    0    0  502    0  0.00000000000E+00  0.00000000000E+00  0.15819315450E+04  0.15819315450E+04  0.00000000000E+00 0. -1.
          1   -1    0    0  501    0 -0.00000000000E+00 -0.00000000000E+00 -0.51154057890E+03  0.51154057890E+03  0.00000000000E+00 0. -1.
         25    2    1    2    0    0 -0.18238277548E+03 -0.23011253221E+03  0.22310952408E+03  0.38938161781E+03  0.12499972113E+03 0.  0.
          2    1    1    2  501    0 -0.12180678484E+02  0.22940004262E+02 -0.41216087486E+03  0.41297844918E+03  0.00000000000E+00 0. -1.
          1    1    1    2  502    0  0.19456345396E+03  0.20717252795E+03  0.12594423169E+04  0.12911120569E+04  0.00000000000E+00 0. -1.
         22    1    3    3    0    0  0.16197528021E+02 -0.37125414069E+02  0.15835417704E+02  0.43490421218E+02  0.00000000000E+00 0.  1.
         22    1    3    3    0    0 -0.19858030350E+03 -0.19298711814E+03  0.20727410637E+03  0.34589119659E+03  0.00000000000E+00 0.  1.
</event>
<event>
 7    1  0.6508013E-006  0.2386542E+02  0.7818608E-02  0.1703511E+00
          2   -1    0    0  502    0  0.00000000000E+00  0.00000000000E+00  0.13254781268E+04  0.13254781268E+04  0.00000000000E+00 0. -1.
          1   -1    0    0  501    0 -0.00000000000E+00 -0.00000000000E+00 -0.19688681305E+03  0.19688681305E+03  0.00000000000E+00 0. -1.
         25    2    1    2    0    0 -0.23138987833E+01 -0.32210221256E+01  0.49140235737E+02  0.13437161684E+03  0.12500095813E+03 0.  0.
          2    1    1    2  501    0  0.22179039717E+02  0.93650873371E+01 -0.15324362666E+03  0.15512325350E+03  0.00000000000E+00 0. -1.
          1    1    1    2  502    0 -0.19865140933E+02 -0.61440652115E+01  0.12326947046E+04  0.12328700695E+04  0.00000000000E+00 0. -1.
         22    1    3    3    0    0 -0.50065584661E+02  0.37883980866E+01 -0.16542313285E+02  0.52863625078E+02  0.00000000000E+00 0. -1.
         22    1    3    3    0    0  0.47751685878E+02 -0.70094202122E+01  0.65682549022E+02  0.81507991767E+02  0.00000000000E+00 0. -1.
</event>
<event>
 7    1  0.6508013E-006  0.5214351E+02  0.7818608E-02  0.1440876E+00
          2   -1    0    0  502    0  0.00000000000E+00  0.00000000000E+00  0.45950820071E+03  0.45950820071E+03  0.00000000000E+00 0. -1.
          1   -1    0    0  501    0 -0.00000000000E+00 -0.00000000000E+00 -0.35561420127E+02  0.35561420127E+02  0.00000000000E+00 0. -1.
         25    2    1    2    0    0 -0.85771614717E+01 -0.32703259231E+02  0.23417536441E+03  0.26759394804E+03  0.12500139547E+03 0.  0.
          2    1    1    2  501    0 -0.39431498103E+02  0.45022342033E+02  0.46249283290E+02  0.75636304310E+02  0.00000000000E+00 0. -1.
          1    1    1    2  502    0  0.48008659575E+02 -0.12319082802E+02  0.14352213288E+03  0.15183936849E+03  0.00000000000E+00 0. -1.
         22    1    3    3    0    0  0.43274501263E+01  0.34158270928E+01 -0.14741856506E+02  0.15739028959E+02  0.00000000000E+00 0. -1.
         22    1    3    3    0    0 -0.12904611598E+02 -0.36119086324E+02  0.24891722092E+03  0.25185491909E+03  0.00000000000E+00 0. -1.
</event>
<event>
 7    1  0.6508013E-006  0.3271347E+03  0.7818608E-02  0.1236524E+00
          2   -1    0    0  502    0  0.00000000000E+00  0.00000000000E+00  0.85796461976E+03  0.85796461976E+03  0.00000000000E+00 0. -1.
          1   -1    0    0  501    0 -0.00000000000E+00 -0.00000000000E+00 -0.79721185106E+03  0.79721185106E+03  0.00000000000E+00 0. -1.
         25    2    1    2    0    0 -0.66386837754E+02  0.36105523743E+03  0.22915154998E+03  0.45044808168E+03  0.12499977889E+03 0.  0.
          2    1    1    2  501    0  0.72659398440E+02 -0.31441735227E+03 -0.64742699415E+03  0.72339434083E+03  0.00000000000E+00 0. -1.
          1    1    1    2  502    0 -0.62725606860E+01 -0.46637885158E+02  0.47902821286E+03  0.48133404832E+03  0.00000000000E+00 0. -1.
         22    1    3    3    0    0 -0.96062208216E+01 -0.38569778506E+01  0.28139448857E+02  0.29983067532E+02  0.00000000000E+00 0. -1.
         22    1    3    3    0    0 -0.56780616932E+02  0.36491221528E+03  0.20101210112E+03  0.42046501414E+03  0.00000000000E+00 0. -1.
</event>
<event>
 7    1  0.6508013E-006  0.3931500E+02  0.7818608E-02  0.1548367E+00
          2   -1    0    0  502    0  0.00000000000E+00  0.00000000000E+00  0.48350870406E+03  0.48350870406E+03  0.00000000000E+00 0. -1.
          1   -1    0    0  501    0 -0.00000000000E+00 -0.00000000000E+00 -0.21839171187E+03  0.21839171187E+03  0.00000000000E+00 0. -1.
         25    2    1    2    0    0 -0.47095010831E+02  0.16717635793E+02 -0.45950547661E+02  0.14224985583E+03  0.12500459696E+03 0.  0.
          2    1    1    2  501    0  0.20711178868E+02 -0.33381240343E+02 -0.12061004842E+03  0.12684653687E+03  0.00000000000E+00 0. -1.
          1    1    1    2  502    0  0.26383831963E+02  0.16663604550E+02  0.43167758827E+03  0.43280402323E+03  0.00000000000E+00 0. -1.
         22    1    3    3    0    0 -0.31490594007E+02  0.71252044066E+02 -0.26693355156E+02  0.82347109871E+02  0.00000000000E+00 0.  1.
         22    1    3    3    0    0 -0.15604416823E+02 -0.54534408273E+02 -0.19257192505E+02  0.59902745958E+02  0.00000000000E+00 0.  1.
</event>
<event>
 7    1  0.6508013E-006  0.6608958E+02  0.7818608E-02  0.1479055E+00
          2   -1    0    0  502    0  0.00000000000E+00  0.00000000000E+00  0.64442947950E+03  0.64442947950E+03  0.00000000000E+00 0. -1.
          1   -1    0    0  501    0 -0.00000000000E+00 -0.00000000000E+00 -0.18880644024E+03  0.18880644024E+03  0.00000000000E+00 0. -1.
         25    2    1    2    0    0 -0.17946429111E+02 -0.65408200809E+02  0.11601326400E+03  0.18353342337E+03  0.12500053208E+03 0.  0.
          2    1    1    2  501    0 -0.25452437250E+02  0.15173932009E+02 -0.15137607509E+03  0.15424911955E+03  0.00000000000E+00 0. -1.
          1    1    1    2  502    0  0.43398866360E+02  0.50234268800E+02  0.49098585035E+03  0.49545337682E+03  0.00000000000E+00 0. -1.
         22    1    3    3    0    0  0.31442164476E+02  0.19748105050E+02  0.59180826571E+02  0.69863921974E+02  0.00000000000E+00 0. -1.
         22    1    3    3    0    0 -0.49388593586E+02 -0.85156305859E+02  0.56832437426E+02  0.11366950140E+03  0.00000000000E+00 0. -1.
</event>
<event>
 7    1  0.6508013E-006  0.4288643E+02  0.7818608E-02  0.1555543E+00
          2   -1    0    0  502    0  0.00000000000E+00  0.00000000000E+00  0.10759424258E+04  0.10759424258E+04  0.00000000000E+00 0. -1.
          1   -1    0    0  501    0 -0.00000000000E+00 -0.00000000000E+00 -0.33807300565E+03  0.33807300565E+03  0.00000000000E+00 0. -1.
         25    2    1    2    0    0  0.35577161984E+02  0.42694936920E+01  0.27045035162E+03  0.30008706102E+03  0.12499955386E+03 0.  0.
          2    1    1    2  501    0 -0.51838762454E+01  0.26825150825E+02 -0.32207805129E+03  0.32323479455E+03  0.00000000000E+00 0. -1.
          1    1    1    2  502    0 -0.30393285738E+02 -0.31094644517E+02  0.78949711984E+03  0.79069357591E+03  0.00000000000E+00 0. -1.
         22    1    3    3    0    0  0.55441388827E+02  0.53378829408E+02  0.16587624339E+03  0.18286053469E+03  0.00000000000E+00 0.  1.
         22    1    3    3    0    0 -0.19864226844E+02 -0.49109335716E+02  0.10457410823E+03  0.11722652633E+03  0.00000000000E+00 0.  1.
</event>
<event>
 7    1  0.6508013E-006  0.1253531E+03  0.7818608E-02  0.1286021E+00
          2   -1    0    0  502    0  0.00000000000E+00  0.00000000000E+00  0.74078491349E+03  0.74078491349E+03  0.00000000000E+00 0. -1.
          1   -1    0    0  501    0 -0.00000000000E+00 -0.00000000000E+00 -0.25631456787E+04  0.25631456787E+04  0.00000000000E+00 0. -1.
         25    2    1    2    0    0 -0.86776419972E+02 -0.12203686259E+03 -0.60742253102E+03  0.63797418415E+03  0.12500314217E+03 0.  0.
          2    1    1    2  501    0  0.11341218197E+03  0.51321385455E+02 -0.19364757473E+04  0.19404727588E+04  0.00000000000E+00 0. -1.
          1    1    1    2  502    0 -0.26635761999E+02  0.70715477140E+02  0.72153751312E+03  0.72548364927E+03  0.00000000000E+00 0. -1.
         22    1    3    3    0    0  0.27918845410E+02 -0.15567011289E+02 -0.53050071497E+02  0.61936288679E+02  0.00000000000E+00 0.  1.
         22    1    3    3    0    0 -0.11469526538E+03 -0.10646985131E+03 -0.55437245953E+03  0.57603789547E+03  0.00000000000E+00 0.  1.
</event>
<event>
 7    1  0.6508013E-006  0.9307524E+02  0.7818608E-02  0.1383819E+00
          2   -1    0    0  502    0  0.00000000000E+00  0.00000000000E+00  0.88773476453E+03  0.88773476453E+03  0.00000000000E+00 0. -1.
          1   -1    0    0  501    0 -0.00000000000E+00 -0.00000000000E+00 -0.13032672005E+03  0.13032672005E+03  0.00000000000E+00 0. -1.
         25    2    1    2    0    0  0.74595306933E+02 -0.50397196515E+02  0.10909169929E+03  0.18875568341E+03  0.12499348756E+03 0.  0.
          2    1    1    2  501    0  0.18719308152E+02  0.39024774404E+02 -0.82129164246E+02  0.92836119774E+02  0.00000000000E+00 0. -1.
          1    1    1    2  502    0 -0.93314615085E+02  0.11372422111E+02  0.73044550943E+03  0.73646968140E+03  0.00000000000E+00 0. -1.
         22    1    3    3    0    0  0.34094418760E+02  0.41410326207E+02  0.40393143602E+02  0.67147975079E+02  0.00000000000E+00 0.  1.
         22    1    3    3    0    0  0.40500888173E+02 -0.91807522722E+02  0.68698555690E+02  0.12160770833E+03  0.00000000000E+00 0.  1.
</event>
<event>
 7    1  0.6508013E-006  0.5127125E+02  0.7818608E-02  0.1472141E+00
          2   -1    0    0  502    0  0.00000000000E+00  0.00000000000E+00  0.65698686250E+03  0.65698686250E+03  0.00000000000E+00 0. -1.
          1   -1    0    0  501    0 -0.00000000000E+00 -0.00000000000E+00 -0.52903757444E+03  0.52903757444E+03  0.00000000000E+00 0. -1.
         25    2    1    2    0    0 -0.81308859262E+02  0.21512095534E+02  0.51864051887E+02  0.15934033313E+03  0.12500224411E+03 0.  0.
          2    1    1    2  501    0  0.50715552188E+02  0.44438243851E+01 -0.47320244038E+03  0.47593315118E+03  0.00000000000E+00 0. -1.
          1    1    1    2  502    0  0.30593307074E+02 -0.25955919919E+02  0.54928767655E+03  0.55075095263E+03  0.00000000000E+00 0. -1.
         22    1    3    3    0    0 -0.83117891970E+02 -0.24868268374E+02  0.67966433842E+02  0.11021093805E+03  0.00000000000E+00 0.  1.
         22    1    3    3    0    0  0.18090327075E+01  0.46380363907E+02 -0.16102381955E+02  0.49129395072E+02  0.00000000000E+00 0.  1.
</event>
<event>
 7    1  0.6508013E-006  0.2722902E+02  0.7818608E-02  0.1643930E+00
          2   -1    0    0  502    0  0.00000000000E+00  0.00000000000E+00  0.59857048083E+03  0.59857048083E+03  0.00000000000E+00 0. -1.
          1   -1    0    0  501    0 -0.00000000000E+00 -0.00000000000E+00 -0.11145986870E+03  0.11145986870E+03  0.00000000000E+00 0. -1.
         25    2    1    2    0    0  0.14145801955E+02 -0.25815467477E+02  0.21880134797E+03  0.25370583538E+03  0.12500431575E+03 0.  0.
          2    1    1    2  501    0 -0.27003710573E+02  0.40625125022E+01 -0.91572124543E+02  0.95557094900E+02  0.00000000000E+00 0. -1.
          1    1    1    2  502    0  0.12857908618E+02  0.21752954974E+02  0.35988138870E+03  0.36076741925E+03  0.00000000000E+00 0. -1.
         22    1    3    3    0    0  0.11592396045E+01  0.15055292519E+02 -0.11791976945E+02  0.19158715760E+02  0.00000000000E+00 0. -1.
         22    1    3    3    0    0  0.12986562351E+02 -0.40870759996E+02  0.23059332492E+03  0.23454711962E+03  0.00000000000E+00 0. -1.
</event>
<event>
 7    1  0.6508013E-006  0.5802531E+02  0.7818608E-02  0.1416870E+00
          2   -1    0    0  502    0  0.00000000000E+00  0.00000000000E+00  0.89064262375E+02  0.89064262375E+02  0.00000000000E+00 0. -1.
          1   -1    0    0  501    0 -0.00000000000E+00 -0.00000000000E+00 -0.99499975609E+03  0.99499975609E+03  0.00000000000E+00 0. -1.
         25    2    1    2    0    0  0.19500478374E+02  0.16557076045E+02 -0.49403858982E+02  0.13682197500E+03  0.12500042455E+03 0.  0.
          2    1    1    2  501    0 -0.53796175160E+02  0.24434090664E+02 -0.88480691092E+03  0.88677749344E+03  0.00000000000E+00 0. -1.
          1    1    1    2  502    0  0.34295696786E+02 -0.40991166709E+02  0.28275276191E+02  0.60464550026E+02  0.00000000000E+00 0. -1.
         22    1    3    3    0    0 -0.99982715962E+01 -0.43369672723E+02 -0.53871954983E+02  0.69879048940E+02  0.00000000000E+00 0.  1.
         22    1    3    3    0    0  0.29498749970E+02  0.59926748768E+02  0.44680960009E+01  0.66942926061E+02  0.00000000000E+00 0.  1.
</event>
<event>
 7    1  0.6508013E-006  0.7766172E+02  0.7818608E-02  0.1420841E+00
          2   -1    0    0  502    0  0.00000000000E+00  0.00000000000E+00  0.15627230837E+03  0.15627230837E+03  0.00000000000E+00 0. -1.
          1   -1    0    0  501    0 -0.00000000000E+00 -0.00000000000E+00 -0.26701386907E+03  0.26701386907E+03  0.00000000000E+00 0. -1.
         25    2    1    2    0    0  0.41879291017E+02 -0.44939515740E+02 -0.72795377097E+02  0.15715109356E+03  0.12499545668E+03 0.  0.
          2    1    1    2  501    0  0.34126485087E+02  0.18312561190E+02 -0.13475334196E+03  0.14020852346E+03  0.00000000000E+00 0. -1.
          1    1    1    2  502    0 -0.76005776104E+02  0.26626954549E+02  0.96807158358E+02  0.12592656042E+03  0.00000000000E+00 0. -1.
         22    1    3    3    0    0 -0.26322469092E+01  0.25609090198E+02  0.19833187626E+02  0.32497839251E+02  0.00000000000E+00 0.  1.
         22    1    3    3    0    0  0.44511537926E+02 -0.70548605938E+02 -0.92628564724E+02  0.12465325431E+03  0.00000000000E+00 0.  1.
</event>
<event>
 7    1  0.6508013E-006  0.1698018E+03  0.7818608E-02  0.1210682E+00
          2   -1    0    0  502    0  0.00000000000E+00  0.00000000000E+00  0.48943071737E+03  0.48943071737E+03  0.00000000000E+00 0. -1.
          1   -1    0    0  501    0 -0.00000000000E+00 -0.00000000000E+00 -0.34675684409E+03  0.34675684409E+03  0.00000000000E+00 0. -1.
         25    2    1    2    0    0 -0.71878141400E+02  0.67023172155E+02  0.20915162037E+02  0.16037735414E+03  0.12499951560E+03 0.  0.
          2    1    1    2  501    0  0.82914913691E+02 -0.18523565419E+03 -0.22871423525E+03  0.30577333419E+03  0.00000000000E+00 0. -1.
          1    1    1    2  502    0 -0.11036772291E+02  0.11821248204E+03  0.35047294649E+03  0.37003687312E+03  0.00000000000E+00 0. -1.
         22    1    3    3    0    0 -0.44282996360E+02 -0.32037724245E+02  0.17853625949E+02  0.57499143480E+02  0.00000000000E+00 0. -1.
         22    1    3    3    0    0 -0.27595145040E+02  0.99060896399E+02  0.30615360876E+01  0.10287821066E+03  0.00000000000E+00 0. -1.
</event>
<event>
 7    1  0.6508013E-006  0.6843667E+02  0.7818608E-02  0.1439902E+00
          2   -1    0    0  502    0  0.00000000000E+00  0.00000000000E+00  0.22149006362E+03  0.22149006362E+03  0.00000000000E+00 0. -1.
          1   -1    0    0  501    0 -0.00000000000E+00 -0.00000000000E+00 -0.14190701863E+04  0.14190701863E+04  0.00000000000E+00 0. -1.
         25    2    1    2    0    0 -0.26997330495E+02  0.99170307990E+02 -0.17809101864E+03  0.24063409296E+03  0.12499899975E+03 0.  0.
          2    1    1    2  501    0  0.20598133776E+02 -0.31980255148E+02 -0.12034104922E+04  0.12040115583E+04  0.00000000000E+00 0. -1.
          1    1    1    2  502    0  0.63991967193E+01 -0.67190052842E+02  0.18392138818E+03  0.19591459861E+03  0.00000000000E+00 0. -1.
         22    1    3    3    0    0 -0.57042204905E+01  0.75694504555E+02 -0.19166955342E+03  0.20615385968E+03  0.00000000000E+00 0. -1.
         22    1    3    3    0    0 -0.21293110005E+02  0.23475803435E+02  0.13578534786E+02  0.34480233287E+02  0.00000000000E+00 0. -1.
</event>
<event>
 7    1  0.6508013E-006  0.1765834E+03  0.7818608E-02  0.1271830E+00
          2   -1    0    0  502    0  0.00000000000E+00  0.00000000000E+00  0.11314732563E+04  0.11314732563E+04  0.00000000000E+00 0. -1.
          1   -1    0    0  501    0 -0.00000000000E+00 -0.00000000000E+00 -0.73701753034E+03  0.73701753034E+03  0.00000000000E+00 0. -1.
         25    2    1    2    0    0  0.12190271582E+03  0.10648004673E+03  0.63912138589E+02  0.21427228179E+03  0.12501830590E+03 0.  0.
          2    1    1    2  501    0  0.45092306293E+02 -0.41691741697E+02 -0.65230061801E+03  0.65518517510E+03  0.00000000000E+00 0. -1.
          1    1    1    2  502    0 -0.16699502211E+03 -0.64788305034E+02  0.98284420535E+03  0.99903332971E+03  0.00000000000E+00 0. -1.
         22    1    3    3    0    0  0.84325174890E+02  0.62693287636E+01  0.65938730534E+02  0.10722852134E+03  0.00000000000E+00 0.  1.
         22    1    3    3    0    0  0.37577540926E+02  0.10021071797E+03 -0.20265919447E+01  0.10704376046E+03  0.00000000000E+00 0.  1.
</event>
<event>
 7    1  0.6508013E-006  0.6384956E+02  0.7818608E-02  0.1396214E+00
          2   -1    0    0  502    0  0.00000000000E+00  0.00000000000E+00  0.11723881286E+04  0.11723881286E+04  0.00000000000E+00 0. -1.
          1   -1    0    0  501    0 -0.00000000000E+00 -0.00000000000E+00 -0.61090850959E+03  0.61090850959E+03  0.00000000000E+00 0. -1.
         25    2    1    2    0    0  0.11316471157E+03 -0.17985113821E+02  0.18725602471E+03  0.25262492971E+03  0.12499928021E+03 0.  0.
          2    1    1    2  501    0 -0.56524641746E+02 -0.81735671420E+01 -0.57578807796E+03  0.57861364748E+03  0.00000000000E+00 0. -1.
          1    1    1    2  502    0 -0.56640069824E+02  0.26158680963E+02  0.95001167222E+03  0.95205806097E+03  0.00000000000E+00 0. -1.
         22    1    3    3    0    0  0.10384089583E+02  0.42244527575E+02  0.85597020414E+02  0.96017078326E+02  0.00000000000E+00 0. -1.
         22    1    3    3    0    0  0.10278062199E+03 -0.60229641396E+02  0.10165900430E+03  0.15660785138E+03  0.00000000000E+00 0. -1.
</event>
<event>
 7    1  0.6508013E-006  0.4781492E+02  0.7818608E-02  0.1519039E+00
          2   -1    0    0  502    0  0.00000000000E+00  0.00000000000E+00  0.16362218295E+03  0.16362218295E+03  0.00000000000E+00 0. -1.
          1   -1    0    0  501    0 -0.00000000000E+00 -0.00000000000E+00 -0.26474644884E+03  0.26474644884E+03  0.00000000000E+00 0. -1.
         25    2    1    2    0    0  0.14047819287E+02 -0.21827155945E+02 -0.37086790083E+02  0.13294751518E+03  0.12500338327E+03 0.  0.
          2    1    1    2  501    0 -0.45135589111E+02  0.20769784897E+02 -0.17409824573E+03  0.18104917712E+03  0.00000000000E+00 0. -1.
          1    1    1    2  502    0  0.31087769824E+02  0.10573710473E+01  0.11006076993E+03  0.11437193949E+03  0.00000000000E+00 0. -1.
         22    1    3    3    0    0  0.16153346509E+02 -0.46161376583E+02 -0.73990609384E+02  0.88692804491E+02  0.00000000000E+00 0. -1.
         22    1    3    3    0    0 -0.21055272218E+01  0.24334220638E+02  0.36903819302E+02  0.44254710687E+02  0.00000000000E+00 0. -1.
</event>
<event>
 7    1  0.6508013E-006  0.2838634E+03  0.7818608E-02  0.1296733E+00
          2   -1    0    0  502    0  0.00000000000E+00  0.00000000000E+00  0.16940631639E+04  0.16940631639E+04  0.00000000000E+00 0. -1.
          1   -1    0    0  501    0 -0.00000000000E+00 -0.00000000000E+00 -0.70744227491E+03  0.70744227491E+03  0.00000000000E+00 0. -1.
         25    2    1    2    0    0  0.19428908035E+03  0.23220175574E+03  0.52991980413E+03  0.62298200313E+03  0.12500270118E+03 0.  0.
          2    1    1    2  501    0 -0.52410706705E+01 -0.29732793661E+02 -0.64338729161E+03  0.64409526845E+03  0.00000000000E+00 0. -1.
          1    1    1    2  502    0 -0.18904800968E+03 -0.20246896208E+03  0.11000883764E+04  0.11344281672E+04  0.00000000000E+00 0. -1.
         22    1    3    3    0    0  0.15874963585E+03  0.10934676302E+03  0.37865661664E+03  0.42489880535E+03  0.00000000000E+00 0. -1.
         22    1    3    3    0    0  0.35539444499E+02  0.12285499272E+03  0.15126318749E+03  0.19808319778E+03  0.00000000000E+00 0. -1.
</event>
<event>
 7    1  0.6508013E-006  0.3422474E+02  0.7818608E-02  0.1585935E+00
          2   -1    0    0  502    0  0.00000000000E+00  0.00000000000E+00  0.81024887440E+02  0.81024887440E+02  0.00000000000E+00 0. -1.
          1   -1    0    0  501    0 -0.00000000000E+00 -0.00000000000E+00 -0.15830775431E+04  0.15830775431E+04  0.00000000000E+00 0. -1.
         25    2    1    2    0    0  0.12612341765E+02 -0.22044731761E+02 -0.92952380451E+02  0.15782960459E+03  0.12499999076E+03 0.  0.
          2    1    1    2  501    0 -0.34149257484E+02  0.36654314619E+01 -0.14533415554E+04  0.14537473246E+04  0.00000000000E+00 0. -1.
          1    1    1    2  502    0  0.21536915719E+02  0.18379300299E+02  0.44241280187E+02  0.52525501338E+02  0.00000000000E+00 0. -1.
         22    1    3    3    0    0  0.30538430778E+02  0.39730894417E+02 -0.71886905503E+01  0.50624272809E+02  0.00000000000E+00 0.  1.
         22    1    3    3    0    0 -0.17926089013E+02 -0.61775626178E+02 -0.85763689901E+02  0.10720533178E+03  0.00000000000E+00 0.  1.
</event>
<event>
 7    1  0.6508013E-006  0.5928594E+02  0.7818608E-02  0.1463232E+00
          2   -1    0    0  502    0  0.00000000000E+00  0.00000000000E+00  0.19087934427E+04  0.19087934427E+04  0.00000000000E+00 0. -1.
          1   -1    0    0  501    0 -0.00000000000E+00 -0.00000000000E+00 -0.25181775591E+03  0.25181775591E+03  0.00000000000E+00 0. -1.
         25    2    1    2    0    0  0.34317902137E+02  0.55402901475E+02  0.57055486820E+02  0.15208068567E+03  0.12500402585E+03 0.  0.
          2    1    1    2  501    0  0.24518307795E+01 -0.59438320526E+02 -0.19978063084E+03  0.20844957635E+03  0.00000000000E+00 0. -1.
          1    1    1    2  502    0 -0.36769732916E+02  0.40354190505E+01  0.17997008308E+04  0.18000809366E+04  0.00000000000E+00 0. -1.
         22    1    3    3    0    0  0.21602386982E+02  0.95554527275E+02  0.47588812558E+02  0.10891292801E+03  0.00000000000E+00 0. -1.
         22    1    3    3    0    0  0.12715515155E+02 -0.40151625800E+02  0.94666742627E+01  0.43167757662E+02  0.00000000000E+00 0. -1.
</event>
<event>
 7    1  0.6508013E-006  0.5744899E+02  0.7818608E-02  0.1488063E+00
          2   -1    0    0  502    0  0.00000000000E+00  0.00000000000E+00  0.96756329554E+02  0.96756329554E+02  0.00000000000E+00 0. -1.
          1   -1    0    0  501    0 -0.00000000000E+00 -0.00000000000E+00 -0.12488945681E+04  0.12488945681E+04  0.00000000000E+00 0. -1.
         25    2    1    2    0    0  0.55829742802E+02 -0.20378360790E+02 -0.69271014023E+03  0.70640266345E+03  0.12500058714E+03 0.  0.
          2    1    1    2  501    0  0.52427979583E+00  0.31993462269E+02 -0.53960990088E+03  0.54055776900E+03  0.00000000000E+00 0. -1.
          1    1    1    2  502    0 -0.56354022598E+02 -0.11615101479E+02  0.80181802604E+02  0.98690465163E+02  0.00000000000E+00 0. -1.
         22    1    3    3    0    0  0.23443534653E+01 -0.48858755167E+02 -0.53846001772E+03  0.54067722777E+03  0.00000000000E+00 0. -1.
         22    1    3    3    0    0  0.53485389337E+02  0.28480394377E+02 -0.15425012251E+03  0.16572543568E+03  0.00000000000E+00 0. -1.
</event>
<event>
 7    1  0.6508013E-006  0.1338791E+03  0.7818608E-02  0.1263880E+00
          2   -1    0    0  502    0  0.00000000000E+00  0.00000000000E+00  0.73960314337E+03  0.73960314337E+03  0.00000000000E+00 0. -1.
          1   -1    0    0  501    0 -0.00000000000E+00 -0.00000000000E+00 -0.19753879102E+04  0.19753879102E+04  0.00000000000E+00 0. -1.
         25    2    1    2    0    0 -0.34389471293E+01  0.10758497416E+03 -0.80883654793E+03  0.82548608904E+03  0.12499747559E+03 0.  0.
          2    1    1    2  501    0 -0.87091350785E+02 -0.84223305263E+01 -0.11503876951E+04  0.11537104004E+04  0.00000000000E+00 0. -1.
          1    1    1    2  502    0  0.90530297914E+02 -0.99162643638E+02  0.72343947623E+03  0.73579456406E+03  0.00000000000E+00 0. -1.
         22    1    3    3    0    0  0.37489412780E+02 -0.93969682104E+01 -0.13862935581E+03  0.14391614703E+03  0.00000000000E+00 0.  1.
         22    1    3    3    0    0 -0.40928359909E+02  0.11698194237E+03 -0.67020719212E+03  0.68156994201E+03  0.00000000000E+00 0.  1.
</event>
<event>
 7    1  0.6508013E-006  0.4211440E+02  0.7818608E-02  0.1557758E+00
          2   -1    0    0  502    0  0.00000000000E+00  0.00000000000E+00  0.40162791333E+03  0.40162791333E+03  0.00000000000E+00 0. -1.
          1   -1    0    0  501    0 -0.00000000000E+00 -0.00000000000E+00 -0.49107701615E+02  0.49107701615E+02  0.00000000000E+00 0. -1.
         25    2    1    2    0    0  0.39069036775E+01  0.10072474603E+02  0.53581923074E+02  0.13643553086E+03  0.12500765161E+03 0.  0.
          2    1    1    2  501    0  0.12486441294E+02 -0.48865264172E+02  0.11451898632E+03  0.12513322295E+03  0.00000000000E+00 0. -1.
          1    1    1    2  502    0 -0.16393344971E+02  0.38792789569E+02  0.18441930232E+03  0.18916686113E+03  0.00000000000E+00 0. -1.
         22    1    3    3    0    0  0.47863375741E+02  0.20885945457E+02 -0.14935103462E+02  0.54315584968E+02  0.00000000000E+00 0. -1.
         22    1    3    3    0    0 -0.43956472064E+02 -0.10813470854E+02  0.68517026536E+02  0.82119945894E+02  0.00000000000E+00 0. -1.
</event>
<event>
 7    1  0.6508013E-006  0.5642494E+02  0.7818608E-02  0.1435224E+00
          2   -1    0    0  502    0  0.00000000000E+00  0.00000000000E+00  0.34533874225E+03  0.34533874225E+03  0.00000000000E+00 0. -1.
          1   -1    0    0  501    0 -0.00000000000E+00 -0.00000000000E+00 -0.80513618894E+03  0.80513618894E+03  0.00000000000E+00 0. -1.
         25    2    1    2    0    0  0.57818033377E+02  0.47260105194E+02 -0.20975889297E+02  0.14711243586E+03  0.12500255328E+03 0.  0.
          2    1    1    2  501    0 -0.10726681648E+02 -0.55372425726E+02 -0.71795570208E+03  0.72016772864E+03  0.00000000000E+00 0. -1.
          1    1    1    2  502    0 -0.47091351729E+02  0.81123205321E+01  0.27913414468E+03  0.28319476669E+03  0.00000000000E+00 0. -1.
         22    1    3    3    0    0  0.17978401928E+02  0.15424198046E+02  0.52543980675E+02  0.57636782756E+02  0.00000000000E+00 0. -1.
         22    1    3    3    0    0  0.39839631449E+02  0.31835907148E+02 -0.73519869972E+02  0.89475653105E+02  0.00000000000E+00 0. -1.
</event>
<event>
 7    1  0.6508013E-006  0.8056312E+02  0.7818608E-02  0.1379698E+00
          2   -1    0    0  502    0  0.00000000000E+00  0.00000000000E+00  0.17610942881E+04  0.17610942881E+04  0.00000000000E+00 0. -1.
          1   -1    0    0  501    0 -0.00000000000E+00 -0.00000000000E+00 -0.35213428031E+02  0.35213428031E+02  0.00000000000E+00 0. -1.
         25    2    1    2    0    0  0.48388464226E+01  0.78047070941E+02  0.49411162679E+03  0.51564144907E+03  0.12500017819E+03 0.  0.
          2    1    1    2  501    0 -0.50866957744E+02 -0.92927927941E+01  0.59411001345E+01  0.52049015926E+02  0.00000000000E+00 0. -1.
          1    1    1    2  502    0  0.46028111322E+02 -0.68754278147E+02  0.12258281332E+04  0.12286172512E+04  0.00000000000E+00 0. -1.
         22    1    3    3    0    0 -0.55868849166E+01 -0.29688022901E+02  0.19953406679E+03  0.20180791807E+03  0.00000000000E+00 0.  1.
         22    1    3    3    0    0  0.10425731339E+02  0.10773509384E+03  0.29457756001E+03  0.31383353100E+03  0.00000000000E+00 0.  1.
</event>
<event>
 7    1  0.6508013E-006  0.1164374E+03  0.7818608E-02  0.1319416E+00
          2   -1    0    0  502    0  0.00000000000E+00  0.00000000000E+00  0.60155041575E+03  0.60155041575E+03  0.00000000000E+00 0. -1.
          1   -1    0    0  501    0 -0.00000000000E+00 -0.00000000000E+00 -0.85143554826E+03  0.85143554826E+03  0.00000000000E+00 0. -1.
         25    2    1    2    0    0 -0.35817106024E+01 -0.15493159747E+03  0.16059331898E+03  0.25579753044E+03  0.12500213572E+03 0.  0.
          2    1    1    2  501    0 -0.32906250732E+02  0.50018920663E+02 -0.79484349424E+03  0.79709528546E+03  0.00000000000E+00 0. -1.
          1    1    1    2  502    0  0.36487961334E+02  0.10491267680E+03  0.38436504275E+03  0.40009314811E+03  0.00000000000E+00 0. -1.
         22    1    3    3    0    0 -0.27597318116E+02 -0.14500211139E+03  0.73465997812E+02  0.16487715763E+03  0.00000000000E+00 0. -1.
         22    1    3    3    0    0  0.24015607514E+02 -0.99294860780E+01  0.87127321166E+02  0.90920372808E+02  0.00000000000E+00 0. -1.
</event>
<event>
 7    1  0.6508013E-006  0.9946055E+02  0.7818608E-02  0.1298932E+00
          2   -1    0    0  502    0  0.00000000000E+00  0.00000000000E+00  0.18373436643E+04  0.18373436643E+04  0.00000000000E+00 0. -1.
          1   -1    0    0  501    0 -0.00000000000E+00 -0.00000000000E+00 -0.27883556191E+03  0.27883556191E+03  0.00000000000E+00 0. -1.
         25    2    1    2    0    0  0.79245392264E+02 -0.70266643219E+02  0.76378017993E+03  0.78115485624E+03  0.12500205132E+03 0.  0.
          2    1    1    2  501    0 -0.14940833281E+00  0.99805100886E+02 -0.25918378595E+03  0.27773605344E+03  0.00000000000E+00 0. -1.
          1    1    1    2  502    0 -0.79095983932E+02 -0.29538457667E+02  0.10539117084E+04  0.10572883165E+04  0.00000000000E+00 0. -1.
         22    1    3    3    0    0 -0.26587205556E+02  0.52750561362E+01  0.23785283906E+03  0.23939231142E+03  0.00000000000E+00 0.  1.
         22    1    3    3    0    0  0.10583259782E+03 -0.75541699355E+02  0.52592734087E+03  0.54176254483E+03  0.00000000000E+00 0.  1.
</event>
<event>
 7    1  0.6508013E-006  0.1058897E+03  0.7818608E-02  0.1434605E+00
          2   -1    0    0  502    0  0.00000000000E+00  0.00000000000E+00  0.11865733682E+04  0.11865733682E+04  0.00000000000E+00 0. -1.
          1   -1    0    0  501    0 -0.00000000000E+00 -0.00000000000E+00 -0.17887547292E+03  0.17887547292E+03  0.00000000000E+00 0. -1.
         25    2    1    2    0    0  0.12007610154E+03 -0.49531047206E+02  0.14447820346E+03  0.23101551846E+03  0.12499049443E+03 0.  0.
          2    1    1    2  501    0 -0.24232996565E+02  0.81969407210E+01 -0.13164537803E+03  0.13410791742E+03  0.00000000000E+00 0. -1.
          1    1    1    2  502    0 -0.95843104975E+02  0.41334106485E+02  0.99486506988E+03  0.10003254053E+04  0.00000000000E+00 0. -1.
         22    1    3    3    0    0  0.43162261672E+02  0.29429581918E+02  0.39166600478E+01  0.52387225069E+02  0.00000000000E+00 0. -1.
         22    1    3    3    0    0  0.76913839868E+02 -0.78960629124E+02  0.14056154341E+03  0.17862829339E+03  0.00000000000E+00 0. -1.
</event>
<event>
 7    1  0.6508013E-006  0.8679712E+02  0.7818608E-02  0.1349585E+00
          2   -1    0    0  502    0  0.00000000000E+00  0.00000000000E+00  0.73703381116E+03  0.73703381116E+03  0.00000000000E+00 0. -1.
          1   -1    0    0  501    0 -0.00000000000E+00 -0.00000000000E+00 -0.29223093200E+03  0.29223093200E+03  0.00000000000E+00 0. -1.
         25    2    1    2    0    0  0.73902564579E+02 -0.22920521333E+02 -0.12558450883E+03  0.19335164690E+03  0.12500580447E+03 0.  0.
          2    1    1    2  501    0 -0.31195349500E+02 -0.53241890909E+02 -0.12270198671E+03  0.13734491735E+03  0.00000000000E+00 0. -1.
          1    1    1    2  502    0 -0.42707215079E+02  0.76162412242E+02  0.69308937470E+03  0.69856817891E+03  0.00000000000E+00 0. -1.
         22    1    3    3    0    0  0.91347961779E+02 -0.36212633368E+02 -0.41871108920E+02  0.10681289575E+03  0.00000000000E+00 0. -1.
         22    1    3    3    0    0 -0.17445397200E+02  0.13292112036E+02 -0.83713399910E+02  0.86538751148E+02  0.00000000000E+00 0. -1.
</event>
<event>
 7    1  0.6508013E-006  0.1324524E+03  0.7818608E-02  0.1235582E+00
          2   -1    0    0  502    0  0.00000000000E+00  0.00000000000E+00  0.70614613211E+03  0.70614613211E+03  0.00000000000E+00 0. -1.
          1   -1    0    0  501    0 -0.00000000000E+00 -0.00000000000E+00 -0.17575361857E+03  0.17575361857E+03  0.00000000000E+00 0. -1.
         25    2    1    2    0    0  0.89849501023E+02 -0.47996012617E+02  0.59657502604E+02  0.17192630918E+03  0.12499235221E+03 0.  0.
          2    1    1    2  501    0 -0.40724553170E+02  0.15456833674E+03 -0.56730336374E+02  0.16961188348E+03  0.00000000000E+00 0. -1.
          1    1    1    2  502    0 -0.49124947852E+02 -0.10657232412E+03  0.52746534731E+03  0.54036155802E+03  0.00000000000E+00 0. -1.
         22    1    3    3    0    0  0.15117869461E+02  0.15697698482E+02  0.69883623702E+02  0.73203063982E+02  0.00000000000E+00 0. -1.
         22    1    3    3    0    0  0.74731631562E+02 -0.63693711099E+02 -0.10226121098E+02  0.98723245197E+02  0.00000000000E+00 0. -1.
</event>
<event>
 7    1  0.6508013E-006  0.6467786E+02  0.7818608E-02  0.1529735E+00
          2   -1    0    0  502    0  0.00000000000E+00  0.00000000000E+00  0.44669604170E+03  0.44669604170E+03  0.00000000000E+00 0. -1.
          1   -1    0    0  501    0 -0.00000000000E+00 -0.00000000000E+00 -0.10620002486E+04  0.10620002486E+04  0.00000000000E+00 0. -1.
         25    2    1    2    0    0  0.62321419302E+02  0.16669357674E+02  0.12356567192E+03  0.18722889868E+03  0.12499743372E+03 0.  0.
          2    1    1    2  501    0 -0.83834269056E+01  0.19708703942E+02 -0.10264229418E+04  0.10266463706E+04  0.00000000000E+00 0. -1.
          1    1    1    2  502    0 -0.53937992397E+02 -0.36378061616E+02  0.28755306298E+03  0.29482102099E+03  0.00000000000E+00 0. -1.
         22    1    3    3    0    0 -0.22326192749E+02  0.83108800647E+01 -0.12393934002E+02  0.26854035267E+02  0.00000000000E+00 0.  1.
         22    1    3    3    0    0  0.84647612051E+02  0.83584776094E+01  0.13595960592E+03  0.16037486342E+03  0.00000000000E+00 0.  1.
</event>
<event>
 7    1  0.6508013E-006  0.4426496E+02  0.7818608E-02  0.1575075E+00
          2   -1    0    0  502    0  0.00000000000E+00  0.00000000000E+00  0.11326439663E+03  0.11326439663E+03  0.00000000000E+00 0. -1.
          1   -1    0    0  501    0 -0.00000000000E+00 -0.00000000000E+00 -0.15861705698E+04  0.15861705698E+04  0.00000000000E+00 0. -1.
         25    2    1    2    0    0 -0.23717538670E+02  0.10345340042E+02 -0.46229674354E+03  0.47959621762E+03  0.12499882066E+03 0.  0.
          2    1    1    2  501    0 -0.61800063207E+01  0.22577819644E+02 -0.11103687645E+04  0.11106154797E+04  0.00000000000E+00 0. -1.
          1    1    1    2  502    0  0.29897544991E+02 -0.32923159686E+02  0.99759334861E+02  0.10922326919E+03  0.00000000000E+00 0. -1.
         22    1    3    3    0    0  0.27484722323E+01  0.62445744293E+02 -0.16146939289E+03  0.17314557436E+03  0.00000000000E+00 0. -1.
         22    1    3    3    0    0 -0.26466010902E+02 -0.52100404251E+02 -0.30082735065E+03  0.30645064326E+03  0.00000000000E+00 0. -1.
</event>
<event>
 7    1  0.6508013E-006  0.7134254E+02  0.7818608E-02  0.1510200E+00
          2   -1    0    0  502    0  0.00000000000E+00  0.00000000000E+00  0.49351557706E+03  0.49351557706E+03  0.00000000000E+00 0. -1.
          1   -1    0    0  501    0 -0.00000000000E+00 -0.00000000000E+00 -0.20158281839E+04  0.20158281839E+04  0.00000000000E+00 0. -1.
         25    2    1    2    0    0  0.73302013008E+02  0.44709904961E+02 -0.75919433864E+03  0.77419197570E+03  0.12500004281E+03 0.  0.
          2    1    1    2  501    0 -0.65356836824E+02 -0.24059146800E+02 -0.12479117504E+04  0.12498536296E+04  0.00000000000E+00 0. -1.
          1    1    1    2  502    0 -0.79451761845E+01 -0.20650758161E+02  0.48479348213E+03  0.48529815573E+03  0.00000000000E+00 0. -1.
         22    1    3    3    0    0  0.94159503064E+02  0.27442549118E+02 -0.71942587504E+03  0.72608036415E+03  0.00000000000E+00 0.  1.
         22    1    3    3    0    0 -0.20857490056E+02  0.17267355843E+02 -0.39768463598E+02  0.48111611553E+02  0.00000000000E+00 0.  1.
</event>
<event>
 7    1  0.6508013E-006  0.1130638E+03  0.7818608E-02  0.1258644E+00
          2   -1    0    0  502    0  0.00000000000E+00  0.00000000000E+00  0.42570359049E+02  0.42570359049E+02  0.00000000000E+00 0. -1.
          1   -1    0    0  501    0 -0.00000000000E+00 -0.00000000000E+00 -0.28950464499E+04  0.28950464499E+04  0.00000000000E+00 0. -1.
         25    2    1    2    0    0  0.21386027571E+02 -0.50067116763E+02 -0.35032267090E+03  0.37592574746E+03  0.12502046033E+03 0.  0.
          2    1    1    2  501    0 -0.52317419289E+02 -0.95698027208E+02 -0.23358512774E+04  0.23383961202E+04  0.00000000000E+00 0. -1.
          1    1    1    2  502    0  0.30931391718E+02  0.14576514397E+03 -0.16630214252E+03  0.22329494127E+03  0.00000000000E+00 0. -1.
         22    1    3    3    0    0  0.48029834959E+02 -0.50836986432E+02 -0.34035789624E+03  0.34746908031E+03  0.00000000000E+00 0. -1.
         22    1    3    3    0    0 -0.26643807388E+02  0.76986966883E+00 -0.99647746577E+01  0.28456667152E+02  0.00000000000E+00 0. -1.
</event>
<event>
 7    1  0.6508013E-006  0.5516253E+02  0.7818608E-02  0.1535947E+00
          2   -1    0    0  502    0  0.00000000000E+00  0.00000000000E+00  0.38578425217E+03  0.38578425217E+03  0.00000000000E+00 0. -1.
          1   -1    0    0  501    0 -0.00000000000E+00 -0.00000000000E+00 -0.10013215935E+04  0.10013215935E+04  0.00000000000E+00 0. -1.
         25    2    1    2    0    0  0.38721163908E+02  0.48525157244E+02  0.19756630871E+03  0.24189332203E+03  0.12500365390E+03 0.  0.
          2    1    1    2  501    0  0.91274752444E+01 -0.22312898491E+02 -0.97452366690E+03  0.97482180608E+03  0.00000000000E+00 0. -1.
          1    1    1    2  502    0 -0.47848639152E+02 -0.26212258753E+02  0.16142001688E+03  0.17039071755E+03  0.00000000000E+00 0. -1.
         22    1    3    3    0    0  0.28970195859E+01  0.38859679541E+02 -0.18916326530E+01  0.39013403987E+02  0.00000000000E+00 0.  1.
         22    1    3    3    0    0  0.35824144322E+02  0.96654777027E+01  0.19945794136E+03  0.20287991805E+03  0.00000000000E+00 0.  1.
</event>
<event>
 7    1  0.6508013E-006  0.4652149E+02  0.7818608E-02  0.1540421E+00
          2   -1    0    0  502    0  0.00000000000E+00  0.00000000000E+00  0.20542125016E+04  0.20542125016E+04  0.00000000000E+00 0. -1.
          1   -1    0    0  501    0 -0.00000000000E+00 -0.00000000000E+00 -0.52731542332E+03  0.52731542332E+03  0.00000000000E+00 0. -1.
         25    2    1    2    0    0  0.24832930947E+02 -0.42934936221E+02 -0.98458496321E+02  0.16667391357E+03  0.12500413897E+03 0.  0.
          2    1    1    2  501    0  0.16781992737E+02  0.22116579756E+02 -0.39399272046E+03  0.39496967245E+03  0.00000000000E+00 0. -1.
          1    1    1    2  502    0 -0.41614923684E+02  0.20818356465E+02  0.20193482950E+04  0.20198843389E+04  0.00000000000E+00 0. -1.
         22    1    3    3    0    0  0.33832168485E+02 -0.76993939319E+01 -0.11965276912E+03  0.12458202699E+03  0.00000000000E+00 0.  1.
         22    1    3    3    0    0 -0.89992375380E+01 -0.35235542289E+02  0.21194272796E+02  0.42091886582E+02  0.00000000000E+00 0.  1.
</event>
<event>
 7    1  0.6508013E-006  0.1791199E+03  0.7818608E-02  0.1176979E+00
          2   -1    0    0  502    0  0.00000000000E+00  0.00000000000E+00  0.11887992882E+04  0.11887992882E+04  0.00000000000E+00 0. -1.
          1   -1    0    0  501    0 -0.00000000000E+00 -0.00000000000E+00 -0.14265248525E+04  0.14265248525E+04  0.00000000000E+00 0. -1.
         25    2    1    2    0    0 -0.52589727254E+02 -0.19696456145E+03  0.37523441179E+03  0.44495769812E+03  0.12500308574E+03 0.  0.
          2    1    1    2  501    0  0.16257582780E+03  0.76752448103E+02 -0.13772332848E+04  0.13889180533E+04  0.00000000000E+00 0. -1.
          1    1    1    2  502    0 -0.10998610055E+03  0.12021211334E+03  0.76427330880E+03  0.78144838925E+03  0.00000000000E+00 0. -1.
         22    1    3    3    0    0 -0.46699442415E+02 -0.20394463876E+03  0.38063517288E+03  0.43434708291E+03  0.00000000000E+00 0. -1.
         22    1    3    3    0    0 -0.58902848384E+01  0.69800773092E+01 -0.54007610899E+01  0.10610615207E+02  0.00000000000E+00 0. -1.
</event>
<event>
 7    1  0.6508013E-006  0.4588810E+02  0.7818608E-02  0.1471353E+00
          2   -1    0    0  502    0  0.00000000000E+00  0.00000000000E+00  0.84904527114E+02  0.84904527114E+02  0.00000000000E+00 0. -1.
          1   -1    0    0  501    0 -0.00000000000E+00 -0.00000000000E+00 -0.98506272317E+03  0.98506272317E+03  0.00000000000E+00 0. -1.
         25    2    1    2    0    0  0.90793821338E+01  0.31787814342E+02 -0.54473010450E+03  0.55986495161E+03  0.12499990792E+03 0.  0.
          2    1    1    2  501    0  0.36857545358E+02 -0.25956459147E+02 -0.42453181364E+03  0.42691858382E+03  0.00000000000E+00 0. -1.
          1    1    1    2  502    0 -0.45936927492E+02 -0.58313551947E+01  0.69103722079E+02  0.83183714848E+02  0.00000000000E+00 0. -1.
         22    1    3    3    0    0  0.17056196118E+02  0.60288126130E+02 -0.13242466579E+03  0.14649868289E+03  0.00000000000E+00 0. -1.
         22    1    3    3    0    0 -0.79768139838E+01 -0.28500311788E+02 -0.41230543870E+03  0.41336626872E+03  0.00000000000E+00 0. -1.
</event>
<event>
 7    1  0.6508013E-006  0.1008106E+03  0.7818608E-02  0.1312756E+00
          2   -1    0    0  502    0  0.00000000000E+00  0.00000000000E+00  0.24235021249E+03  0.24235021249E+03  0.00000000000E+00 0. -1.
          1   -1    0    0  501    0 -0.00000000000E+00 -0.00000000000E+00 -0.19538560141E+03  0.19538560141E+03  0.00000000000E+00 0. -1.
         25    2    1    2    0    0 -0.46828669635E+02  0.22096663404E+02 -0.93895052729E+02  0.16468953450E+03  0.12500070005E+03 0.  0.
          2    1    1    2  501    0 -0.42244840976E+01  0.73297829530E+02 -0.22779474935E+02  0.76872118210E+02  0.00000000000E+00 0. -1.
          1    1    1    2  502    0  0.51053153732E+02 -0.95394492935E+02  0.16363913875E+03  0.19617416119E+03  0.00000000000E+00 0. -1.
         22    1    3    3    0    0 -0.52167157470E+02  0.64834733573E+02 -0.31726649711E+02  0.89059167400E+02  0.00000000000E+00 0.  1.
         22    1    3    3    0    0  0.53384878356E+01 -0.42738070169E+02 -0.62168403018E+02  0.75630367102E+02  0.00000000000E+00 0.  1.
</event>
<event>
 7    1  0.6508013E-006  0.5411540E+02  0.7818608E-02  0.1503521E+00
          2   -1    0    0  502    0  0.00000000000E+00  0.00000000000E+00  0.97475883280E+03  0.97475883280E+03  0.00000000000E+00 0. -1.
          1   -1    0    0  501    0 -0.00000000000E+00 -0.00000000000E+00 -0.62917496796E+03  0.62917496796E+03  0.00000000000E+00 0. -1.
         25    2    1    2    0    0  0.80086351102E+02  0.17806733577E+02 -0.39954803548E+02  0.15476470059E+03  0.12499929131E+03 0.  0.
          2    1    1    2  501    0 -0.49633291183E+02 -0.19930764725E+02 -0.53021545466E+03  0.53290630259E+03  0.00000000000E+00 0. -1.
          1    1    1    2  502    0 -0.30453059920E+02  0.21240311478E+01  0.91575412305E+03  0.91626279759E+03  0.00000000000E+00 0. -1.
         22    1    3    3    0    0  0.43605632591E+02  0.65045508999E+02 -0.51831860627E+02  0.93909058193E+02  0.00000000000E+00 0.  1.
         22    1    3    3    0    0  0.36480718511E+02 -0.47238775422E+02  0.11877057079E+02  0.60855642395E+02  0.00000000000E+00 0.  1.
</event>
<event>
 7    1  0.6508013E-006  0.3544317E+02  0.7818608E-02  0.1603718E+00
          2   -1    0    0  502    0  0.00000000000E+00  0.00000000000E+00  0.21873596035E+03  0.21873596035E+03  0.00000000000E+00 0. -1.
          1   -1    0    0  501    0 -0.00000000000E+00 -0.00000000000E+00 -0.80527098471E+03  0.80527098471E+03  0.00000000000E+00 0. -1.
         25    2    1    2    0    0 -0.54610577361E+02  0.53831110121E+01 -0.25205490199E+03  0.28664979138E+03  0.12500054493E+03 0.  0.
          2    1    1    2  501    0  0.33983343929E+02  0.79259199248E+01 -0.53459979929E+03  0.53573746675E+03  0.00000000000E+00 0. -1.
          1    1    1    2  502    0  0.20627233433E+02 -0.13309030937E+02  0.20011967693E+03  0.20161968693E+03  0.00000000000E+00 0. -1.
         22    1    3    3    0    0  0.27629883071E+02  0.11609424289E+01 -0.75741462931E+01  0.28672738235E+02  0.00000000000E+00 0. -1.
         22    1    3    3    0    0 -0.82240460432E+02  0.42221685832E+01 -0.24448075570E+03  0.25797705314E+03  0.00000000000E+00 0. -1.
</event>
<event>
 7    1  0.6508013E-006  0.2133309E+03  0.7818608E-02  0.1301192E+00
          2   -1    0    0  502    0  0.00000000000E+00  0.00000000000E+00  0.83424519897E+03  0.83424519897E+03  0.00000000000E+00 0. -1.
          1   -1    0    0  501    0 -0.00000000000E+00 -0.00000000000E+00 -0.96173424145E+03  0.96173424145E+03  0.00000000000E+00 0. -1.
         25    2    1    2    0    0  0.27887189131E+02  0.19569135324E+03 -0.22027726544E+03  0.32127864347E+03  0.12500036813E+03 0.  0.
          2    1    1    2  501    0  0.25690778822E+01 -0.21932887811E+03 -0.67305150728E+03  0.70789129701E+03  0.00000000000E+00 0. -1.
          1    1    1    2  502    0 -0.30456267013E+02  0.23637524867E+02  0.76583973024E+03  0.76680949994E+03  0.00000000000E+00 0. -1.
         22    1    3    3    0    0 -0.48642184712E+02  0.10077703816E+03 -0.10211176078E+03  0.15148889479E+03  0.00000000000E+00 0. -1.
         22    1    3    3    0    0  0.76529373843E+02  0.94914315079E+02 -0.11816550465E+03  0.16978974868E+03  0.00000000000E+00 0. -1.
</event>
<event>
 7    1  0.6508013E-006  0.2379158E+03  0.7818608E-02  0.1328875E+00
          2   -1    0    0  502    0  0.00000000000E+00  0.00000000000E+00  0.14966147912E+04  0.14966147912E+04  0.00000000000E+00 0. -1.
          1   -1    0    0  501    0 -0.00000000000E+00 -0.00000000000E+00 -0.21800891164E+03  0.21800891164E+03  0.00000000000E+00 0. -1.
         25    2    1    2    0    0 -0.40276523960E+00 -0.24602027809E+03  0.22913476978E+02  0.27689458829E+03  0.12497778261E+03 0.  0.
          2    1    1    2  501    0 -0.25004398746E+02  0.10032574721E+02 -0.78289744476E+02  0.82795873100E+02  0.00000000000E+00 0. -1.
          1    1    1    2  502    0  0.25407163985E+02  0.23598770337E+03  0.13339821471E+04  0.13549332414E+04  0.00000000000E+00 0. -1.
         22    1    3    3    0    0 -0.35365933239E+02 -0.23682553054E+03  0.15232488066E+02  0.23993563687E+03  0.00000000000E+00 0.  1.
         22    1    3    3    0    0  0.34963167999E+02 -0.91947475483E+01  0.76809889128E+01  0.36958951415E+02  0.00000000000E+00 0.  1.
</event>
<event>
 7    1  0.6508013E-006  0.1171169E+03  0.7818608E-02  0.1346692E+00
          2   -1    0    0  502    0  0.00000000000E+00  0.00000000000E+00  0.24592758897E+04  0.24592758897E+04  0.00000000000E+00 0. -1.
          1   -1    0    0  501    0 -0.00000000000E+00 -0.00000000000E+00 -0.21160417887E+02  0.21160417887E+02  0.00000000000E+00 0. -1.
         25    2    1    2    0    0 -0.83644859740E+02  0.24770282889E+02  0.11332972707E+04  0.11435027325E+04  0.12500306395E+03 0.  0.
          2    1    1    2  501    0  0.10496052439E+03 -0.66522795907E+02  0.23279099160E+03  0.26388186718E+03  0.00000000000E+00 0. -1.
          1    1    1    2  502    0 -0.21315664647E+02  0.41752513018E+02  0.10720272095E+04  0.10730517078E+04  0.00000000000E+00 0. -1.
         22    1    3    3    0    0 -0.70307662784E+02  0.68077388877E+02  0.93428530835E+03  0.93939700645E+03  0.00000000000E+00 0. -1.
         22    1    3    3    0    0 -0.13337196956E+02 -0.43307105988E+02  0.19901196237E+03  0.20410572608E+03  0.00000000000E+00 0. -1.
</event>
<event>
 7    1  0.6508013E-006  0.3408522E+03  0.7818608E-02  0.1192343E+00
          2   -1    0    0  502    0  0.00000000000E+00  0.00000000000E+00  0.82415764158E+03  0.82415764158E+03  0.00000000000E+00 0. -1.
          1   -1    0    0  501    0 -0.00000000000E+00 -0.00000000000E+00 -0.15817164560E+04  0.15817164560E+04  0.00000000000E+00 0. -1.
         25    2    1    2    0    0  0.21560458012E+03 -0.17218919550E+03 -0.35328064107E+03  0.46536730224E+03  0.12500024250E+03 0.  0.
          2    1    1    2  501    0  0.47172659675E+02 -0.54583818652E+02 -0.11319732533E+04  0.11342698530E+04  0.00000000000E+00 0. -1.
          1    1    1    2  502    0 -0.26277723980E+03  0.22677301415E+03  0.72769508002E+03  0.80623694234E+03  0.00000000000E+00 0. -1.
         22    1    3    3    0    0  0.10145823986E+03 -0.86226197723E+02 -0.26722624690E+03  0.29856087929E+03  0.00000000000E+00 0. -1.
         22    1    3    3    0    0  0.11414634027E+03 -0.85962997780E+02 -0.86054394166E+02  0.16680642295E+03  0.00000000000E+00 0. -1.
</event>
<event>
 7    1  0.6508013E-006  0.8235043E+02  0.7818608E-02  0.1432917E+00
          2   -1    0    0  502    0  0.00000000000E+00  0.00000000000E+00  0.40567302871E+02  0.40567302871E+02  0.00000000000E+00 0. -1.
          1   -1    0    0  501    0 -0.00000000000E+00 -0.00000000000E+00 -0.34356643201E+04  0.34356643201E+04  0.00000000000E+00 0. -1.
         25    2    1    2    0    0  0.73931087979E+02  0.77281729924E+02 -0.16302021873E+04  0.16384814929E+04  0.12499663803E+03 0.  0.
          2    1    1    2  501    0 -0.43161928104E+02 -0.64507586040E+02 -0.17926857443E+04  0.17943651687E+04  0.00000000000E+00 0. -1.
          1    1    1    2  502    0 -0.30769159875E+02 -0.12774143884E+02  0.27790914400E+02  0.43384961388E+02  0.00000000000E+00 0. -1.
         22    1    3    3    0    0  0.41513940789E+02 -0.15520000128E+02 -0.19753753438E+03  0.20244840126E+03  0.00000000000E+00 0. -1.
         22    1    3    3    0    0  0.32417147190E+02  0.92801730052E+02 -0.14326646530E+04  0.14360330917E+04  0.00000000000E+00 0. -1.
</event>
<event>
 7    1  0.6508013E-006  0.4893924E+02  0.7818608E-02  0.1573242E+00
          2   -1    0    0  502    0  0.00000000000E+00  0.00000000000E+00  0.33048234125E+03  0.33048234125E+03  0.00000000000E+00 0. -1.
          1   -1    0    0  501    0 -0.00000000000E+00 -0.00000000000E+00 -0.18040188316E+04  0.18040188316E+04  0.00000000000E+00 0. -1.
         25    2    1    2    0    0  0.49914936750E+02 -0.35094591398E+02 -0.15477181994E+04  0.15539567785E+04  0.12500765321E+03 0.  0.
          2    1    1    2  501    0 -0.39067815131E+02  0.16629591333E+02 -0.25104652627E+03  0.25461185329E+03  0.00000000000E+00 0. -1.
          1    1    1    2  502    0 -0.10847121619E+02  0.18465000065E+02  0.32522823533E+03  0.32593254107E+03  0.00000000000E+00 0. -1.
         22    1    3    3    0    0 -0.38136351764E+02 -0.29997115226E+02 -0.69423150191E+03  0.69592498626E+03  0.00000000000E+00 0. -1.
         22    1    3    3    0    0  0.88051288514E+02 -0.50974761722E+01 -0.85348669754E+03  0.85803179227E+03  0.00000000000E+00 0. -1.
</event>
<event>
 7    1  0.6508013E-006  0.5532131E+02  0.7818608E-02  0.1425113E+00
          2   -1    0    0  502    0  0.00000000000E+00  0.00000000000E+00  0.66449518058E+03  0.66449518058E+03  0.00000000000E+00 0. -1.
          1   -1    0    0  501    0 -0.00000000000E+00 -0.00000000000E+00 -0.42997388234E+03  0.42997388234E+03  0.00000000000E+00 0. -1.
         25    2    1    2    0    0 -0.29072912333E+02 -0.26345493506E+02  0.39402665986E+02  0.13680606596E+03  0.12499604128E+03 0.  0.
          2    1    1    2  501    0  0.52172565330E+02 -0.20932741002E+02 -0.37798821918E+03  0.38214558752E+03  0.00000000000E+00 0. -1.
          1    1    1    2  502    0 -0.23099652996E+02  0.47278234508E+02  0.57310685143E+03  0.57551740946E+03  0.00000000000E+00 0. -1.
         22    1    3    3    0    0 -0.22447692699E+02  0.64303542149E+01  0.80503089934E+02  0.83821213615E+02  0.00000000000E+00 0. -1.
         22    1    3    3    0    0 -0.66252196345E+01 -0.32775847721E+02 -0.41100423949E+02  0.52984852343E+02  0.00000000000E+00 0. -1.
</event>
<event>
 7    1  0.6508013E-006  0.9344880E+02  0.7818608E-02  0.1393221E+00
          2   -1    0    0  502    0  0.00000000000E+00  0.00000000000E+00  0.50610106616E+03  0.50610106616E+03  0.00000000000E+00 0. -1.
          1   -1    0    0  501    0 -0.00000000000E+00 -0.00000000000E+00 -0.22484223694E+03  0.22484223694E+03  0.00000000000E+00 0. -1.
         25    2    1    2    0    0  0.68660972934E+02 -0.83741661504E+02 -0.41464128043E+01  0.16544002064E+03  0.12500485037E+03 0.  0.
          2    1    1    2  501    0 -0.79786343952E+02  0.45355568559E+02 -0.12393482065E+03  0.15421682155E+03  0.00000000000E+00 0. -1.
          1    1    1    2  502    0  0.11125371018E+02  0.38386092945E+02  0.40934006267E+03  0.41128646090E+03  0.00000000000E+00 0. -1.
         22    1    3    3    0    0  0.17504972748E+02 -0.39962240367E+02  0.58833260844E+02  0.73244503600E+02  0.00000000000E+00 0.  1.
         22    1    3    3    0    0  0.51156000186E+02 -0.43779421137E+02 -0.62979673649E+02  0.92195517044E+02  0.00000000000E+00 0.  1.
</event>
<event>
 7    1  0.6508013E-006  0.4781262E+02  0.7818608E-02  0.1577664E+00
          2   -1    0    0  502    0  0.00000000000E+00  0.00000000000E+00  0.20724615569E+04  0.20724615569E+04  0.00000000000E+00 0. -1.
          1   -1    0    0  501    0 -0.00000000000E+00 -0.00000000000E+00 -0.27676527399E+03  0.27676527399E+03  0.00000000000E+00 0. -1.
         25    2    1    2    0    0 -0.27191748064E+02  0.57385304292E+02 -0.23181458349E+02  0.14210769899E+03  0.12499901515E+03 0.  0.
          2    1    1    2  501    0  0.18621659931E+02 -0.10394182391E+02 -0.19325067154E+03  0.19442383418E+03  0.00000000000E+00 0. -1.
          1    1    1    2  502    0  0.85700881327E+01 -0.46991121901E+02  0.20121284128E+04  0.20126952977E+04  0.00000000000E+00 0. -1.
         22    1    3    3    0    0 -0.64963931647E+02 -0.33696800184E+00  0.97072874192E+01  0.65686051727E+02  0.00000000000E+00 0.  1.
         22    1    3    3    0    0  0.37772183583E+02  0.57722272294E+02 -0.32888745768E+02  0.76421647258E+02  0.00000000000E+00 0.  1.
</event>
<event>
 7    1  0.6508013E-006  0.7833434E+02  0.7818608E-02  0.1419233E+00
          2   -1    0    0  502    0  0.00000000000E+00  0.00000000000E+00  0.90220648185E+03  0.90220648185E+03  0.00000000000E+00 0. -1.
          1   -1    0    0  501    0 -0.00000000000E+00 -0.00000000000E+00 -0.45270929364E+03  0.45270929364E+03  0.00000000000E+00 0. -1.
         25    2    1    2    0    0  0.10678988083E+03  0.30608034228E+02  0.13014398670E+03  0.21190942250E+03  0.12500886234E+03 0.  0.
          2    1    1    2  501    0 -0.38585338662E+02  0.47328594487E+01 -0.40888453838E+03  0.41072837015E+03  0.00000000000E+00 0. -1.
          1    1    1    2  502    0 -0.68204542168E+02 -0.35340893676E+02  0.72823773989E+03  0.73227798283E+03  0.00000000000E+00 0. -1.
         22    1    3    3    0    0  0.60415985776E+02  0.40234543805E+02  0.14509851729E+03  0.16224207091E+03  0.00000000000E+00 0. -1.
         22    1    3    3    0    0  0.46373895053E+02 -0.96265095778E+01 -0.14954530592E+02  0.49667351593E+02  0.00000000000E+00 0. -1.
</event>
<event>
 7    1  0.6508013E-006  0.4091871E+02  0.7818608E-02  0.1564911E+00
          2   -1    0    0  502    0  0.00000000000E+00  0.00000000000E+00  0.23298374686E+04  0.23298374686E+04  0.00000000000E+00 0. -1.
          1   -1    0    0  501    0 -0.00000000000E+00 -0.00000000000E+00 -0.27420091049E+03  0.27420091049E+03  0.00000000000E+00 0. -1.
         25    2    1    2    0    0  0.32229381667E+02  0.50457847147E+02  0.63396509779E+03  0.64894023813E+03  0.12500784003E+03 0.  0.
          2    1    1    2  501    0  0.69414533333E+00 -0.26976026595E+02 -0.26578791737E+03  0.26715427166E+03  0.00000000000E+00 0. -1.
          1    1    1    2  502    0 -0.32923527001E+02 -0.23481820553E+02  0.16874593777E+04  0.16879438693E+04  0.00000000000E+00 0. -1.
         22    1    3    3    0    0 -0.81901223092E+01 -0.37338008106E+02  0.25473155329E+03  0.25758371298E+03  0.00000000000E+00 0.  1.
         22    1    3    3    0    0  0.40419503976E+02  0.87795855253E+02  0.37923354450E+03  0.39135652515E+03  0.00000000000E+00 0.  1.
</event>
<event>
 7    1  0.6508013E-006  0.6504929E+02  0.7818608E-02  0.1401851E+00
          2   -1    0    0  502    0  0.00000000000E+00  0.00000000000E+00  0.41513885610E+03  0.41513885610E+03  0.00000000000E+00 0. -1.
          1   -1    0    0  501    0 -0.00000000000E+00 -0.00000000000E+00 -0.99392588200E+02  0.99392588200E+02  0.00000000000E+00 0. -1.
         25    2    1    2    0    0 -0.63667103463E+02  0.45783746317E+02  0.35396915863E+03  0.38349695983E+03  0.12500440572E+03 0.  0.
          2    1    1    2  501    0  0.85885555705E+01 -0.52916252569E+02 -0.51057674552E+02  0.74032284873E+02  0.00000000000E+00 0. -1.
          1    1    1    2  502    0  0.55078547893E+02  0.71325062525E+01  0.12834783828E+02  0.57002199601E+02  0.00000000000E+00 0. -1.
         22    1    3    3    0    0 -0.20621840472E+01  0.77566332460E+02  0.16888545926E+03  0.18585770601E+03  0.00000000000E+00 0. -1.
         22    1    3    3    0    0 -0.61604919416E+02 -0.31782586143E+02  0.18508369937E+03  0.19763925382E+03  0.00000000000E+00 0. -1.
</event>
<event>
 7    1  0.6508013E-006  0.6815517E+02  0.7818608E-02  0.1496887E+00
          2   -1    0    0  502    0  0.00000000000E+00  0.00000000000E+00  0.30638621067E+03  0.30638621067E+03  0.00000000000E+00 0. -1.
          1   -1    0    0  501    0 -0.00000000000E+00 -0.00000000000E+00 -0.47269456200E+03  0.47269456200E+03  0.00000000000E+00 0. -1.
         25    2    1    2    0    0  0.46531577028E+01 -0.55281927425E+02 -0.39020009206E+03  0.41347263883E+03  0.12500307135E+03 0.  0.
          2    1    1    2  501    0 -0.23094799623E+02 -0.10497468047E+02 -0.64461018019E+02  0.69273295353E+02  0.00000000000E+00 0. -1.
          1    1    1    2  502    0  0.18441641920E+02  0.65779395471E+02  0.28835275874E+03  0.29633483848E+03  0.00000000000E+00 0. -1.
         22    1    3    3    0    0  0.41495995311E+02  0.73761005198E+01 -0.26795993042E+03  0.27125421434E+03  0.00000000000E+00 0.  1.
         22    1    3    3    0    0 -0.36842837608E+02 -0.62658027944E+02 -0.12224016163E+03  0.14221842449E+03  0.00000000000E+00 0.  1.
</event>
<event>
 7    1  0.6508013E-006  0.1467636E+03  0.7818608E-02  0.1270395E+00
          2   -1    0    0  502    0  0.00000000000E+00  0.00000000000E+00  0.14887066429E+04  0.14887066429E+04  0.00000000000E+00 0. -1.
          1   -1    0    0  501    0 -0.00000000000E+00 -0.00000000000E+00 -0.48153778835E+03  0.48153778835E+03  0.00000000000E+00 0. -1.
         25    2    1    2    0    0 -0.40829796592E+02  0.71818340860E+02  0.82779876842E+03  0.84124961098E+03  0.12500064247E+03 0.  0.
          2    1    1    2  501    0  0.26398791288E+02 -0.14533661824E+03 -0.46108709184E+03  0.48417035746E+03  0.00000000000E+00 0. -1.
          1    1    1    2  502    0  0.14431005304E+02  0.73518277379E+02  0.64045717794E+03  0.64482446278E+03  0.00000000000E+00 0. -1.
         22    1    3    3    0    0 -0.51101145362E+01  0.52204568862E+01 -0.23455274091E+01  0.76725445258E+01  0.00000000000E+00 0. -1.
         22    1    3    3    0    0 -0.35719682056E+02  0.66597883974E+02  0.83014429582E+03  0.83357706646E+03  0.00000000000E+00 0. -1.
</event>
<event>
 7    1  0.6508013E-006  0.6899880E+02  0.7818608E-02  0.1428321E+00
          2   -1    0    0  502    0  0.00000000000E+00  0.00000000000E+00  0.35418609935E+03  0.35418609935E+03  0.00000000000E+00 0. -1.
          1   -1    0    0  501    0 -0.00000000000E+00 -0.00000000000E+00 -0.25016138108E+04  0.25016138108E+04  0.00000000000E+00 0. -1.
         25    2    1    2    0    0 -0.26098158056E+02  0.57867133092E+02 -0.60060403627E+03  0.61674943347E+03  0.12499974544E+03 0.  0.
          2    1    1    2  501    0 -0.13532951993E+02 -0.69020968006E+02 -0.18910566474E+04  0.18923642034E+04  0.00000000000E+00 0. -1.
          1    1    1    2  502    0  0.39631110049E+02  0.11153834914E+02  0.34423297219E+03  0.34668627325E+03  0.00000000000E+00 0. -1.
         22    1    3    3    0    0 -0.53976540549E+01  0.79785060355E+02 -0.56252572851E+03  0.56818129656E+03  0.00000000000E+00 0.  1.
         22    1    3    3    0    0 -0.20700504001E+02 -0.21917927263E+02 -0.38078307764E+02  0.48568136917E+02  0.00000000000E+00 0.  1.
</event>
<event>
 7    1  0.6508013E-006  0.4209287E+02  0.7818608E-02  0.1520695E+00
          2   -1    0    0  502    0  0.00000000000E+00  0.00000000000E+00  0.48582520076E+03  0.48582520076E+03  0.00000000000E+00 0. -1.
          1   -1    0    0  501    0 -0.00000000000E+00 -0.00000000000E+00 -0.13559958765E+03  0.13559958765E+03  0.00000000000E+00 0. -1.
         25    2    1    2    0    0  0.52719384595E+02 -0.19226902755E+02  0.23376275815E+03  0.27096108240E+03  0.12500349505E+03 0.  0.
          2    1    1    2  501    0 -0.39908315182E+02 -0.13285169056E+02 -0.11184728629E+03  0.11949470611E+03  0.00000000000E+00 0. -1.
          1    1    1    2  502    0 -0.12811069413E+02  0.32512071811E+02  0.22831014125E+03  0.23096899989E+03  0.00000000000E+00 0. -1.
         22    1    3    3    0    0 -0.74777072326E+01 -0.53388746709E+02  0.46072104859E+02  0.70914830796E+02  0.00000000000E+00 0. -1.
         22    1    3    3    0    0  0.60197091828E+02  0.34161843954E+02  0.18769065329E+03  0.20004625160E+03  0.00000000000E+00 0. -1.
</event>
<event>
 7    1  0.6508013E-006  0.1065022E+03  0.7818608E-02  0.1404031E+00
          2   -1    0    0  502    0  0.00000000000E+00  0.00000000000E+00  0.40176037854E+03  0.40176037854E+03  0.00000000000E+00 0. -1.
          1   -1    0    0  501    0 -0.00000000000E+00 -0.00000000000E+00 -0.51051656194E+03  0.51051656194E+03  0.00000000000E+00 0. -1.
         25    2    1    2    0    0 -0.26871494995E+02 -0.13196753170E+03 -0.21235489087E+03  0.28081211581E+03  0.12499335200E+03 0.  0.
          2    1    1    2  501    0 -0.61333631552E+01  0.31595244162E+02 -0.25530793774E+03  0.25732862388E+03  0.00000000000E+00 0. -1.
          1    1    1    2  502    0  0.33004858151E+02  0.10037228754E+03  0.35890664520E+03  0.37413620078E+03  0.00000000000E+00 0. -1.
         22    1    3    3    0    0  0.30893868667E+02 -0.80090026880E+02 -0.46368495362E+02  0.97564752288E+02  0.00000000000E+00 0. -1.
         22    1    3    3    0    0 -0.57765363662E+02 -0.51877504821E+02 -0.16598639551E+03  0.18324736352E+03  0.00000000000E+00 0. -1.
</event>
<event>
 7    1  0.6508013E-006  0.5706366E+02  0.7818608E-02  0.1447211E+00
          2   -1    0    0  502    0  0.00000000000E+00  0.00000000000E+00  0.46983732482E+03  0.46983732482E+03  0.00000000000E+00 0. -1.
          1   -1    0    0  501    0 -0.00000000000E+00 -0.00000000000E+00 -0.13499689182E+03  0.13499689182E+03  0.00000000000E+00 0. -1.
         25    2    1    2    0    0  0.43056145312E+02 -0.63795879546E+02  0.42225796951E+01  0.14685443047E+03  0.12499859069E+03 0.  0.
          2    1    1    2  501    0 -0.51244299771E+02  0.21370573836E+02 -0.50120200161E+02  0.74797821822E+02  0.00000000000E+00 0. -1.
          1    1    1    2  502    0  0.81881544590E+01  0.42425305710E+02  0.38073805347E+03  0.38318196434E+03  0.00000000000E+00 0. -1.
         22    1    3    3    0    0 -0.54733267964E+01  0.10234208099E+01 -0.49414850274E+02  0.49727579108E+02  0.00000000000E+00 0.  1.
         22    1    3    3    0    0  0.48529472109E+02 -0.64819300356E+02  0.53637429969E+02  0.97126851362E+02  0.00000000000E+00 0.  1.
</event>
<event>
 7    1  0.6508013E-006  0.1011889E+03  0.7818608E-02  0.1328038E+00
          2   -1    0    0  502    0  0.00000000000E+00  0.00000000000E+00  0.34524511016E+03  0.34524511016E+03  0.00000000000E+00 0. -1.
          1   -1    0    0  501    0 -0.00000000000E+00 -0.00000000000E+00 -0.12146919296E+03  0.12146919296E+03  0.00000000000E+00 0. -1.
         25    2    1    2    0    0  0.10662095232E+03  0.11339374986E+02  0.92541365001E+02  0.18890585906E+03  0.12499964181E+03 0.  0.
          2    1    1    2  501    0 -0.15783785700E+02 -0.61833041333E+02 -0.41568629460E+02  0.76160382396E+02  0.00000000000E+00 0. -1.
          1    1    1    2  502    0 -0.90837166619E+02  0.50493666347E+02  0.17280318166E+03  0.20164806166E+03  0.00000000000E+00 0. -1.
         22    1    3    3    0    0  0.43690608704E+01  0.15269079481E+02  0.84812852762E+02  0.86287041175E+02  0.00000000000E+00 0. -1.
         22    1    3    3    0    0  0.10225189145E+03 -0.39297044958E+01  0.77285122395E+01  0.10261881788E+03  0.00000000000E+00 0. -1.
</event>
<event>
 7    1  0.6508013E-006  0.3865372E+02  0.7818608E-02  0.1544260E+00
          2   -1    0    0  502    0  0.00000000000E+00  0.00000000000E+00  0.49131806036E+03  0.49131806036E+03  0.00000000000E+00 0. -1.
          1   -1    0    0  501    0 -0.00000000000E+00 -0.00000000000E+00 -0.23910782652E+03  0.23910782652E+03  0.00000000000E+00 0. -1.
         25    2    1    2    0    0 -0.11303208444E+02 -0.69618739877E+02  0.32572404306E+02  0.14717211524E+03  0.12499655403E+03 0.  0.
          2    1    1    2  501    0  0.54785299231E+01  0.37551416453E+02 -0.17915562235E+03  0.18313071885E+03  0.00000000000E+00 0. -1.
          1    1    1    2  502    0  0.58246785211E+01  0.32067323424E+02  0.39879345188E+03  0.40012305279E+03  0.00000000000E+00 0. -1.
         22    1    3    3    0    0 -0.24465563084E+02  0.26932556861E+02 -0.14231902849E+02  0.39070109480E+02  0.00000000000E+00 0.  1.
         22    1    3    3    0    0  0.13162354640E+02 -0.96551296738E+02  0.46804307155E+02  0.10810200576E+03  0.00000000000E+00 0.  1.
</event>
<event>
 7    1  0.6508013E-006  0.3961776E+02  0.7818608E-02  0.1519983E+00
          2   -1    0    0  502    0  0.00000000000E+00  0.00000000000E+00  0.12395097561E+04  0.12395097561E+04  0.00000000000E+00 0. -1.
          1   -1    0    0  501    0 -0.00000000000E+00 -0.00000000000E+00 -0.27754366801E+03  0.27754366801E+03  0.00000000000E+00 0. -1.
         25    2    1    2    0    0  0.19361560516E+02 -0.15003290945E+02  0.81440979777E+03  0.82431157621E+03  0.12500514871E+03 0.  0.
          2    1    1    2  501    0  0.96266709493E+01  0.38484568005E+02 -0.27031410871E+03  0.27320953888E+03  0.00000000000E+00 0. -1.
          1    1    1    2  502    0 -0.28988231465E+02 -0.23481277060E+02  0.41787039898E+03  0.41953230898E+03  0.00000000000E+00 0. -1.
         22    1    3    3    0    0  0.11546271248E+02  0.55327677189E+02  0.34557448231E+03  0.35016594790E+03  0.00000000000E+00 0. -1.
         22    1    3    3    0    0  0.78152892674E+01 -0.70330968135E+02  0.46883531546E+03  0.47414562832E+03  0.00000000000E+00 0. -1.
</event>
<event>
 7    1  0.6508013E-006  0.4262574E+02  0.7818608E-02  0.1551124E+00
          2   -1    0    0  502    0  0.00000000000E+00  0.00000000000E+00  0.10131417911E+03  0.10131417911E+03  0.00000000000E+00 0. -1.
          1   -1    0    0  501    0 -0.00000000000E+00 -0.00000000000E+00 -0.11111620160E+04  0.11111620160E+04  0.00000000000E+00 0. -1.
         25    2    1    2    0    0 -0.14226066792E+02 -0.43966701368E+02 -0.31931213899E+03  0.34600682218E+03  0.12500010832E+03 0.  0.
          2    1    1    2  501    0  0.34980196685E+02  0.24762007334E+02 -0.77562325399E+03  0.77680641301E+03  0.00000000000E+00 0. -1.
          1    1    1    2  502    0 -0.20754129893E+02  0.19204694034E+02  0.85087556088E+02  0.89662959919E+02  0.00000000000E+00 0. -1.
         22    1    3    3    0    0 -0.33636019578E+02  0.35194697372E+02 -0.85407882064E+02  0.98308467869E+02  0.00000000000E+00 0. -1.
         22    1    3    3    0    0  0.19409952785E+02 -0.79161398740E+02 -0.23390425693E+03  0.24769835431E+03  0.00000000000E+00 0. -1.
</event>
<event>
 7    1  0.6508013E-006  0.9297673E+02  0.7818608E-02  0.1382923E+00
          2   -1    0    0  502    0  0.00000000000E+00  0.00000000000E+00  0.68846445127E+03  0.68846445127E+03  0.00000000000E+00 0. -1.
          1   -1    0    0  501    0 -0.00000000000E+00 -0.00000000000E+00 -0.22678809092E+03  0.22678809092E+03  0.00000000000E+00 0. -1.
         25    2    1    2    0    0 -0.42325254589E+02 -0.11729741149E+03  0.56743097215E+02  0.18545924869E+03  0.12500097570E+03 0.  0.
          2    1    1    2  501    0  0.85657751831E+01  0.89636653080E+02 -0.14902603475E+03  0.17411737740E+03  0.00000000000E+00 0. -1.
          1    1    1    2  502    0  0.33759479406E+02  0.27660758407E+02  0.55395929789E+03  0.55567591609E+03  0.00000000000E+00 0. -1.
         22    1    3    3    0    0  0.43160998084E+02 -0.23604570649E+02  0.94264973997E+01  0.50088984461E+02  0.00000000000E+00 0.  1.
         22    1    3    3    0    0 -0.85486252673E+02 -0.93692840838E+02  0.47316599815E+02  0.13537026423E+03  0.00000000000E+00 0.  1.
</event>
<event>
 7    1  0.6508013E-006  0.6856362E+03  0.7818608E-02  0.1061305E+00
          2   -1    0    0  502    0  0.00000000000E+00  0.00000000000E+00  0.41645492079E+03  0.41645492079E+03  0.00000000000E+00 0. -1.
          1   -1    0    0  501    0 -0.00000000000E+00 -0.00000000000E+00 -0.26021824421E+04  0.26021824421E+04  0.00000000000E+00 0. -1.
         25    2    1    2    0    0 -0.50053545089E+02  0.70130460134E+03 -0.39368365450E+03  0.81544176686E+03  0.12499981630E+03 0.  0.
          2    1    1    2  501    0  0.17891917416E+03 -0.33127385599E+02 -0.14121911042E+04  0.14238655868E+04  0.00000000000E+00 0. -1.
          1    1    1    2  502    0 -0.12886562907E+03 -0.66817721575E+03 -0.37985276264E+03  0.77933000923E+03  0.00000000000E+00 0. -1.
         22    1    3    3    0    0 -0.40802516215E+02  0.32886268030E+03 -0.11719434912E+03  0.35149683254E+03  0.00000000000E+00 0.  1.
         22    1    3    3    0    0 -0.92510288745E+01  0.37244192104E+03 -0.27648930538E+03  0.46394493431E+03  0.00000000000E+00 0.  1.
</event>
<event>
 7    1  0.6508013E-006  0.1328964E+03  0.7818608E-02  0.1242643E+00
          2   -1    0    0  502    0  0.00000000000E+00  0.00000000000E+00  0.21187510904E+03  0.21187510904E+03  0.00000000000E+00 0. -1.
          1   -1    0    0  501    0 -0.00000000000E+00 -0.00000000000E+00 -0.95801471682E+03  0.95801471682E+03  0.00000000000E+00 0. -1.
         25    2    1    2    0    0 -0.10445241407E+03 -0.16378638548E+03 -0.27253474212E+03  0.35726311363E+03  0.12500183928E+03 0.  0.
          2    1    1    2  501    0  0.19567508227E+01  0.12713132108E+03 -0.61848041401E+03  0.63141446308E+03  0.00000000000E+00 0. -1.
          1    1    1    2  502    0  0.10249566325E+03  0.36655064396E+02  0.14487554836E+03  0.18121224915E+03  0.00000000000E+00 0. -1.
         22    1    3    3    0    0 -0.72359103283E+02 -0.90338772959E+02 -0.24760507929E+03  0.27332253661E+03  0.00000000000E+00 0. -1.
         22    1    3    3    0    0 -0.32093310787E+02 -0.73447612520E+02 -0.24929662838E+02  0.83940577025E+02  0.00000000000E+00 0. -1.
</event>
<event>
 7    1  0.6508013E-006  0.1517871E+03  0.7818608E-02  0.1234711E+00
          2   -1    0    0  502    0  0.00000000000E+00  0.00000000000E+00  0.55333529851E+02  0.55333529851E+02  0.00000000000E+00 0. -1.
          1   -1    0    0  501    0 -0.00000000000E+00 -0.00000000000E+00 -0.16103182511E+04  0.16103182511E+04  0.00000000000E+00 0. -1.
         25    2    1    2    0    0 -0.12325014077E+03  0.34435006441E+02 -0.45157575293E+03  0.48571803411E+03  0.12499992466E+03 0.  0.
          2    1    1    2  501    0  0.19474741297E+02  0.10146644618E+03 -0.93238299555E+03  0.93808995072E+03  0.00000000000E+00 0. -1.
          1    1    1    2  502    0  0.10377539947E+03 -0.13590145263E+03 -0.17102597280E+03  0.24184379615E+03  0.00000000000E+00 0. -1.
         22    1    3    3    0    0 -0.10020334340E+03 -0.24820651623E+02 -0.35799708736E+03  0.37258380176E+03  0.00000000000E+00 0. -1.
         22    1    3    3    0    0 -0.23046797367E+02  0.59255658064E+02 -0.93578665569E+02  0.11313423236E+03  0.00000000000E+00 0. -1.
</event>
<event>
 7    1  0.6508013E-006  0.8862878E+02  0.7818608E-02  0.1453088E+00
          2   -1    0    0  502    0  0.00000000000E+00  0.00000000000E+00  0.15265078883E+04  0.15265078883E+04  0.00000000000E+00 0. -1.
          1   -1    0    0  501    0 -0.00000000000E+00 -0.00000000000E+00 -0.51791744875E+03  0.51791744875E+03  0.00000000000E+00 0. -1.
         25    2    1    2    0    0 -0.46250515808E+02  0.45053650596E+02  0.99638949039E+02  0.17240005721E+03  0.12499967167E+03 0.  0.
          2    1    1    2  501    0  0.55550352818E+02 -0.70018921800E+02 -0.47726040874E+03  0.48555740017E+03  0.00000000000E+00 0. -1.
          1    1    1    2  502    0 -0.92998370098E+01  0.24965271204E+02  0.13862118992E+04  0.13864678796E+04  0.00000000000E+00 0. -1.
         22    1    3    3    0    0 -0.58643486488E+02  0.27757671514E+02  0.12406507942E+03  0.14000603832E+03  0.00000000000E+00 0. -1.
         22    1    3    3    0    0  0.12392970680E+02  0.17295979082E+02 -0.24426130379E+02  0.32394018892E+02  0.00000000000E+00 0. -1.
</event>
<event>
 7    1  0.6508013E-006  0.9946014E+02  0.7818608E-02  0.1331141E+00
          2   -1    0    0  502    0  0.00000000000E+00  0.00000000000E+00  0.41123421226E+03  0.41123421226E+03  0.00000000000E+00 0. -1.
          1   -1    0    0  501    0 -0.00000000000E+00 -0.00000000000E+00 -0.16040703955E+03  0.16040703955E+03  0.00000000000E+00 0. -1.
         25    2    1    2    0    0 -0.74500399100E+02  0.47578708590E+01  0.14694646871E+03  0.20686027476E+03  0.12499984722E+03 0.  0.
          2    1    1    2  501    0 -0.21558999681E+02  0.59383110978E+02 -0.10704662040E+03  0.12429852484E+03  0.00000000000E+00 0. -1.
          1    1    1    2  502    0  0.96059398781E+02 -0.64140981837E+02  0.21092732440E+03  0.24048245221E+03  0.00000000000E+00 0. -1.
         22    1    3    3    0    0 -0.69738269346E+02 -0.24576533638E+02  0.20165185944E+02  0.76642461738E+02  0.00000000000E+00 0. -1.
         22    1    3    3    0    0 -0.47621297542E+01  0.29334404497E+02  0.12678128277E+03  0.13021781302E+03  0.00000000000E+00 0. -1.
</event>
<event>
 7    1  0.6508013E-006  0.7373241E+02  0.7818608E-02  0.1360658E+00
          2   -1    0    0  502    0  0.00000000000E+00  0.00000000000E+00  0.29116384581E+03  0.29116384581E+03  0.00000000000E+00 0. -1.
          1   -1    0    0  501    0 -0.00000000000E+00 -0.00000000000E+00 -0.15513054897E+04  0.15513054897E+04  0.00000000000E+00 0. -1.
         25    2    1    2    0    0  0.13740816055E+02 -0.97318456813E+01 -0.60997726929E+03  0.62288139792E+03  0.12500179193E+03 0.  0.
          2    1    1    2  501    0 -0.14642095485E+02 -0.64500866269E+02 -0.92884072214E+03  0.93119269747E+03  0.00000000000E+00 0. -1.
          1    1    1    2  502    0  0.90127943040E+00  0.74232711950E+02  0.27867634756E+03  0.28839524011E+03  0.00000000000E+00 0. -1.
         22    1    3    3    0    0 -0.83295516581E+01 -0.65248922427E+02 -0.35004781981E+03  0.35617450703E+03  0.00000000000E+00 0.  1.
         22    1    3    3    0    0  0.22070367713E+02  0.55517076745E+02 -0.25992944948E+03  0.26670689089E+03  0.00000000000E+00 0.  1.
</event>
<event>
 7    1  0.6508013E-006  0.1321871E+03  0.7818608E-02  0.1231803E+00
          2   -1    0    0  502    0  0.00000000000E+00  0.00000000000E+00  0.12918148710E+04  0.12918148710E+04  0.00000000000E+00 0. -1.
          1   -1    0    0  501    0 -0.00000000000E+00 -0.00000000000E+00 -0.65959651146E+03  0.65959651146E+03  0.00000000000E+00 0. -1.
         25    2    1    2    0    0  0.21166668720E+03 -0.15104254127E+02 -0.16737031490E+03  0.29777285502E+03  0.12499970365E+03 0.  0.
          2    1    1    2  501    0 -0.10257126473E+03  0.70236448360E+02 -0.41484391642E+03  0.43306985351E+03  0.00000000000E+00 0. -1.
          1    1    1    2  502    0 -0.10909542248E+03 -0.55132194233E+02  0.12144325908E+04  0.12205686739E+04  0.00000000000E+00 0. -1.
         22    1    3    3    0    0  0.11379005880E+03 -0.12399931605E+02 -0.13316162090E+02  0.11523565403E+03  0.00000000000E+00 0.  1.
         22    1    3    3    0    0  0.97876628399E+02 -0.27043225215E+01 -0.15405415281E+03  0.18253720099E+03  0.00000000000E+00 0.  1.
</event>
<event>
 7    1  0.6508013E-006  0.1270312E+03  0.7818608E-02  0.1246273E+00
          2   -1    0    0  502    0  0.00000000000E+00  0.00000000000E+00  0.20458820516E+04  0.20458820516E+04  0.00000000000E+00 0. -1.
          1   -1    0    0  501    0 -0.00000000000E+00 -0.00000000000E+00 -0.16179337436E+04  0.16179337436E+04  0.00000000000E+00 0. -1.
         25    2    1    2    0    0  0.13034036562E+03 -0.12730143677E+03 -0.75043331525E+03  0.78228530058E+03  0.12500345655E+03 0.  0.
          2    1    1    2  501    0 -0.10976978700E+03  0.19989719189E+01 -0.84603837144E+03  0.85313206948E+03  0.00000000000E+00 0. -1.
          1    1    1    2  502    0 -0.20570578617E+02  0.12530246485E+03  0.20244199947E+04  0.20283984252E+04  0.00000000000E+00 0. -1.
         22    1    3    3    0    0  0.10063280301E+03 -0.11367113197E+02 -0.34396248039E+03  0.35856151525E+03  0.00000000000E+00 0. -1.
         22    1    3    3    0    0  0.29707562611E+02 -0.11593432357E+03 -0.40647083486E+03  0.42372378533E+03  0.00000000000E+00 0. -1.
</event>
<event>
 7    1  0.6508013E-006  0.6917793E+02  0.7818608E-02  0.1454674E+00
          2   -1    0    0  502    0  0.00000000000E+00  0.00000000000E+00  0.20196444945E+03  0.20196444945E+03  0.00000000000E+00 0. -1.
          1   -1    0    0  501    0 -0.00000000000E+00 -0.00000000000E+00 -0.62175587968E+03  0.62175587968E+03  0.00000000000E+00 0. -1.
         25    2    1    2    0    0  0.78377744451E+01  0.43352433196E+02 -0.16717273606E+03  0.21333186350E+03  0.12499158424E+03 0.  0.
          2    1    1    2  501    0 -0.34393925796E+02 -0.64160769986E+02 -0.42680302729E+03  0.43296693943E+03  0.00000000000E+00 0. -1.
          1    1    1    2  502    0  0.26556151351E+02  0.20808336790E+02  0.17418433312E+03  0.17742152620E+03  0.00000000000E+00 0. -1.
         22    1    3    3    0    0 -0.24825331901E+02  0.73903093228E+02 -0.14204328854E+03  0.16203166392E+03  0.00000000000E+00 0.  1.
         22    1    3    3    0    0  0.32663106346E+02 -0.30550660032E+02 -0.25129447518E+02  0.51300199581E+02  0.00000000000E+00 0.  1.
</event>
<event>
 7    1  0.6508013E-006  0.5003575E+02  0.7818608E-02  0.1456122E+00
          2   -1    0    0  502    0  0.00000000000E+00  0.00000000000E+00  0.14964368718E+03  0.14964368718E+03  0.00000000000E+00 0. -1.
          1   -1    0    0  501    0 -0.00000000000E+00 -0.00000000000E+00 -0.63701897341E+03  0.63701897341E+03  0.00000000000E+00 0. -1.
         25    2    1    2    0    0  0.93892671921E+02 -0.13758909451E+02 -0.19200126384E+03  0.24797996294E+03  0.12499774107E+03 0.  0.
          2    1    1    2  501    0 -0.46051943316E+02  0.30549058092E+01 -0.41074408665E+03  0.41332894727E+03  0.00000000000E+00 0. -1.
          1    1    1    2  502    0 -0.47840728605E+02  0.10704003642E+02  0.11537006427E+03  0.12535375039E+03  0.00000000000E+00 0. -1.
         22    1    3    3    0    0  0.65771238336E+02 -0.51046125993E+02 -0.18211329533E+03  0.20024189149E+03  0.00000000000E+00 0. -1.
         22    1    3    3    0    0  0.28121433585E+02  0.37287216541E+02 -0.98879685092E+01  0.47738071447E+02  0.00000000000E+00 0. -1.
</event>
<event>
 7    1  0.6508013E-006  0.7956292E+02  0.7818608E-02  0.1360121E+00
          2   -1    0    0  502    0  0.00000000000E+00  0.00000000000E+00  0.42006697413E+03  0.42006697413E+03  0.00000000000E+00 0. -1.
          1   -1    0    0  501    0 -0.00000000000E+00 -0.00000000000E+00 -0.59259144430E+03  0.59259144430E+03  0.00000000000E+00 0. -1.
         25    2    1    2    0    0  0.82788579326E+01 -0.32643046867E+02 -0.20477651698E+03  0.24226550596E+03  0.12500018190E+03 0.  0.
          2    1    1    2  501    0 -0.88291720436E+01  0.94212654989E+02 -0.36056741968E+03  0.37277720260E+03  0.00000000000E+00 0. -1.
          1    1    1    2  502    0  0.55031411098E+00 -0.61569608122E+02  0.39281946649E+03  0.39761570988E+03  0.00000000000E+00 0. -1.
         22    1    3    3    0    0  0.28989726906E+02  0.42441049559E+02 -0.87575205566E+02  0.10154340739E+03  0.00000000000E+00 0. -1.
         22    1    3    3    0    0 -0.20710868973E+02 -0.75084096426E+02 -0.11720131141E+03  0.14072209857E+03  0.00000000000E+00 0. -1.
</event>
<event>
 7    1  0.6508013E-006  0.8530378E+02  0.7818608E-02  0.1387243E+00
          2   -1    0    0  502    0  0.00000000000E+00  0.00000000000E+00  0.55124148263E+03  0.55124148263E+03  0.00000000000E+00 0. -1.
          1   -1    0    0  501    0 -0.00000000000E+00 -0.00000000000E+00 -0.87121673707E+03  0.87121673707E+03  0.00000000000E+00 0. -1.
         25    2    1    2    0    0  0.20282277984E+02  0.35016316828E+02  0.11761077525E+03  0.17633919654E+03  0.12500281812E+03 0.  0.
          2    1    1    2  501    0 -0.50694825889E+02 -0.69442266894E+02 -0.83834187293E+03  0.84273915876E+03  0.00000000000E+00 0. -1.
          1    1    1    2  502    0  0.30412547905E+02  0.34425950066E+02  0.40075584324E+03  0.40337986439E+03  0.00000000000E+00 0. -1.
         22    1    3    3    0    0 -0.72800949637E+01 -0.45435388789E+02  0.35396533459E+02  0.58054189496E+02  0.00000000000E+00 0.  1.
         22    1    3    3    0    0  0.27562372947E+02  0.80451705616E+02  0.82214241790E+02  0.11828500705E+03  0.00000000000E+00 0.  1.
</event>
<event>
 7    1  0.6508013E-006  0.2751867E+02  0.7818608E-02  0.1682890E+00
          2   -1    0    0  502    0  0.00000000000E+00  0.00000000000E+00  0.92235700059E+02  0.92235700059E+02  0.00000000000E+00 0. -1.
          1   -1    0    0  501    0 -0.00000000000E+00 -0.00000000000E+00 -0.13795228880E+04  0.13795228880E+04  0.00000000000E+00 0. -1.
         25    2    1    2    0    0  0.15683889865E+02 -0.43759779026E+02 -0.82837673898E+03  0.83904282435E+03  0.12499574690E+03 0.  0.
          2    1    1    2  501    0 -0.17955361336E+01  0.20057805075E+02 -0.54345092287E+03  0.54382390998E+03  0.00000000000E+00 0. -1.
          1    1    1    2  502    0 -0.13888353731E+02  0.23701973951E+02  0.84540473889E+02  0.88891853755E+02  0.00000000000E+00 0. -1.
         22    1    3    3    0    0  0.13544957502E+00 -0.58609346211E+02 -0.16127290367E+03  0.17159260844E+03  0.00000000000E+00 0.  1.
         22    1    3    3    0    0  0.15548440290E+02  0.14849567185E+02 -0.66710383531E+03  0.66745021592E+03  0.00000000000E+00 0.  1.
</event>
<event>
 7    1  0.6508013E-006  0.1549649E+03  0.7818608E-02  0.1294059E+00
          2   -1    0    0  502    0  0.00000000000E+00  0.00000000000E+00  0.16983863739E+04  0.16983863739E+04  0.00000000000E+00 0. -1.
          1   -1    0    0  501    0 -0.00000000000E+00 -0.00000000000E+00 -0.32475379945E+03  0.32475379945E+03  0.00000000000E+00 0. -1.
         25    2    1    2    0    0  0.16330677085E+02 -0.20437188179E+03  0.12744883065E+03  0.27185077877E+03  0.12500033760E+03 0.  0.
          2    1    1    2  501    0 -0.21421613778E+02  0.14790672230E+03 -0.22985136132E+03  0.27416588471E+03  0.00000000000E+00 0. -1.
          1    1    1    2  502    0  0.50909366930E+01  0.56465159496E+02  0.14760351051E+04  0.14771235099E+04  0.00000000000E+00 0. -1.
         22    1    3    3    0    0  0.52812391529E+02 -0.53785322428E+02  0.79740543216E+02  0.10972950305E+03  0.00000000000E+00 0. -1.
         22    1    3    3    0    0 -0.36481714443E+02 -0.15058655936E+03  0.47708287433E+02  0.16212127571E+03  0.00000000000E+00 0. -1.
</event>
<event>
 7    1  0.6508013E-006  0.5122279E+02  0.7818608E-02  0.1493568E+00
          2   -1    0    0  502    0  0.00000000000E+00  0.00000000000E+00  0.12806039600E+04  0.12806039600E+04  0.00000000000E+00 0. -1.
          1   -1    0    0  501    0 -0.00000000000E+00 -0.00000000000E+00 -0.16762788379E+03  0.16762788379E+03  0.00000000000E+00 0. -1.
         25    2    1    2    0    0 -0.46252273455E+02 -0.67415181858E+02  0.14957613351E+03  0.21137763154E+03  0.12499361526E+03 0.  0.
          2    1    1    2  501    0  0.86384746843E+01  0.33440565334E+02 -0.13395162599E+03  0.13833268869E+03  0.00000000000E+00 0. -1.
          1    1    1    2  502    0  0.37613798771E+02  0.33974616524E+02  0.10973515687E+04  0.10985215236E+04  0.00000000000E+00 0. -1.
         22    1    3    3    0    0 -0.70653406595E+02 -0.46260245842E+01  0.36257477031E+02  0.79548152760E+02  0.00000000000E+00 0.  1.
         22    1    3    3    0    0  0.24401133139E+02 -0.62789157274E+02  0.11331865648E+03  0.13182947878E+03  0.00000000000E+00 0.  1.
</event>
<event>
 7    1  0.6508013E-006  0.1411423E+03  0.7818608E-02  0.1344603E+00
          2   -1    0    0  502    0  0.00000000000E+00  0.00000000000E+00  0.13601322333E+04  0.13601322333E+04  0.00000000000E+00 0. -1.
          1   -1    0    0  501    0 -0.00000000000E+00 -0.00000000000E+00 -0.10780885205E+04  0.10780885205E+04  0.00000000000E+00 0. -1.
         25    2    1    2    0    0 -0.32098307873E+02 -0.11796557110E+03  0.10741779774E+03  0.20523518910E+03  0.12504688017E+03 0.  0.
          2    1    1    2  501    0  0.71433603805E+02  0.12256256941E+03 -0.10239627839E+04  0.10337427755E+04  0.00000000000E+00 0. -1.
          1    1    1    2  502    0 -0.39335295932E+02 -0.45969983058E+01  0.11985886990E+04  0.11992427891E+04  0.00000000000E+00 0. -1.
         22    1    3    3    0    0 -0.57787676972E+02 -0.12355347675E+03  0.55925210414E+02  0.14741949120E+03  0.00000000000E+00 0. -1.
         22    1    3    3    0    0  0.25689369099E+02  0.55879056463E+01  0.51492587322E+02  0.57815697897E+02  0.00000000000E+00 0. -1.
</event>
<event>
 7    1  0.6508013E-006  0.5084845E+02  0.7818608E-02  0.1448886E+00
          2   -1    0    0  502    0  0.00000000000E+00  0.00000000000E+00  0.19388619940E+04  0.19388619940E+04  0.00000000000E+00 0. -1.
          1   -1    0    0  501    0 -0.00000000000E+00 -0.00000000000E+00 -0.45392971024E+03  0.45392971024E+03  0.00000000000E+00 0. -1.
         25    2    1    2    0    0 -0.58218455256E+02 -0.44839774497E+01  0.31804892838E+03  0.34668454846E+03  0.12500224284E+03 0.  0.
          2    1    1    2  501    0  0.29346137569E+02 -0.37849421126E+02 -0.43789731063E+03  0.44050860278E+03  0.00000000000E+00 0. -1.
          1    1    1    2  502    0  0.28872317688E+02  0.42333398576E+02  0.16047806660E+04  0.16055985529E+04  0.00000000000E+00 0. -1.
         22    1    3    3    0    0 -0.12843920896E+02 -0.83733132641E+01  0.29544489016E+03  0.29584246112E+03  0.00000000000E+00 0. -1.
         22    1    3    3    0    0 -0.45374534360E+02  0.38893358144E+01  0.22604038212E+02  0.50842087339E+02  0.00000000000E+00 0. -1.
</event>
<event>
 7    1  0.6508013E-006  0.1280591E+03  0.7818608E-02  0.1316912E+00
          2   -1    0    0  502    0  0.00000000000E+00  0.00000000000E+00  0.41898883434E+03  0.41898883434E+03  0.00000000000E+00 0. -1.
          1   -1    0    0  501    0 -0.00000000000E+00 -0.00000000000E+00 -0.23179127583E+03  0.23179127583E+03  0.00000000000E+00 0. -1.
         25    2    1    2    0    0 -0.11055527500E+02  0.10142979827E+03  0.10927113559E+03  0.19487190935E+03  0.12499860525E+03 0.  0.
          2    1    1    2  501    0 -0.48800686300E+02  0.26797410058E+02 -0.16534836679E+03  0.17446974113E+03  0.00000000000E+00 0. -1.
          1    1    1    2  502    0  0.59856213800E+02 -0.12822720833E+03  0.24327478971E+03  0.28143845969E+03  0.00000000000E+00 0. -1.
         22    1    3    3    0    0  0.10249534580E+02  0.61267521766E+02  0.13062516834E+03  0.14464334338E+03  0.00000000000E+00 0. -1.
         22    1    3    3    0    0 -0.21305062081E+02  0.40162276501E+02 -0.21354032749E+02  0.50228565963E+02  0.00000000000E+00 0. -1.
</event>
<event>
 7    1  0.6508013E-006  0.5229092E+02  0.7818608E-02  0.1436056E+00
          2   -1    0    0  502    0  0.00000000000E+00  0.00000000000E+00  0.28777864362E+03  0.28777864362E+03  0.00000000000E+00 0. -1.
          1   -1    0    0  501    0 -0.00000000000E+00 -0.00000000000E+00 -0.22653348479E+03  0.22653348479E+03  0.00000000000E+00 0. -1.
         25    2    1    2    0    0  0.26309405392E+02 -0.17488060957E+02  0.15231722680E+03  0.19955716245E+03  0.12499802566E+03 0.  0.
          2    1    1    2  501    0 -0.24722666543E+02 -0.46077438484E+02 -0.19005005901E+03  0.19711257065E+03  0.00000000000E+00 0. -1.
          1    1    1    2  502    0 -0.15867388493E+01  0.63565499441E+02  0.98977991053E+02  0.11764239530E+03  0.00000000000E+00 0. -1.
         22    1    3    3    0    0 -0.39774870081E+02  0.25352568532E+02  0.78698490567E+02  0.91750996936E+02  0.00000000000E+00 0.  1.
         22    1    3    3    0    0  0.66084275473E+02 -0.42840629489E+02  0.73618736228E+02  0.10780616552E+03  0.00000000000E+00 0.  1.
</event>
<event>
 7    1  0.6508013E-006  0.1463714E+03  0.7818608E-02  0.1377910E+00
          2   -1    0    0  502    0  0.00000000000E+00  0.00000000000E+00  0.48835489875E+03  0.48835489875E+03  0.00000000000E+00 0. -1.
          1   -1    0    0  501    0 -0.00000000000E+00 -0.00000000000E+00 -0.13106661610E+03  0.13106661610E+03  0.00000000000E+00 0. -1.
         25    2    1    2    0    0 -0.77940130945E+02 -0.13991894837E+03  0.14533735883E+03  0.24980191353E+03  0.12500428797E+03 0.  0.
          2    1    1    2  501    0  0.49839739926E+02  0.13325613269E+03 -0.12961394387E+02  0.14286075150E+03  0.00000000000E+00 0. -1.
          1    1    1    2  502    0  0.28100391020E+02  0.66628156760E+01  0.22491231821E+03  0.22675884981E+03  0.00000000000E+00 0. -1.
         22    1    3    3    0    0  0.24509729701E+02 -0.28564935580E+02  0.72900738581E+02  0.82043891182E+02  0.00000000000E+00 0. -1.
         22    1    3    3    0    0 -0.10244986065E+03 -0.11135401279E+03  0.72436620246E+02  0.16775802235E+03  0.00000000000E+00 0. -1.
</event>
<event>
 7    1  0.6508013E-006  0.8949536E+02  0.7818608E-02  0.1362362E+00
          2   -1    0    0  502    0  0.00000000000E+00  0.00000000000E+00  0.17032004343E+04  0.17032004343E+04  0.00000000000E+00 0. -1.
          1   -1    0    0  501    0 -0.00000000000E+00 -0.00000000000E+00 -0.12507560761E+03  0.12507560761E+03  0.00000000000E+00 0. -1.
         25    2    1    2    0    0  0.22103747349E+02  0.31102765001E+02  0.12953174458E+02  0.13132743719E+03  0.12499261335E+03 0.  0.
          2    1    1    2  501    0  0.14872229942E+02  0.51619527033E+02 -0.53457287849E+02  0.75785489500E+02  0.00000000000E+00 0. -1.
          1    1    1    2  502    0 -0.36975977291E+02 -0.82722292033E+02  0.16186289401E+04  0.16211631152E+04  0.00000000000E+00 0. -1.
         22    1    3    3    0    0 -0.20191556857E+02  0.45861812816E+02 -0.38436820973E+02  0.63153733457E+02  0.00000000000E+00 0.  1.
         22    1    3    3    0    0  0.42295304206E+02 -0.14759047816E+02  0.51389995431E+02  0.68173703733E+02  0.00000000000E+00 0.  1.
</event>
<event>
 7    1  0.6508013E-006  0.1010552E+03  0.7818608E-02  0.1339994E+00
          2   -1    0    0  502    0  0.00000000000E+00  0.00000000000E+00  0.42837659510E+04  0.42837659510E+04  0.00000000000E+00 0. -1.
          1   -1    0    0  501    0 -0.00000000000E+00 -0.00000000000E+00 -0.14770060279E+02  0.14770060279E+02  0.00000000000E+00 0. -1.
         25    2    1    2    0    0  0.42970937419E+02  0.12828211765E+02  0.39043937464E+03  0.41241014762E+03  0.12501263982E+03 0.  0.
          2    1    1    2  501    0 -0.13989091302E+03  0.15784149150E+02  0.23908977708E+04  0.23950387799E+04  0.00000000000E+00 0. -1.
          1    1    1    2  502    0  0.96919975600E+02 -0.28612360915E+02  0.14876587453E+04  0.14910870837E+04  0.00000000000E+00 0. -1.
         22    1    3    3    0    0  0.12580896347E+02 -0.80022455483E+01 -0.46407808519E+01  0.15615752740E+02  0.00000000000E+00 0. -1.
         22    1    3    3    0    0  0.30390041072E+02  0.20830457314E+02  0.39508015549E+03  0.39679439488E+03  0.00000000000E+00 0. -1.
</event>
<event>
 7    1  0.6508013E-006  0.5975671E+02  0.7818608E-02  0.1421880E+00
          2   -1    0    0  502    0  0.00000000000E+00  0.00000000000E+00  0.57746005646E+03  0.57746005646E+03  0.00000000000E+00 0. -1.
          1   -1    0    0  501    0 -0.00000000000E+00 -0.00000000000E+00 -0.33468113896E+03  0.33468113896E+03  0.00000000000E+00 0. -1.
         25    2    1    2    0    0 -0.43994766584E+02  0.58258022116E+02  0.37621361246E+03  0.40310151873E+03  0.12499846229E+03 0.  0.
          2    1    1    2  501    0 -0.15035195156E+02 -0.47617110462E+02 -0.31442692860E+03  0.31836730317E+03  0.00000000000E+00 0. -1.
          1    1    1    2  502    0  0.59029961740E+02 -0.10640911653E+02  0.18099223364E+03  0.19067237351E+03  0.00000000000E+00 0. -1.
         22    1    3    3    0    0  0.24524582933E+02  0.16198725107E+02  0.26076712224E+03  0.26241826519E+03  0.00000000000E+00 0.  1.
         22    1    3    3    0    0 -0.68519349517E+02  0.42059297009E+02  0.11544649022E+03  0.14068325354E+03  0.00000000000E+00 0.  1.
</event>
<event>
 7    1  0.6508013E-006  0.7971161E+02  0.7818608E-02  0.1363169E+00
          2   -1    0    0  502    0  0.00000000000E+00  0.00000000000E+00  0.77706093978E+03  0.77706093978E+03  0.00000000000E+00 0. -1.
          1   -1    0    0  501    0 -0.00000000000E+00 -0.00000000000E+00 -0.26890951951E+03  0.26890951951E+03  0.00000000000E+00 0. -1.
         25    2    1    2    0    0 -0.26452905487E+02 -0.43381064677E+02  0.50423167489E+03  0.52197276526E+03  0.12499725089E+03 0.  0.
          2    1    1    2  501    0 -0.23244832436E+02  0.76832060583E+02 -0.25027829726E+03  0.26283590670E+03  0.00000000000E+00 0. -1.
          1    1    1    2  502    0  0.49697737924E+02 -0.33450995906E+02  0.25419804265E+03  0.26116178734E+03  0.00000000000E+00 0. -1.
         22    1    3    3    0    0 -0.40860229555E+02  0.44163344760E+01  0.48744507013E+02  0.63758053086E+02  0.00000000000E+00 0.  1.
         22    1    3    3    0    0  0.14407324067E+02 -0.47797399153E+02  0.45548716787E+03  0.45821471217E+03  0.00000000000E+00 0.  1.
</event>
<event>
 7    1  0.6508013E-006  0.7540733E+02  0.7818608E-02  0.1405455E+00
          2   -1    0    0  502    0  0.00000000000E+00  0.00000000000E+00  0.34167049678E+03  0.34167049678E+03  0.00000000000E+00 0. -1.
          1   -1    0    0  501    0 -0.00000000000E+00 -0.00000000000E+00 -0.91158447884E+02  0.91158447884E+02  0.00000000000E+00 0. -1.
         25    2    1    2    0    0  0.80898744882E+02 -0.23284698312E+02  0.10401657548E+03  0.18310640857E+03  0.12498689845E+03 0.  0.
          2    1    1    2  501    0 -0.72832475136E+02 -0.20936349696E+02 -0.19085728020E+02  0.78148353707E+02  0.00000000000E+00 0. -1.
          1    1    1    2  502    0 -0.80662697457E+01  0.44221048008E+02  0.16558120144E+03  0.17157418239E+03  0.00000000000E+00 0. -1.
         22    1    3    3    0    0  0.40167218868E+02 -0.61063072857E+02  0.10453165554E+03  0.12754987788E+03  0.00000000000E+00 0.  1.
         22    1    3    3    0    0  0.40731526014E+02  0.37778374545E+02 -0.51508005349E+00  0.55556530688E+02  0.00000000000E+00 0.  1.
</event>
<event>
 7    1  0.6508013E-006  0.7512736E+02  0.7818608E-02  0.1395113E+00
          2   -1    0    0  502    0  0.00000000000E+00  0.00000000000E+00  0.63954291152E+03  0.63954291152E+03  0.00000000000E+00 0. -1.
          1   -1    0    0  501    0 -0.00000000000E+00 -0.00000000000E+00 -0.93658061071E+02  0.93658061071E+02  0.00000000000E+00 0. -1.
         25    2    1    2    0    0  0.33666533246E+02  0.66442484533E+02  0.38965395392E+03  0.41594103659E+03  0.12501481075E+03 0.  0.
          2    1    1    2  501    0 -0.47123134327E+02  0.13310285067E+02 -0.65188532334E+02  0.81530964824E+02  0.00000000000E+00 0. -1.
          1    1    1    2  502    0  0.13456601082E+02 -0.79752769599E+02  0.22141942887E+03  0.23572897118E+03  0.00000000000E+00 0. -1.
         22    1    3    3    0    0  0.31962026253E+01  0.86970827605E+02  0.14944958583E+03  0.17294310993E+03  0.00000000000E+00 0.  1.
         22    1    3    3    0    0  0.30470330620E+02 -0.20528343073E+02  0.24020436808E+03  0.24299792666E+03  0.00000000000E+00 0.  1.
</event>
<event>
 7    1  0.6508013E-006  0.5969252E+02  0.7818608E-02  0.1409177E+00
          2   -1    0    0  502    0  0.00000000000E+00  0.00000000000E+00  0.96750983605E+03  0.96750983605E+03  0.00000000000E+00 0. -1.
          1   -1    0    0  501    0 -0.00000000000E+00 -0.00000000000E+00 -0.19795740226E+03  0.19795740226E+03  0.00000000000E+00 0. -1.
         25    2    1    2    0    0 -0.69143917901E+01  0.82854740164E+01  0.86449995634E+02  0.15236518129E+03  0.12500035533E+03 0.  0.
          2    1    1    2  501    0  0.17635534068E+02  0.52257521523E+02 -0.15923891147E+03  0.16851970669E+03  0.00000000000E+00 0. -1.
          1    1    1    2  502    0 -0.10721142278E+02 -0.60542995539E+02  0.84234134962E+03  0.84458235033E+03  0.00000000000E+00 0. -1.
         22    1    3    3    0    0  0.42159606926E+02  0.68633222761E+01  0.93473455299E+02  0.10277073754E+03  0.00000000000E+00 0.  1.
         22    1    3    3    0    0 -0.49073998716E+02  0.14221517403E+01 -0.70234596648E+01  0.49594443753E+02  0.00000000000E+00 0.  1.
</event>
<event>
 7    1  0.6508013E-006  0.3857581E+02  0.7818608E-02  0.1539101E+00
          2   -1    0    0  502    0  0.00000000000E+00  0.00000000000E+00  0.14662223404E+04  0.14662223404E+04  0.00000000000E+00 0. -1.
          1   -1    0    0  501    0 -0.00000000000E+00 -0.00000000000E+00 -0.81753532638E+02  0.81753532638E+02  0.00000000000E+00 0. -1.
         25    2    1    2    0    0  0.10976060983E+01 -0.12083328097E+02  0.19235067234E+03  0.22972080556E+03  0.12500262316E+03 0.  0.
          2    1    1    2  501    0 -0.33832188389E+02  0.20383695751E+02 -0.56633524977E+02  0.69046854924E+02  0.00000000000E+00 0. -1.
          1    1    1    2  502    0  0.32734582291E+02 -0.83003676545E+01  0.12487516604E+04  0.12492082126E+04  0.00000000000E+00 0. -1.
         22    1    3    3    0    0  0.53829614056E+02 -0.38912841656E+02  0.10087603236E+03  0.12078000869E+03  0.00000000000E+00 0.  1.
         22    1    3    3    0    0 -0.52732007958E+02  0.26829513559E+02  0.91474639987E+02  0.10894079687E+03  0.00000000000E+00 0.  1.
</event>
<event>
 7    1  0.6508013E-006  0.6800039E+02  0.7818608E-02  0.1494358E+00
          2   -1    0    0  502    0  0.00000000000E+00  0.00000000000E+00  0.11021904795E+04  0.11021904795E+04  0.00000000000E+00 0. -1.
          1   -1    0    0  501    0 -0.00000000000E+00 -0.00000000000E+00 -0.13204728042E+03  0.13204728042E+03  0.00000000000E+00 0. -1.
         25    2    1    2    0    0 -0.32613468481E+02  0.31836731788E+02  0.22066808795E+03  0.25767000280E+03  0.12498883746E+03 0.  0.
          2    1    1    2  501    0  0.39087033110E+02 -0.56888705357E+02 -0.10284244332E+03  0.12385753551E+03  0.00000000000E+00 0. -1.
          1    1    1    2  502    0 -0.64735646293E+01  0.25051973569E+02  0.85231755443E+03  0.85271022159E+03  0.00000000000E+00 0. -1.
         22    1    3    3    0    0 -0.29435143511E+01  0.73093629873E+02  0.17368313032E+03  0.18846000309E+03  0.00000000000E+00 0. -1.
         22    1    3    3    0    0 -0.29669954129E+02 -0.41256898085E+02  0.46984957622E+02  0.69209999714E+02  0.00000000000E+00 0. -1.
</event>
<event>
 7    1  0.6508013E-006  0.2926875E+03  0.7818608E-02  0.1309662E+00
          2   -1    0    0  502    0  0.00000000000E+00  0.00000000000E+00  0.18509088533E+04  0.18509088533E+04  0.00000000000E+00 0. -1.
          1   -1    0    0  501    0 -0.00000000000E+00 -0.00000000000E+00 -0.19942776456E+03  0.19942776456E+03  0.00000000000E+00 0. -1.
         25    2    1    2    0    0 -0.13398164052E+03 -0.24640257330E+03  0.82003852311E+03  0.87564462616E+03  0.12500009525E+03 0.  0.
          2    1    1    2  501    0  0.12069560543E+03  0.26875934020E+03 -0.44852291200E+02  0.29801130875E+03  0.00000000000E+00 0. -1.
          1    1    1    2  502    0  0.13286035090E+02 -0.22356766899E+02  0.87629485684E+03  0.87668068296E+03  0.00000000000E+00 0. -1.
         22    1    3    3    0    0 -0.53151345151E+02 -0.83444585052E+02  0.13822578634E+03  0.16998362355E+03  0.00000000000E+00 0. -1.
         22    1    3    3    0    0 -0.80830295372E+02 -0.16295798825E+03  0.68181273677E+03  0.70566100261E+03  0.00000000000E+00 0. -1.
</event>
<event>
 7    1  0.6508013E-006  0.1220953E+03  0.7818608E-02  0.1253224E+00
          2   -1    0    0  502    0  0.00000000000E+00  0.00000000000E+00  0.40001196471E+03  0.40001196471E+03  0.00000000000E+00 0. -1.
          1   -1    0    0  501    0 -0.00000000000E+00 -0.00000000000E+00 -0.12212476320E+04  0.12212476320E+04  0.00000000000E+00 0. -1.
         25    2    1    2    0    0  0.98239386457E+02  0.18426592707E+03  0.42751620568E+01  0.24340897386E+03  0.12499897044E+03 0.  0.
          2    1    1    2  501    0 -0.13723411414E+02 -0.11936461001E+03 -0.10879698323E+04  0.10945842125E+04  0.00000000000E+00 0. -1.
          1    1    1    2  502    0 -0.84515975043E+02 -0.64901317060E+02  0.26245900299E+03  0.28326641037E+03  0.00000000000E+00 0. -1.
         22    1    3    3    0    0  0.62926567585E+02  0.19294771574E+03 -0.12557268993E+02  0.20333779511E+03  0.00000000000E+00 0.  1.
         22    1    3    3    0    0  0.35312818872E+02 -0.86817886604E+01  0.16832431050E+02  0.40071178746E+02  0.00000000000E+00 0.  1.
</event>
<event>
 7    1  0.6508013E-006  0.4251755E+02  0.7818608E-02  0.1604874E+00
          2   -1    0    0  502    0  0.00000000000E+00  0.00000000000E+00  0.30532922015E+04  0.30532922015E+04  0.00000000000E+00 0. -1.
          1   -1    0    0  501    0 -0.00000000000E+00 -0.00000000000E+00 -0.38750717658E+02  0.38750717658E+02  0.00000000000E+00 0. -1.
         25    2    1    2    0    0  0.16886999317E+02 -0.57096290335E+02  0.12211084272E+04  0.12289308458E+04  0.12498030075E+03 0.  0.
          2    1    1    2  501    0 -0.12849543502E+02  0.15744679779E+02 -0.31619191899E+02  0.37586952601E+02  0.00000000000E+00 0. -1.
          1    1    1    2  502    0 -0.40374558145E+01  0.41351610556E+02  0.18250522485E+04  0.18255251208E+04  0.00000000000E+00 0. -1.
         22    1    3    3    0    0 -0.31403471248E+02 -0.68478648300E+02  0.97289730687E+03  0.97580975246E+03  0.00000000000E+00 0.  1.
         22    1    3    3    0    0  0.48290470564E+02  0.11382357965E+02  0.24821112032E+03  0.25312109329E+03  0.00000000000E+00 0.  1.
</event>
<event>
 7    1  0.6508013E-006  0.1415209E+03  0.7818608E-02  0.1332658E+00
          2   -1    0    0  502    0  0.00000000000E+00  0.00000000000E+00  0.42444374857E+03  0.42444374857E+03  0.00000000000E+00 0. -1.
          1   -1    0    0  501    0 -0.00000000000E+00 -0.00000000000E+00 -0.10436486327E+04  0.10436486327E+04  0.00000000000E+00 0. -1.
         25    2    1    2    0    0 -0.14338218677E+03 -0.35158145595E+02  0.16043278426E+03  0.25131297131E+03  0.12499993839E+03 0.  0.
          2    1    1    2  501    0  0.14126840798E+03 -0.86034934177E+01 -0.99093327225E+03  0.10009892773E+04  0.00000000000E+00 0. -1.
          1    1    1    2  502    0  0.21137787866E+01  0.43761639013E+02  0.21129560390E+03  0.21579013262E+03  0.00000000000E+00 0. -1.
         22    1    3    3    0    0 -0.15626506338E+03 -0.22480295495E+02  0.96855726511E+02  0.18521653672E+03  0.00000000000E+00 0. -1.
         22    1    3    3    0    0  0.12882876605E+02 -0.12677850100E+02  0.63577057753E+02  0.66096434589E+02  0.00000000000E+00 0. -1.
</event>
<event>
 7    1  0.6508013E-006  0.1311304E+03  0.7818608E-02  0.1316269E+00
          2   -1    0    0  502    0  0.00000000000E+00  0.00000000000E+00  0.95847184515E+02  0.95847184515E+02  0.00000000000E+00 0. -1.
          1   -1    0    0  501    0 -0.00000000000E+00 -0.00000000000E+00 -0.16661409265E+04  0.16661409265E+04  0.00000000000E+00 0. -1.
         25    2    1    2    0    0 -0.59953209574E+01 -0.98191084519E+02 -0.35263753726E+03  0.38685688697E+03  0.12501034100E+03 0.  0.
          2    1    1    2  501    0 -0.34537872325E+02  0.13489931754E+03 -0.12826531622E+04  0.12901898407E+04  0.00000000000E+00 0. -1.
          1    1    1    2  502    0  0.40533193282E+02 -0.36708233026E+02  0.64996957467E+02  0.84941383374E+02  0.00000000000E+00 0. -1.
         22    1    3    3    0    0 -0.19772855819E+02 -0.12044672492E+03 -0.21934982553E+03  0.25102335614E+03  0.00000000000E+00 0.  1.
         22    1    3    3    0    0  0.13777534861E+02  0.22255640403E+02 -0.13328771174E+03  0.13583353083E+03  0.00000000000E+00 0.  1.
</event>
<event>
 7    1  0.6508013E-006  0.1844407E+03  0.7818608E-02  0.1232165E+00
          2   -1    0    0  502    0  0.00000000000E+00  0.00000000000E+00  0.52105660808E+03  0.52105660808E+03  0.00000000000E+00 0. -1.
          1   -1    0    0  501    0 -0.00000000000E+00 -0.00000000000E+00 -0.77387460247E+03  0.77387460247E+03  0.00000000000E+00 0. -1.
         25    2    1    2    0    0 -0.97221115243E+02  0.12615571333E+03 -0.24538108581E+03  0.31812868909E+03  0.12500710499E+03 0.  0.
          2    1    1    2  501    0  0.17985106609E+03 -0.98051544800E+02 -0.46651242475E+03  0.50950402732E+03  0.00000000000E+00 0. -1.
          1    1    1    2  502    0 -0.82629950851E+02 -0.28104168527E+02  0.45907551617E+03  0.46729849413E+03  0.00000000000E+00 0. -1.
         22    1    3    3    0    0 -0.87577186369E+01 -0.23202348263E+02 -0.12799143494E+02  0.27908147105E+02  0.00000000000E+00 0.  1.
         22    1    3    3    0    0 -0.88463396606E+02  0.14935806159E+03 -0.23258194231E+03  0.29022054199E+03  0.00000000000E+00 0.  1.
</event>
<event>
 7    1  0.6508013E-006  0.4879617E+02  0.7818608E-02  0.1464838E+00
          2   -1    0    0  502    0  0.00000000000E+00  0.00000000000E+00  0.21039112246E+03  0.21039112246E+03  0.00000000000E+00 0. -1.
          1   -1    0    0  501    0 -0.00000000000E+00 -0.00000000000E+00 -0.25512579999E+03  0.25512579999E+03  0.00000000000E+00 0. -1.
         25    2    1    2    0    0  0.80067511006E+02 -0.70808003022E+01  0.63325123974E+02  0.16154094613E+03  0.12499784757E+03 0.  0.
          2    1    1    2  501    0 -0.40952480526E+02 -0.17216098453E+02 -0.19800599715E+03  0.20292824992E+03  0.00000000000E+00 0. -1.
          1    1    1    2  502    0 -0.39115030480E+02  0.24296898755E+02  0.89946195648E+02  0.10104772640E+03  0.00000000000E+00 0. -1.
         22    1    3    3    0    0  0.53548062772E+02 -0.54906791547E+02 -0.15256494196E+01  0.76710353870E+02  0.00000000000E+00 0. -1.
         22    1    3    3    0    0  0.26519448234E+02  0.47825991245E+02  0.64850773393E+02  0.84830592259E+02  0.00000000000E+00 0. -1.
</event>
<event>
 7    1  0.6508013E-006  0.1277209E+03  0.7818608E-02  0.1271207E+00
          2   -1    0    0  502    0  0.00000000000E+00  0.00000000000E+00  0.14372249467E+04  0.14372249467E+04  0.00000000000E+00 0. -1.
          1   -1    0    0  501    0 -0.00000000000E+00 -0.00000000000E+00 -0.49133162323E+03  0.49133162323E+03  0.00000000000E+00 0. -1.
         25    2    1    2    0    0 -0.74778883582E+02  0.13923464470E+03 -0.88598670477E+02  0.22011904589E+03  0.12499800894E+03 0.  0.
          2    1    1    2  501    0  0.10998181078E+03 -0.61406781983E+02 -0.32381253969E+03  0.34744978405E+03  0.00000000000E+00 0. -1.
          1    1    1    2  502    0 -0.35202927198E+02 -0.77827862717E+02  0.13583045336E+04  0.13609877400E+04  0.00000000000E+00 0. -1.
         22    1    3    3    0    0 -0.36940473199E+02  0.15392389423E+03 -0.84190207406E+02  0.17929069914E+03  0.00000000000E+00 0.  1.
         22    1    3    3    0    0 -0.37838410383E+02 -0.14689249528E+02 -0.44084630713E+01  0.40828346754E+02  0.00000000000E+00 0.  1.
</event>
<event>
 7    1  0.6508013E-006  0.5398113E+02  0.7818608E-02  0.1439925E+00
          2   -1    0    0  502    0  0.00000000000E+00  0.00000000000E+00  0.13336159495E+04  0.13336159495E+04  0.00000000000E+00 0. -1.
          1   -1    0    0  501    0 -0.00000000000E+00 -0.00000000000E+00 -0.99168028297E+03  0.99168028297E+03  0.00000000000E+00 0. -1.
         25    2    1    2    0    0 -0.38963165598E+01  0.93994637205E+02 -0.67893566591E+02  0.17054131461E+03  0.12499852199E+03 0.  0.
          2    1    1    2  501    0 -0.17150619291E+02 -0.50612533666E+02 -0.87119053335E+03  0.87282800007E+03  0.00000000000E+00 0. -1.
          1    1    1    2  502    0  0.21046935851E+02 -0.43382103539E+02  0.12810197665E+04  0.12819269178E+04  0.00000000000E+00 0. -1.
         22    1    3    3    0    0 -0.34713364603E+02  0.10887419280E+03 -0.73490252168E+02  0.13586546546E+03  0.00000000000E+00 0.  1.
         22    1    3    3    0    0  0.30817048043E+02 -0.14879555599E+02  0.55966855771E+01  0.34675849151E+02  0.00000000000E+00 0.  1.
</event>
<event>
 7    1  0.6508013E-006  0.3162751E+02  0.7818608E-02  0.1624648E+00
          2   -1    0    0  502    0  0.00000000000E+00  0.00000000000E+00  0.18049682629E+02  0.18049682629E+02  0.00000000000E+00 0. -1.
          1   -1    0    0  501    0 -0.00000000000E+00 -0.00000000000E+00 -0.17458176510E+04  0.17458176510E+04  0.00000000000E+00 0. -1.
         25    2    1    2    0    0  0.13460650540E+02 -0.29541825513E+02 -0.45238775421E+03  0.47046196580E+03  0.12500349008E+03 0.  0.
          2    1    1    2  501    0 -0.24299772402E+02 -0.69706526877E+00 -0.12552731473E+04  0.12555085181E+04  0.00000000000E+00 0. -1.
          1    1    1    2  502    0  0.10839121863E+02  0.30238890781E+02 -0.20107066886E+02  0.37896849700E+02  0.00000000000E+00 0. -1.
         22    1    3    3    0    0 -0.31337206163E+02 -0.54736711011E+02 -0.35279855609E+03  0.35839217235E+03  0.00000000000E+00 0. -1.
         22    1    3    3    0    0  0.44797856703E+02  0.25194885499E+02 -0.99589198125E+02  0.11206979345E+03  0.00000000000E+00 0. -1.
</event>
<event>
 7    1  0.6508013E-006  0.1291930E+03  0.7818608E-02  0.1231631E+00
          2   -1    0    0  502    0  0.00000000000E+00  0.00000000000E+00  0.52661505532E+04  0.52661505532E+04  0.00000000000E+00 0. -1.
          1   -1    0    0  501    0 -0.00000000000E+00 -0.00000000000E+00 -0.22775657671E+03  0.22775657671E+03  0.00000000000E+00 0. -1.
         25    2    1    2    0    0  0.18969895080E+03  0.16744993225E+03  0.21645765925E+04  0.21828976122E+04  0.12499995457E+03 0.  0.
          2    1    1    2  501    0 -0.91342689926E+02 -0.89840661039E+02 -0.19843595162E+03  0.23620257889E+03  0.00000000000E+00 0. -1.
          1    1    1    2  502    0 -0.98356260875E+02 -0.77609271215E+02  0.30722533356E+04  0.30748069388E+04  0.00000000000E+00 0. -1.
         22    1    3    3    0    0  0.19825411711E+03  0.15918408566E+03  0.17726959576E+04  0.17908364599E+04  0.00000000000E+00 0.  1.
         22    1    3    3    0    0 -0.85551663128E+01  0.82658465973E+01  0.39188063490E+03  0.39206115225E+03  0.00000000000E+00 0.  1.
</event>
<event>
 7    1  0.6508013E-006  0.8219523E+02  0.7818608E-02  0.1384109E+00
          2   -1    0    0  502    0  0.00000000000E+00  0.00000000000E+00  0.47006073757E+03  0.47006073757E+03  0.00000000000E+00 0. -1.
          1   -1    0    0  501    0 -0.00000000000E+00 -0.00000000000E+00 -0.62696638605E+03  0.62696638605E+03  0.00000000000E+00 0. -1.
         25    2    1    2    0    0 -0.62957688592E+02 -0.63391174153E+02 -0.26031560948E+03  0.30227867456E+03  0.12500427608E+03 0.  0.
          2    1    1    2  501    0 -0.17404673075E+02  0.45694000922E+02 -0.34013666953E+03  0.34363326137E+03  0.00000000000E+00 0. -1.
          1    1    1    2  502    0  0.80362361667E+02  0.17697173231E+02  0.44354663053E+03  0.45111518770E+03  0.00000000000E+00 0. -1.
         22    1    3    3    0    0 -0.94885065914E+02 -0.66593256156E+02 -0.16456450563E+03  0.20129409830E+03  0.00000000000E+00 0. -1.
         22    1    3    3    0    0  0.31927377322E+02  0.32020820037E+01 -0.95751103853E+02  0.10098457625E+03  0.00000000000E+00 0. -1.
</event>
<event>
 7    1  0.6508013E-006  0.3426786E+03  0.7818608E-02  0.1204540E+00
          2   -1    0    0  502    0  0.00000000000E+00  0.00000000000E+00  0.24424665495E+04  0.24424665495E+04  0.00000000000E+00 0. -1.
          1   -1    0    0  501    0 -0.00000000000E+00 -0.00000000000E+00 -0.16712048825E+03  0.16712048825E+03  0.00000000000E+00 0. -1.
         25    2    1    2    0    0 -0.26568314622E+03  0.11682372889E+03  0.13121087521E+03  0.34216472384E+03  0.12500034660E+03 0.  0.
          2    1    1    2  501    0 -0.44839331189E+02  0.44018108279E+02 -0.26937774668E+02  0.68365219096E+02  0.00000000000E+00 0. -1.
          1    1    1    2  502    0  0.31052247741E+03 -0.16084183717E+03  0.21710729607E+04  0.21990570948E+04  0.00000000000E+00 0. -1.
         22    1    3    3    0    0 -0.12548476120E+03  0.99300103223E+02  0.12078878663E+03  0.20049156284E+03  0.00000000000E+00 0. -1.
         22    1    3    3    0    0 -0.14019838502E+03  0.17523625671E+02  0.10422088584E+02  0.14167316101E+03  0.00000000000E+00 0. -1.
</event>
<event>
 7    1  0.8117771E-006  0.7398167E+02  0.7818608E-02  0.1367426E+00
          2   -1    0    0  502    0  0.00000000000E+00  0.00000000000E+00  0.72041025508E+03  0.72041025508E+03  0.00000000000E+00 0. -1.
          1   -1    0    0  501    0 -0.00000000000E+00 -0.00000000000E+00 -0.20068850758E+04  0.20068850758E+04  0.00000000000E+00 0. -1.
         25    2    1    2    0    0 -0.11293451173E+03  0.48745114310E+02 -0.34263789410E+03  0.38490819089E+03  0.12499319515E+03 0.  0.
          2    1    1    2  501    0  0.62116153703E+02  0.47315281571E+01 -0.16405735429E+04  0.16417558752E+04  0.00000000000E+00 0. -1.
          1    1    1    2  502    0  0.50818358031E+02 -0.53476642467E+02  0.69673661628E+03  0.70063126484E+03  0.00000000000E+00 0. -1.
         22    1    3    3    0    0 -0.14054849945E+02 -0.12919261284E+02  0.37398748360E+01  0.19453348886E+02  0.00000000000E+00 0. -1.
         22    1    3    3    0    0 -0.98879661789E+02  0.61664375594E+02 -0.34637776893E+03  0.36545484200E+03  0.00000000000E+00 0. -1.
</event>
<event>
 7    1  0.6508013E-006  0.4446310E+02  0.7818608E-02  0.1509041E+00
          2   -1    0    0  502    0  0.00000000000E+00  0.00000000000E+00  0.12177107050E+04  0.12177107050E+04  0.00000000000E+00 0. -1.
          1   -1    0    0  501    0 -0.00000000000E+00 -0.00000000000E+00 -0.91128163836E+02  0.91128163836E+02  0.00000000000E+00 0. -1.
         25    2    1    2    0    0 -0.67719675326E+02  0.24004383264E+02  0.50879731419E+02  0.15289754968E+03  0.12500699496E+03 0.  0.
          2    1    1    2  501    0  0.23541782123E+02 -0.26947980047E+02 -0.31609102638E+02  0.47744575647E+02  0.00000000000E+00 0. -1.
          1    1    1    2  502    0  0.44177893204E+02  0.29435967825E+01  0.11073119124E+04  0.11081967435E+04  0.00000000000E+00 0. -1.
         22    1    3    3    0    0  0.11438674751E+01 -0.45541518425E+02  0.23544643100E+02  0.51280488999E+02  0.00000000000E+00 0. -1.
         22    1    3    3    0    0 -0.68863542802E+02  0.69545901689E+02  0.27335088319E+02  0.10161706069E+03  0.00000000000E+00 0. -1.
</event>
<event>
 7    1  0.6508013E-006  0.7760297E+02  0.7818608E-02  0.1344936E+00
          2   -1    0    0  502    0  0.00000000000E+00  0.00000000000E+00  0.43532541118E+03  0.43532541118E+03  0.00000000000E+00 0. -1.
          1   -1    0    0  501    0 -0.00000000000E+00 -0.00000000000E+00 -0.71855018665E+03  0.71855018665E+03  0.00000000000E+00 0. -1.
         25    2    1    2    0    0  0.32606410472E+02  0.79720811264E+02 -0.47216589891E+03  0.49596777944E+03  0.12499926558E+03 0.  0.
          2    1    1    2  501    0 -0.76230573711E+02 -0.15540183797E+02 -0.22431771278E+03  0.23742584937E+03  0.00000000000E+00 0. -1.
          1    1    1    2  502    0  0.43624163239E+02 -0.64180627467E+02  0.41325883622E+03  0.42048196902E+03  0.00000000000E+00 0. -1.
         22    1    3    3    0    0  0.14775516037E+02  0.11293501925E+03 -0.36557947973E+03  0.38291120439E+03  0.00000000000E+00 0. -1.
         22    1    3    3    0    0  0.17830894435E+02 -0.33214207984E+02 -0.10658641918E+03  0.11305657505E+03  0.00000000000E+00 0. -1.
</event>
<event>
 7    1  0.6508013E-006  0.5099288E+02  0.7818608E-02  0.1504808E+00
          2   -1    0    0  502    0  0.00000000000E+00  0.00000000000E+00  0.23930893785E+03  0.23930893785E+03  0.00000000000E+00 0. -1.
          1   -1    0    0  501    0 -0.00000000000E+00 -0.00000000000E+00 -0.37688868675E+03  0.37688868675E+03  0.00000000000E+00 0. -1.
         25    2    1    2    0    0  0.19294093859E+02  0.34416750788E+02 -0.26318324139E+03  0.29401887346E+03  0.12499961843E+03 0.  0.
          2    1    1    2  501    0 -0.10213491710E+00 -0.60163376104E+02 -0.87765437536E+02  0.10640683381E+03  0.00000000000E+00 0. -1.
          1    1    1    2  502    0 -0.19191958941E+02  0.25746625316E+02  0.21336893003E+03  0.21577191733E+03  0.00000000000E+00 0. -1.
         22    1    3    3    0    0 -0.26349431271E+02 -0.35472544681E+02 -0.12499604818E+03  0.13257679290E+03  0.00000000000E+00 0. -1.
         22    1    3    3    0    0  0.45643525130E+02  0.69889295469E+02 -0.13818719321E+03  0.16144208056E+03  0.00000000000E+00 0. -1.
</event>
<event>
 7    1  0.6508013E-006  0.1992992E+03  0.7818608E-02  0.1180089E+00
          2   -1    0    0  502    0  0.00000000000E+00  0.00000000000E+00  0.26957368159E+03  0.26957368159E+03  0.00000000000E+00 0. -1.
          1   -1    0    0  501    0 -0.00000000000E+00 -0.00000000000E+00 -0.10185874558E+04  0.10185874558E+04  0.00000000000E+00 0. -1.
         25    2    1    2    0    0  0.11976467133E+03 -0.22763410582E+02 -0.14121147650E+03  0.22455949406E+03  0.12499814366E+03 0.  0.
          2    1    1    2  501    0 -0.18321707387E+03  0.14912090053E+03 -0.79480066427E+03  0.82916441980E+03  0.00000000000E+00 0. -1.
          1    1    1    2  502    0  0.63452402540E+02 -0.12635748995E+03  0.18699836660E+03  0.23443722350E+03  0.00000000000E+00 0. -1.
         22    1    3    3    0    0 -0.20851705623E+02 -0.57495292793E+01 -0.54125543532E+02  0.58287435841E+02  0.00000000000E+00 0.  1.
         22    1    3    3    0    0  0.14061637695E+03 -0.17013881303E+02 -0.87085932969E+02  0.16627205822E+03  0.00000000000E+00 0.  1.
</event>
<event>
 7    1  0.6508013E-006  0.9843451E+02  0.7818608E-02  0.1401086E+00
          2   -1    0    0  502    0  0.00000000000E+00  0.00000000000E+00  0.53185709501E+03  0.53185709501E+03  0.00000000000E+00 0. -1.
          1   -1    0    0  501    0 -0.00000000000E+00 -0.00000000000E+00 -0.27930516605E+03  0.27930516605E+03  0.00000000000E+00 0. -1.
         25    2    1    2    0    0 -0.65795555518E+02 -0.17348693005E+02  0.20420115227E+03  0.24891041331E+03  0.12501300329E+03 0.  0.
          2    1    1    2  501    0  0.89657158468E+02  0.43824078575E+02 -0.24614581801E+03  0.26560632457E+03  0.00000000000E+00 0. -1.
          1    1    1    2  502    0 -0.23861602951E+02 -0.26475385569E+02  0.29449659469E+03  0.29664552318E+03  0.00000000000E+00 0. -1.
         22    1    3    3    0    0  0.85185039918E+01  0.15765721260E+02 -0.94742323943E+01  0.20270272731E+02  0.00000000000E+00 0.  1.
         22    1    3    3    0    0 -0.74314059510E+02 -0.33114414266E+02  0.21367538466E+03  0.22864014058E+03  0.00000000000E+00 0.  1.
</event>
<event>
 7    1  0.6508013E-006  0.1035450E+03  0.7818608E-02  0.1283058E+00
          2   -1    0    0  502    0  0.00000000000E+00  0.00000000000E+00  0.16481064856E+04  0.16481064856E+04  0.00000000000E+00 0. -1.
          1   -1    0    0  501    0 -0.00000000000E+00 -0.00000000000E+00 -0.57651002024E+02  0.57651002024E+02  0.00000000000E+00 0. -1.
         25    2    1    2    0    0  0.96410063404E+02 -0.91203621296E+02  0.26390918215E+03  0.32077208455E+03  0.12503468696E+03 0.  0.
          2    1    1    2  501    0 -0.10312089349E+03 -0.26345648240E+01  0.69407249099E+02  0.12433111370E+03  0.00000000000E+00 0. -1.
          1    1    1    2  502    0  0.67108300897E+01  0.93838186120E+02  0.12571390524E+04  0.12606542894E+04  0.00000000000E+00 0. -1.
         22    1    3    3    0    0  0.75688340288E+02  0.65286454316E+01  0.15720188524E+03  0.17459605032E+03  0.00000000000E+00 0.  1.
         22    1    3    3    0    0  0.20721723117E+02 -0.97732266728E+02  0.10670729691E+03  0.14617603423E+03  0.00000000000E+00 0.  1.
</event>
<event>
 7    1  0.6508013E-006  0.3187494E+02  0.7818608E-02  0.1608606E+00
          2   -1    0    0  502    0  0.00000000000E+00  0.00000000000E+00  0.18196706675E+04  0.18196706675E+04  0.00000000000E+00 0. -1.
          1   -1    0    0  501    0 -0.00000000000E+00 -0.00000000000E+00 -0.79710013078E+02  0.79710013078E+02  0.00000000000E+00 0. -1.
         25    2    1    2    0    0 -0.40007670360E+02 -0.26325473466E+00  0.13367205723E+03  0.18733892581E+03  0.12500788474E+03 0.  0.
          2    1    1    2  501    0  0.23815347940E+02  0.21255068735E+02 -0.47943088742E+02  0.57597643203E+02  0.00000000000E+00 0. -1.
          1    1    1    2  502    0  0.16192322420E+02 -0.20991814000E+02  0.16542316859E+04  0.16544441116E+04  0.00000000000E+00 0. -1.
         22    1    3    3    0    0 -0.13333795634E+02  0.61989233363E+02  0.60624933503E+02  0.87725923884E+02  0.00000000000E+00 0.  1.
         22    1    3    3    0    0 -0.26673874725E+02 -0.62252488098E+02  0.73047123729E+02  0.99613001924E+02  0.00000000000E+00 0.  1.
</event>
<event>
 7    1  0.6508013E-006  0.1130274E+03  0.7818608E-02  0.1362777E+00
          2   -1    0    0  502    0  0.00000000000E+00  0.00000000000E+00  0.69161395462E+03  0.69161395462E+03  0.00000000000E+00 0. -1.
          1   -1    0    0  501    0 -0.00000000000E+00 -0.00000000000E+00 -0.21455355888E+04  0.21455355888E+04  0.00000000000E+00 0. -1.
         25    2    1    2    0    0  0.13128655895E+03  0.73079460983E+02  0.57423868572E+02  0.20371338162E+03  0.12499949196E+03 0.  0.
          2    1    1    2  501    0 -0.29555070022E+02 -0.30384378278E+02 -0.20667475395E+04  0.20671821654E+04  0.00000000000E+00 0. -1.
          1    1    1    2  502    0 -0.10173148893E+03 -0.42695082705E+02  0.55540203683E+03  0.56625399640E+03  0.00000000000E+00 0. -1.
         22    1    3    3    0    0  0.56997319537E+01  0.68434789483E+02  0.30745300252E+02  0.75240154462E+02  0.00000000000E+00 0. -1.
         22    1    3    3    0    0  0.12558682699E+03  0.46446715006E+01  0.26678568320E+02  0.12847322715E+03  0.00000000000E+00 0. -1.
</event>
<event>
 7    1  0.6508013E-006  0.9002794E+02  0.7818608E-02  0.1427798E+00
          2   -1    0    0  502    0  0.00000000000E+00  0.00000000000E+00  0.73043551104E+02  0.73043551104E+02  0.00000000000E+00 0. -1.
          1   -1    0    0  501    0 -0.00000000000E+00 -0.00000000000E+00 -0.47513084743E+03  0.47513084743E+03  0.00000000000E+00 0. -1.
         25    2    1    2    0    0 -0.12365083180E+01 -0.62194414329E+02 -0.52441394226E+02  0.14914591436E+03  0.12499891925E+03 0.  0.
          2    1    1    2  501    0 -0.39591989490E+01  0.93444916709E+02 -0.35481059878E+03  0.36693076830E+03  0.00000000000E+00 0. -1.
          1    1    1    2  502    0  0.51957072671E+01 -0.31250502380E+02  0.51646966819E+01  0.32097715881E+02  0.00000000000E+00 0. -1.
         22    1    3    3    0    0  0.29157734699E+02 -0.57888175860E+02 -0.83348136962E+02  0.10558468796E+03  0.00000000000E+00 0.  1.
         22    1    3    3    0    0 -0.30394243017E+02 -0.43062384687E+01  0.30906742736E+02  0.43561226393E+02  0.00000000000E+00 0.  1.
</event>
<event>
 7    1  0.6508013E-006  0.9255119E+02  0.7818608E-02  0.1463868E+00
          2   -1    0    0  502    0  0.00000000000E+00  0.00000000000E+00  0.12584685421E+04  0.12584685421E+04  0.00000000000E+00 0. -1.
          1   -1    0    0  501    0 -0.00000000000E+00 -0.00000000000E+00 -0.58452932263E+03  0.58452932263E+03  0.00000000000E+00 0. -1.
         25    2    1    2    0    0 -0.46161225946E+02  0.51557324181E+02  0.47903975086E+03  0.49989224452E+03  0.12499662700E+03 0.  0.
          2    1    1    2  501    0  0.63283032233E+02 -0.67779838267E+02 -0.57017567439E+03  0.57766698738E+03  0.00000000000E+00 0. -1.
          1    1    1    2  502    0 -0.17121806287E+02  0.16222514086E+02  0.76507514298E+03  0.76543863283E+03  0.00000000000E+00 0. -1.
         22    1    3    3    0    0 -0.44676956353E+02  0.54242735816E+02  0.48664433413E+03  0.49169198973E+03  0.00000000000E+00 0.  1.
         22    1    3    3    0    0 -0.14842695935E+01 -0.26854116349E+01 -0.76045832702E+01  0.82002547881E+01  0.00000000000E+00 0.  1.
</event>
<event>
 7    1  0.6508013E-006  0.4753886E+02  0.7818608E-02  0.1569904E+00
          2   -1    0    0  502    0  0.00000000000E+00  0.00000000000E+00  0.47950125540E+03  0.47950125540E+03  0.00000000000E+00 0. -1.
          1   -1    0    0  501    0 -0.00000000000E+00 -0.00000000000E+00 -0.47341907149E+02  0.47341907149E+02  0.00000000000E+00 0. -1.
         25    2    1    2    0    0  0.28146759070E+02  0.51035936553E+01  0.14465731262E+03  0.19331094321E+03  0.12500038382E+03 0.  0.
          2    1    1    2  501    0 -0.50619161545E+02 -0.37964804794E+01  0.59807970547E+01  0.51112451643E+02  0.00000000000E+00 0. -1.
          1    1    1    2  502    0  0.22472402475E+02 -0.13071131759E+01  0.28152123857E+03  0.28241976769E+03  0.00000000000E+00 0. -1.
         22    1    3    3    0    0  0.14823939866E+02 -0.59335654068E+02  0.83298187693E+02  0.10333952346E+03  0.00000000000E+00 0. -1.
         22    1    3    3    0    0  0.13322819204E+02  0.64439247723E+02  0.61359124931E+02  0.89971419745E+02  0.00000000000E+00 0. -1.
</event>
<event>
 7    1  0.6508013E-006  0.4708627E+02  0.7818608E-02  0.1575266E+00
          2   -1    0    0  502    0  0.00000000000E+00  0.00000000000E+00  0.97020356462E+03  0.97020356462E+03  0.00000000000E+00 0. -1.
          1   -1    0    0  501    0 -0.00000000000E+00 -0.00000000000E+00 -0.86412006940E+02  0.86412006940E+02  0.00000000000E+00 0. -1.
         25    2    1    2    0    0 -0.46541269352E+02  0.20669657795E+02  0.28051813303E+03  0.31130512001E+03  0.12500852084E+03 0.  0.
          2    1    1    2  501    0  0.30610931074E+02 -0.35813230785E+02 -0.63003790002E+02  0.78670796075E+02  0.00000000000E+00 0. -1.
          1    1    1    2  502    0  0.15930338278E+02  0.15143572990E+02  0.66627721466E+03  0.66663965548E+03  0.00000000000E+00 0. -1.
         22    1    3    3    0    0  0.28077557697E+02  0.90632381524E+00  0.19120151828E+03  0.19325421409E+03  0.00000000000E+00 0. -1.
         22    1    3    3    0    0 -0.74618827050E+02  0.19763333980E+02  0.89316614747E+02  0.11805090593E+03  0.00000000000E+00 0. -1.
</event>
<event>
 7    1  0.6508013E-006  0.1310572E+03  0.7818608E-02  0.1352371E+00
          2   -1    0    0  502    0  0.00000000000E+00  0.00000000000E+00  0.29602697912E+03  0.29602697912E+03  0.00000000000E+00 0. -1.
          1   -1    0    0  501    0 -0.00000000000E+00 -0.00000000000E+00 -0.67868013069E+03  0.67868013069E+03  0.00000000000E+00 0. -1.
         25    2    1    2    0    0 -0.10332188667E+03 -0.93027759986E+02  0.24111118663E+01  0.18697798073E+03  0.12500150169E+03 0.  0.
          2    1    1    2  501    0  0.68078588254E+02  0.11175440219E+03 -0.57701816547E+03  0.59167026617E+03  0.00000000000E+00 0. -1.
          1    1    1    2  502    0  0.35243298421E+02 -0.18726642204E+02  0.19195390204E+03  0.19605886290E+03  0.00000000000E+00 0. -1.
         22    1    3    3    0    0 -0.29861318415E+02 -0.48189414286E+02  0.60681803580E+02  0.83043357787E+02  0.00000000000E+00 0.  1.
         22    1    3    3    0    0 -0.73460568260E+02 -0.44838345700E+02 -0.58270691714E+02  0.10393462295E+03  0.00000000000E+00 0.  1.
</event>
<event>
 7    1  0.6508013E-006  0.2177157E+03  0.7818608E-02  0.1287610E+00
          2   -1    0    0  502    0  0.00000000000E+00  0.00000000000E+00  0.84791401371E+03  0.84791401371E+03  0.00000000000E+00 0. -1.
          1   -1    0    0  501    0 -0.00000000000E+00 -0.00000000000E+00 -0.19201902692E+04  0.19201902692E+04  0.00000000000E+00 0. -1.
         25    2    1    2    0    0  0.24757751467E+02  0.24439067609E+03 -0.13701829724E+03  0.30779598641E+03  0.12499842659E+03 0.  0.
          2    1    1    2  501    0  0.25568754031E+02 -0.34400644516E+02 -0.16822171181E+04  0.16827630843E+04  0.00000000000E+00 0. -1.
          1    1    1    2  502    0 -0.50326505498E+02 -0.20999003158E+03  0.74695915985E+03  0.77754521219E+03  0.00000000000E+00 0. -1.
         22    1    3    3    0    0  0.73563327706E+02  0.18270178444E+03 -0.97988857925E+02  0.21998482106E+03  0.00000000000E+00 0. -1.
         22    1    3    3    0    0 -0.48805576239E+02  0.61688891652E+02 -0.39029439319E+02  0.87811165342E+02  0.00000000000E+00 0. -1.
</event>
<event>
 7    1  0.6508013E-006  0.9271706E+02  0.7818608E-02  0.1313100E+00
          2   -1    0    0  502    0  0.00000000000E+00  0.00000000000E+00  0.97054871272E+03  0.97054871272E+03  0.00000000000E+00 0. -1.
          1   -1    0    0  501    0 -0.00000000000E+00 -0.00000000000E+00 -0.43583964658E+03  0.43583964658E+03  0.00000000000E+00 0. -1.
         25    2    1    2    0    0  0.19580879125E+02 -0.11516443969E+03 -0.12626249731E+03  0.21262693649E+03  0.12498694692E+03 0.  0.
          2    1    1    2  501    0  0.53932668733E+02  0.58518842435E+02 -0.25806191018E+03  0.27005395232E+03  0.00000000000E+00 0. -1.
          1    1    1    2  502    0 -0.73513547857E+02  0.56645597257E+02  0.91903347362E+03  0.92370747050E+03  0.00000000000E+00 0. -1.
         22    1    3    3    0    0 -0.26858758534E+02 -0.31583897635E+02  0.13221454665E+02  0.43517150220E+02  0.00000000000E+00 0. -1.
         22    1    3    3    0    0  0.46439637658E+02 -0.83580542057E+02 -0.13948395197E+03  0.16910978627E+03  0.00000000000E+00 0. -1.
</event>
<event>
 7    1  0.6508013E-006  0.9962295E+02  0.7818608E-02  0.1362679E+00
          2   -1    0    0  502    0  0.00000000000E+00  0.00000000000E+00  0.18192911326E+04  0.18192911326E+04  0.00000000000E+00 0. -1.
          1   -1    0    0  501    0 -0.00000000000E+00 -0.00000000000E+00 -0.21962384736E+04  0.21962384736E+04  0.00000000000E+00 0. -1.
         25    2    1    2    0    0  0.54590400949E+02 -0.16570653506E+02  0.60528090228E+02  0.15013962794E+03  0.12499423882E+03 0.  0.
          2    1    1    2  501    0 -0.83748652913E+02  0.54863513081E+02 -0.21499296106E+04  0.21522595504E+04  0.00000000000E+00 0. -1.
          1    1    1    2  502    0  0.29158251964E+02 -0.38292859575E+02  0.17124541793E+04  0.17131304278E+04  0.00000000000E+00 0. -1.
         22    1    3    3    0    0  0.75385418625E+01  0.52528936071E+02  0.31125499931E+02  0.61521666786E+02  0.00000000000E+00 0. -1.
         22    1    3    3    0    0  0.47051859086E+02 -0.69099589577E+02  0.29402590296E+02  0.88617961155E+02  0.00000000000E+00 0. -1.
</event>
<event>
 7    1  0.6508013E-006  0.4481320E+02  0.7818608E-02  0.1589021E+00
          2   -1    0    0  502    0  0.00000000000E+00  0.00000000000E+00  0.27427143519E+03  0.27427143519E+03  0.00000000000E+00 0. -1.
          1   -1    0    0  501    0 -0.00000000000E+00 -0.00000000000E+00 -0.13363613550E+04  0.13363613550E+04  0.00000000000E+00 0. -1.
         25    2    1    2    0    0  0.53448874030E+02  0.34690510679E+02 -0.20967788685E+03  0.25228417755E+03  0.12498910488E+03 0.  0.
          2    1    1    2  501    0 -0.32746859173E+02 -0.30034696234E+02 -0.11044878365E+04  0.11053813010E+04  0.00000000000E+00 0. -1.
          1    1    1    2  502    0 -0.20702014857E+02 -0.46558144443E+01  0.25207580351E+03  0.25296731161E+03  0.00000000000E+00 0. -1.
         22    1    3    3    0    0  0.78660189525E+02  0.17663740825E+02 -0.20652057069E+03  0.22169839709E+03  0.00000000000E+00 0. -1.
         22    1    3    3    0    0 -0.25211315495E+02  0.17026769853E+02 -0.31573161648E+01  0.30585780454E+02  0.00000000000E+00 0. -1.
</event>
<event>
 7    1  0.6508013E-006  0.5371416E+02  0.7818608E-02  0.1444955E+00
          2   -1    0    0  502    0  0.00000000000E+00  0.00000000000E+00  0.18907236838E+03  0.18907236838E+03  0.00000000000E+00 0. -1.
          1   -1    0    0  501    0 -0.00000000000E+00 -0.00000000000E+00 -0.34910691955E+03  0.34910691955E+03  0.00000000000E+00 0. -1.
         25    2    1    2    0    0 -0.25010632215E+01 -0.96882467743E+01  0.48472068044E+02  0.13444032141E+03  0.12499816477E+03 0.  0.
          2    1    1    2  501    0 -0.52289543532E+02  0.12288819453E+02 -0.29580271106E+03  0.30064007603E+03  0.00000000000E+00 0. -1.
          1    1    1    2  502    0  0.54790606754E+02 -0.26005726790E+01  0.87296091848E+02  0.10309889048E+03  0.00000000000E+00 0. -1.
         22    1    3    3    0    0 -0.62026907535E+02 -0.18743549853E+02  0.19823934316E+02  0.67761687488E+02  0.00000000000E+00 0. -1.
         22    1    3    3    0    0  0.59525844313E+02  0.90553030791E+01  0.28648133727E+02  0.66678633918E+02  0.00000000000E+00 0. -1.
</event>
<event>
 7    1  0.6508013E-006  0.6993050E+02  0.7818608E-02  0.1367045E+00
          2   -1    0    0  502    0  0.00000000000E+00  0.00000000000E+00  0.12802019814E+04  0.12802019814E+04  0.00000000000E+00 0. -1.
          1   -1    0    0  501    0 -0.00000000000E+00 -0.00000000000E+00 -0.20783843332E+03  0.20783843332E+03  0.00000000000E+00 0. -1.
         25    2    1    2    0    0  0.55567136302E+02 -0.26813299189E+02  0.63788441509E+03  0.65293826472E+03  0.12500076345E+03 0.  0.
          2    1    1    2  501    0  0.14669429934E+02  0.64466077868E+02 -0.19226343670E+03  0.20331329632E+03  0.00000000000E+00 0. -1.
          1    1    1    2  502    0 -0.70236566236E+02 -0.37652778679E+02  0.62674256965E+03  0.63178885365E+03  0.00000000000E+00 0. -1.
         22    1    3    3    0    0  0.45516463411E+02  0.12057976462E+02  0.74551205440E+02  0.88176104872E+02  0.00000000000E+00 0.  1.
         22    1    3    3    0    0  0.10050672891E+02 -0.38871275650E+02  0.56333320965E+03  0.56476215985E+03  0.00000000000E+00 0.  1.
</event>
<event>
 7    1  0.6508013E-006  0.4285163E+02  0.7818608E-02  0.1581363E+00
          2   -1    0    0  502    0  0.00000000000E+00  0.00000000000E+00  0.11620617022E+04  0.11620617022E+04  0.00000000000E+00 0. -1.
          1   -1    0    0  501    0 -0.00000000000E+00 -0.00000000000E+00 -0.24007964660E+03  0.24007964660E+03  0.00000000000E+00 0. -1.
         25    2    1    2    0    0  0.57604593766E+02  0.25382340039E+02  0.65435201207E+03  0.66915169372E+03  0.12499952440E+03 0.  0.
          2    1    1    2  501    0 -0.22863576763E+02 -0.42618415889E+01 -0.23126960349E+03  0.23243609000E+03  0.00000000000E+00 0. -1.
          1    1    1    2  502    0 -0.34741017003E+02 -0.21120498451E+02  0.49889964698E+03  0.50055356504E+03  0.00000000000E+00 0. -1.
         22    1    3    3    0    0  0.21374767025E+02  0.32977736837E+02  0.49664822835E+02  0.63332506815E+02  0.00000000000E+00 0. -1.
         22    1    3    3    0    0  0.36229826741E+02 -0.75953967976E+01  0.60468718924E+03  0.60581918691E+03  0.00000000000E+00 0. -1.
</event>
<event>
 7    1  0.6508013E-006  0.9568762E+02  0.7818608E-02  0.1310842E+00
          2   -1    0    0  502    0  0.00000000000E+00  0.00000000000E+00  0.47725985993E+03  0.47725985993E+03  0.00000000000E+00 0. -1.
          1   -1    0    0  501    0 -0.00000000000E+00 -0.00000000000E+00 -0.49439943241E+03  0.49439943241E+03  0.00000000000E+00 0. -1.
         25    2    1    2    0    0  0.37137412488E+02  0.10326805085E+02 -0.95784292338E+02  0.16212860041E+03  0.12500088841E+03 0.  0.
          2    1    1    2  501    0  0.59206671938E+01  0.78478998846E+02 -0.35560340691E+03  0.36420844385E+03  0.00000000000E+00 0. -1.
          1    1    1    2  502    0 -0.43058079682E+02 -0.88805803931E+02  0.43424812677E+03  0.44532224809E+03  0.00000000000E+00 0. -1.
         22    1    3    3    0    0  0.12954737093E+02  0.53962198658E+02 -0.97525915327E+02  0.11220984029E+03  0.00000000000E+00 0. -1.
         22    1    3    3    0    0  0.24182675395E+02 -0.43635393573E+02  0.17416229884E+01  0.49918760122E+02  0.00000000000E+00 0. -1.
</event>
<event>
 7    1  0.6508013E-006  0.6708615E+02  0.7818608E-02  0.1414512E+00
          2   -1    0    0  502    0  0.00000000000E+00  0.00000000000E+00  0.27788779600E+03  0.27788779600E+03  0.00000000000E+00 0. -1.
          1   -1    0    0  501    0 -0.00000000000E+00 -0.00000000000E+00 -0.75276537400E+03  0.75276537400E+03  0.00000000000E+00 0. -1.
         25    2    1    2    0    0 -0.78533896529E+02 -0.65337445900E+02 -0.12658747622E+03  0.20514792657E+03  0.12499891159E+03 0.  0.
          2    1    1    2  501    0  0.62230502924E+02  0.21171773578E+02 -0.58270938869E+03  0.58640524483E+03  0.00000000000E+00 0. -1.
          1    1    1    2  502    0  0.16303393606E+02  0.44165672322E+02  0.23441928691E+03  0.23909999860E+03  0.00000000000E+00 0. -1.
         22    1    3    3    0    0 -0.85040128473E+02 -0.36779264207E+02 -0.20236059450E+02  0.94836890651E+02  0.00000000000E+00 0. -1.
         22    1    3    3    0    0  0.65062319437E+01 -0.28558181693E+02 -0.10635141677E+03  0.11031103592E+03  0.00000000000E+00 0. -1.
</event>
<event>
 7    1  0.6508013E-006  0.9215817E+02  0.7818608E-02  0.1360804E+00
          2   -1    0    0  502    0  0.00000000000E+00  0.00000000000E+00  0.83619427135E+03  0.83619427135E+03  0.00000000000E+00 0. -1.
          1   -1    0    0  501    0 -0.00000000000E+00 -0.00000000000E+00 -0.74852728269E+03  0.74852728269E+03  0.00000000000E+00 0. -1.
         25    2    1    2    0    0 -0.43759812865E+02  0.30641030056E+02 -0.73629217896E+02  0.15459549788E+03  0.12499884916E+03 0.  0.
          2    1    1    2  501    0  0.21682325410E+01  0.52808547438E+02 -0.63057414064E+03  0.63278526433E+03  0.00000000000E+00 0. -1.
          1    1    1    2  502    0  0.41591580324E+02 -0.83449577494E+02  0.79187034720E+03  0.79734079183E+03  0.00000000000E+00 0. -1.
         22    1    3    3    0    0 -0.41243348284E+02 -0.84220436680E+01 -0.99253014995E+02  0.10781050776E+03  0.00000000000E+00 0.  1.
         22    1    3    3    0    0 -0.25164645813E+01  0.39063073724E+02  0.25623797099E+02  0.46784990120E+02  0.00000000000E+00 0.  1.
</event>
<event>
 7    1  0.6508013E-006  0.7532572E+02  0.7818608E-02  0.1454478E+00
          2   -1    0    0  502    0  0.00000000000E+00  0.00000000000E+00  0.10893854441E+03  0.10893854441E+03  0.00000000000E+00 0. -1.
          1   -1    0    0  501    0 -0.00000000000E+00 -0.00000000000E+00 -0.15434626213E+04  0.15434626213E+04  0.00000000000E+00 0. -1.
         25    2    1    2    0    0  0.36417442736E+02  0.60092493408E+02 -0.89787057072E+02  0.16918719195E+03  0.12500100961E+03 0.  0.
          2    1    1    2  501    0 -0.26413519384E+02  0.16281751719E+02 -0.13923263214E+04  0.13926720198E+04  0.00000000000E+00 0. -1.
          1    1    1    2  502    0 -0.10003923352E+02 -0.76374245126E+02  0.47589301588E+02  0.90541953959E+02  0.00000000000E+00 0. -1.
         22    1    3    3    0    0  0.74335940356E+02  0.53382400203E+02 -0.93084972298E+02  0.13053859486E+03  0.00000000000E+00 0. -1.
         22    1    3    3    0    0 -0.37918497620E+02  0.67100932048E+01  0.32979152265E+01  0.38648597095E+02  0.00000000000E+00 0. -1.
</event>
<event>
 7    1  0.6508013E-006  0.1121445E+03  0.7818608E-02  0.1303790E+00
          2   -1    0    0  502    0  0.00000000000E+00  0.00000000000E+00  0.27732482012E+03  0.27732482012E+03  0.00000000000E+00 0. -1.
          1   -1    0    0  501    0 -0.00000000000E+00 -0.00000000000E+00 -0.80219114544E+03  0.80219114544E+03  0.00000000000E+00 0. -1.
         25    2    1    2    0    0 -0.11266552642E+03 -0.12483769939E+03 -0.69408548383E+02  0.22072775634E+03  0.12500089518E+03 0.  0.
          2    1    1    2  501    0  0.65680614582E+02  0.28530437860E+02 -0.64075144193E+03  0.64474052095E+03  0.00000000000E+00 0. -1.
          1    1    1    2  502    0  0.46984911842E+02  0.96307261527E+02  0.18529366500E+03  0.21404768827E+03  0.00000000000E+00 0. -1.
         22    1    3    3    0    0  0.22300753721E+02 -0.28907573147E+02 -0.37038974298E+02  0.52008239912E+02  0.00000000000E+00 0. -1.
         22    1    3    3    0    0 -0.13496628014E+03 -0.95930126240E+02 -0.32369574085E+02  0.16871951643E+03  0.00000000000E+00 0. -1.
</event>
<event>
 7    1  0.6508013E-006  0.5158220E+02  0.7818608E-02  0.1471373E+00
          2   -1    0    0  502    0  0.00000000000E+00  0.00000000000E+00  0.24513761715E+03  0.24513761715E+03  0.00000000000E+00 0. -1.
          1   -1    0    0  501    0 -0.00000000000E+00 -0.00000000000E+00 -0.95301437029E+03  0.95301437029E+03  0.00000000000E+00 0. -1.
         25    2    1    2    0    0 -0.40983458933E+02  0.76645312373E+02 -0.25949282757E+02  0.15444576636E+03  0.12500392656E+03 0.  0.
          2    1    1    2  501    0  0.11017502521E+02 -0.50001697071E+02 -0.85982375645E+03  0.86134687973E+03  0.00000000000E+00 0. -1.
          1    1    1    2  502    0  0.29965956413E+02 -0.26643615302E+02  0.17789628607E+03  0.18235934135E+03  0.00000000000E+00 0. -1.
         22    1    3    3    0    0 -0.67131274540E+02  0.40593241436E+01  0.12241286902E+02  0.68358870960E+02  0.00000000000E+00 0.  1.
         22    1    3    3    0    0  0.26147815606E+02  0.72585988229E+02 -0.38190569660E+02  0.86086895397E+02  0.00000000000E+00 0.  1.
</event>
<event>
 7    1  0.6508013E-006  0.8284982E+02  0.7818608E-02  0.1350584E+00
          2   -1    0    0  502    0  0.00000000000E+00  0.00000000000E+00  0.28236174948E+03  0.28236174948E+03  0.00000000000E+00 0. -1.
          1   -1    0    0  501    0 -0.00000000000E+00 -0.00000000000E+00 -0.97509739480E+03  0.97509739480E+03  0.00000000000E+00 0. -1.
         25    2    1    2    0    0 -0.43266151587E+02  0.24266690603E+02 -0.23635482667E+03  0.27193556331E+03  0.12499805741E+03 0.  0.
          2    1    1    2  501    0 -0.35799369794E+02 -0.53170569939E+02 -0.71278093600E+03  0.71565729725E+03  0.00000000000E+00 0. -1.
          1    1    1    2  502    0  0.79065521382E+02  0.28903879336E+02  0.25640011735E+03  0.26986628372E+03  0.00000000000E+00 0. -1.
         22    1    3    3    0    0 -0.82625182620E+02  0.16289110081E+02 -0.20284321243E+03  0.21963065528E+03  0.00000000000E+00 0.  1.
         22    1    3    3    0    0  0.39359031033E+02  0.79775805213E+01 -0.33511614237E+02  0.52304908026E+02  0.00000000000E+00 0.  1.
</event>
<event>
 7    1  0.6508013E-006  0.6672858E+02  0.7818608E-02  0.1460979E+00
          2   -1    0    0  502    0  0.00000000000E+00  0.00000000000E+00  0.22020694280E+03  0.22020694280E+03  0.00000000000E+00 0. -1.
          1   -1    0    0  501    0 -0.00000000000E+00 -0.00000000000E+00 -0.11881336195E+04  0.11881336195E+04  0.00000000000E+00 0. -1.
         25    2    1    2    0    0 -0.52331329264E+02  0.40962509229E+02 -0.10424182529E+04  0.10519871885E+04  0.12499894231E+03 0.  0.
          2    1    1    2  501    0 -0.13616050284E+02 -0.30504683046E+02 -0.13365122583E+03  0.13776277683E+03  0.00000000000E+00 0. -1.
          1    1    1    2  502    0  0.65947379548E+02 -0.10457826183E+02  0.20814280210E+03  0.21859059692E+03  0.00000000000E+00 0. -1.
         22    1    3    3    0    0 -0.19269941203E+02  0.72978844674E+01 -0.92790628941E+03  0.92813505035E+03  0.00000000000E+00 0.  1.
         22    1    3    3    0    0 -0.33061388062E+02  0.33664624761E+02 -0.11451196352E+03  0.12385213817E+03  0.00000000000E+00 0.  1.
</event>
<event>
 7    1  0.6508013E-006  0.1044751E+03  0.7818608E-02  0.1419001E+00
          2   -1    0    0  502    0  0.00000000000E+00  0.00000000000E+00  0.19906079080E+04  0.19906079080E+04  0.00000000000E+00 0. -1.
          1   -1    0    0  501    0 -0.00000000000E+00 -0.00000000000E+00 -0.12205341900E+03  0.12205341900E+03  0.00000000000E+00 0. -1.
         25    2    1    2    0    0  0.10755604496E+03 -0.53113887498E+02  0.47909560650E+03  0.50945840348E+03  0.12500350738E+03 0.  0.
          2    1    1    2  501    0 -0.27035307648E+02 -0.11033021916E+02 -0.10307070895E+03  0.10712705763E+03  0.00000000000E+00 0. -1.
          1    1    1    2  502    0 -0.80520737314E+02  0.64146909414E+02  0.14925295914E+04  0.14960758658E+04  0.00000000000E+00 0. -1.
         22    1    3    3    0    0  0.12995313308E+03 -0.28035331124E+02  0.42898543360E+03  0.44911279077E+03  0.00000000000E+00 0. -1.
         22    1    3    3    0    0 -0.22397088119E+02 -0.25078556373E+02  0.50110172895E+02  0.60345612712E+02  0.00000000000E+00 0. -1.
</event>
<event>
 7    1  0.6508013E-006  0.7441685E+02  0.7818608E-02  0.1368784E+00
          2   -1    0    0  502    0  0.00000000000E+00  0.00000000000E+00  0.33196313043E+04  0.33196313043E+04  0.00000000000E+00 0. -1.
          1   -1    0    0  501    0 -0.00000000000E+00 -0.00000000000E+00 -0.72107046361E+03  0.72107046361E+03  0.00000000000E+00 0. -1.
         25    2    1    2    0    0 -0.18970275667E+02  0.20673329817E+02  0.81432655878E+03  0.82434248506E+03  0.12500212167E+03 0.  0.
          2    1    1    2  501    0 -0.60942374166E+02 -0.60041726866E+01 -0.71409165125E+03  0.71671257101E+03  0.00000000000E+00 0. -1.
          1    1    1    2  502    0  0.79912649833E+02 -0.14669157131E+02  0.24983259332E+04  0.24996467119E+04  0.00000000000E+00 0. -1.
         22    1    3    3    0    0  0.19439176166E+02 -0.47001113873E+01  0.71034851530E+03  0.71062999220E+03  0.00000000000E+00 0.  1.
         22    1    3    3    0    0 -0.38409451833E+02  0.25373441204E+02  0.10397804348E+03  0.11371249287E+03  0.00000000000E+00 0.  1.
</event>
<event>
 7    1  0.6508013E-006  0.9682002E+02  0.7818608E-02  0.1296921E+00
          2   -1    0    0  502    0  0.00000000000E+00  0.00000000000E+00  0.24309480068E+03  0.24309480068E+03  0.00000000000E+00 0. -1.
          1   -1    0    0  501    0 -0.00000000000E+00 -0.00000000000E+00 -0.58828300935E+03  0.58828300935E+03  0.00000000000E+00 0. -1.
         25    2    1    2    0    0  0.44554735245E+01  0.32404633779E+02 -0.70577405762E+02  0.14722795712E+03  0.12499995848E+03 0.  0.
          2    1    1    2  501    0 -0.98783157437E+02 -0.10577929559E+02 -0.46235632146E+03  0.47290947631E+03  0.00000000000E+00 0. -1.
          1    1    1    2  502    0  0.94327683912E+02 -0.21826704220E+02  0.18774551855E+03  0.21124037660E+03  0.00000000000E+00 0. -1.
         22    1    3    3    0    0 -0.25638898972E+02 -0.39601520681E+02 -0.44746465684E+02  0.65022148318E+02  0.00000000000E+00 0. -1.
         22    1    3    3    0    0  0.30094372496E+02  0.72006154460E+02 -0.25830940078E+02  0.82205808805E+02  0.00000000000E+00 0. -1.
</event>
<event>
 7    1  0.6508013E-006  0.1585718E+03  0.7818608E-02  0.1231236E+00
          2   -1    0    0  502    0  0.00000000000E+00  0.00000000000E+00  0.12834102068E+04  0.12834102068E+04  0.00000000000E+00 0. -1.
          1   -1    0    0  501    0 -0.00000000000E+00 -0.00000000000E+00 -0.11823631483E+04  0.11823631483E+04  0.00000000000E+00 0. -1.
         25    2    1    2    0    0 -0.22299695313E+03  0.12909033380E+03  0.57759057720E+02  0.29215196412E+03  0.12499882400E+03 0.  0.
          2    1    1    2  501    0  0.13679124016E+03 -0.73653349381E+02 -0.10571075894E+04  0.10684629683E+04  0.00000000000E+00 0. -1.
          1    1    1    2  502    0  0.86205712970E+02 -0.55436984423E+02  0.11003955902E+04  0.11051584226E+04  0.00000000000E+00 0. -1.
         22    1    3    3    0    0 -0.22866168073E+03  0.13914617018E+03  0.68595144252E+02  0.27632067372E+03  0.00000000000E+00 0. -1.
         22    1    3    3    0    0  0.56647276026E+01 -0.10055836380E+02 -0.10836086532E+02  0.15831290391E+02  0.00000000000E+00 0. -1.
</event>
<event>
 7    1  0.6508013E-006  0.1089770E+03  0.7818608E-02  0.1414392E+00
          2   -1    0    0  502    0  0.00000000000E+00  0.00000000000E+00  0.21168849751E+03  0.21168849751E+03  0.00000000000E+00 0. -1.
          1   -1    0    0  501    0 -0.00000000000E+00 -0.00000000000E+00 -0.34005281802E+04  0.34005281802E+04  0.00000000000E+00 0. -1.
         25    2    1    2    0    0 -0.62654614354E+02  0.11729535774E+03 -0.18047933711E+04  0.18139977233E+04  0.12499930473E+03 0.  0.
          2    1    1    2  501    0  0.24601924628E+02 -0.15370518713E+02 -0.15767004553E+04  0.15769672899E+04  0.00000000000E+00 0. -1.
          1    1    1    2  502    0  0.38052689725E+02 -0.10192483903E+03  0.19265414367E+03  0.22125166458E+03  0.00000000000E+00 0. -1.
         22    1    3    3    0    0 -0.97167033307E+02  0.71465594775E+02 -0.13954909231E+04  0.14006939994E+04  0.00000000000E+00 0. -1.
         22    1    3    3    0    0  0.34512418953E+02  0.45829762966E+02 -0.40930244799E+03  0.41330372387E+03  0.00000000000E+00 0. -1.
</event>
<event>
 7    1  0.6508013E-006  0.5128775E+02  0.7818608E-02  0.1569292E+00
          2   -1    0    0  502    0  0.00000000000E+00  0.00000000000E+00  0.66797242479E+02  0.66797242479E+02  0.00000000000E+00 0. -1.
          1   -1    0    0  501    0 -0.00000000000E+00 -0.00000000000E+00 -0.99188703729E+03  0.99188703729E+03  0.00000000000E+00 0. -1.
         25    2    1    2    0    0 -0.35314536836E+02 -0.24948565153E+02 -0.36609469738E+02  0.13724029190E+03  0.12500038813E+03 0.  0.
          2    1    1    2  501    0  0.26651680839E+02  0.44018224212E+02 -0.89725917644E+03  0.89873352328E+03  0.00000000000E+00 0. -1.
          1    1    1    2  502    0  0.86628559965E+01 -0.19069659059E+02  0.87788513643E+01  0.22710464590E+02  0.00000000000E+00 0. -1.
         22    1    3    3    0    0 -0.51291874522E+02 -0.66351797970E+02 -0.75741825268E+01  0.84206803328E+02  0.00000000000E+00 0. -1.
         22    1    3    3    0    0  0.15977337686E+02  0.41403232816E+02 -0.29035287211E+02  0.53033488577E+02  0.00000000000E+00 0. -1.
</event>
<event>
 7    1  0.6508013E-006  0.5865166E+02  0.7818608E-02  0.1541686E+00
          2   -1    0    0  502    0  0.00000000000E+00  0.00000000000E+00  0.94670993972E+03  0.94670993972E+03  0.00000000000E+00 0. -1.
          1   -1    0    0  501    0 -0.00000000000E+00 -0.00000000000E+00 -0.71035422903E+03  0.71035422903E+03  0.00000000000E+00 0. -1.
         25    2    1    2    0    0  0.16322997240E+02 -0.58114847038E+02  0.40851643398E+03  0.43145663552E+03  0.12500150328E+03 0.  0.
          2    1    1    2  501    0 -0.21834165417E+02 -0.53916273367E+00 -0.69706526257E+03  0.69740734277E+03  0.00000000000E+00 0. -1.
          1    1    1    2  502    0  0.55111681771E+01  0.58654009772E+02  0.52490453928E+03  0.52820019045E+03  0.00000000000E+00 0. -1.
         22    1    3    3    0    0  0.18757545443E+01 -0.71193974999E+02  0.10246021532E+03  0.12478059246E+03  0.00000000000E+00 0.  1.
         22    1    3    3    0    0  0.14447242695E+02  0.13079127961E+02  0.30605621866E+03  0.30667604307E+03  0.00000000000E+00 0.  1.
</event>
<event>
 7    1  0.6508013E-006  0.1112090E+03  0.7818608E-02  0.1405539E+00
          2   -1    0    0  502    0  0.00000000000E+00  0.00000000000E+00  0.48231646628E+03  0.48231646628E+03  0.00000000000E+00 0. -1.
          1   -1    0    0  501    0 -0.00000000000E+00 -0.00000000000E+00 -0.25441368287E+04  0.25441368287E+04  0.00000000000E+00 0. -1.
         25    2    1    2    0    0 -0.22896079367E+02  0.79592838703E+02 -0.27972405633E+03  0.31738038767E+03  0.12500204944E+03 0.  0.
          2    1    1    2  501    0 -0.18144718281E+02  0.24465590192E+02 -0.22387304015E+04  0.22389376067E+04  0.00000000000E+00 0. -1.
          1    1    1    2  502    0  0.41040797649E+02 -0.10405842890E+03  0.45663409548E+03  0.47013530058E+03  0.00000000000E+00 0. -1.
         22    1    3    3    0    0  0.26207695483E+02  0.94642236867E+02 -0.19426906770E+03  0.21767973486E+03  0.00000000000E+00 0.  1.
         22    1    3    3    0    0 -0.49103774851E+02 -0.15049398164E+02 -0.85454988631E+02  0.99700652815E+02  0.00000000000E+00 0.  1.
</event>
<event>
 7    1  0.6508013E-006  0.8007078E+02  0.7818608E-02  0.1329377E+00
          2   -1    0    0  502    0  0.00000000000E+00  0.00000000000E+00  0.64187850082E+03  0.64187850082E+03  0.00000000000E+00 0. -1.
          1   -1    0    0  501    0 -0.00000000000E+00 -0.00000000000E+00 -0.74379822769E+03  0.74379822769E+03  0.00000000000E+00 0. -1.
         25    2    1    2    0    0  0.49926024471E+02  0.73457724225E+02 -0.53924439655E+02  0.16254689726E+03  0.12500001380E+03 0.  0.
          2    1    1    2  501    0  0.30124525156E+02 -0.75257384051E+02 -0.63022656752E+03  0.63541851348E+03  0.00000000000E+00 0. -1.
          1    1    1    2  502    0 -0.80050549627E+02  0.17996598261E+01  0.58223128030E+03  0.58771131776E+03  0.00000000000E+00 0. -1.
         22    1    3    3    0    0 -0.36741338411E+01  0.36963319030E+02 -0.83414600950E+02  0.91311455278E+02  0.00000000000E+00 0. -1.
         22    1    3    3    0    0  0.53600158312E+02  0.36494405195E+02  0.29490161295E+02  0.71235441985E+02  0.00000000000E+00 0. -1.
</event>
<event>
 7    1  0.6508013E-006  0.2404143E+03  0.7818608E-02  0.1218248E+00
          2   -1    0    0  502    0  0.00000000000E+00  0.00000000000E+00  0.35244089201E+04  0.35244089201E+04  0.00000000000E+00 0. -1.
          1   -1    0    0  501    0 -0.00000000000E+00 -0.00000000000E+00 -0.58695210734E+03  0.58695210734E+03  0.00000000000E+00 0. -1.
         25    2    1    2    0    0  0.45977577861E+02 -0.29022883053E+03  0.12939757596E+04  0.13327958610E+04  0.12499931587E+03 0.  0.
          2    1    1    2  501    0  0.19771758452E+02  0.74826026441E+02 -0.55913460579E+03  0.56446555613E+03  0.00000000000E+00 0. -1.
          1    1    1    2  502    0 -0.65749336313E+02  0.21540280409E+03  0.22026156590E+04  0.22140996103E+04  0.00000000000E+00 0. -1.
         22    1    3    3    0    0  0.58233368018E+01 -0.26967806584E+03  0.11747963455E+04  0.12053657635E+04  0.00000000000E+00 0. -1.
         22    1    3    3    0    0  0.40154241059E+02 -0.20550764690E+02  0.11917941410E+03  0.12743009750E+03  0.00000000000E+00 0. -1.
</event>
<event>
 7    1  0.6508013E-006  0.5073102E+02  0.7818608E-02  0.1454646E+00
          2   -1    0    0  502    0  0.00000000000E+00  0.00000000000E+00  0.73448547959E+03  0.73448547959E+03  0.00000000000E+00 0. -1.
          1   -1    0    0  501    0 -0.00000000000E+00 -0.00000000000E+00 -0.11549391266E+04  0.11549391266E+04  0.00000000000E+00 0. -1.
         25    2    1    2    0    0 -0.36605964441E+02  0.43419448719E+02  0.48559803253E+03  0.50463378161E+03  0.12499823674E+03 0.  0.
          2    1    1    2  501    0 -0.89424572694E+01 -0.49953309307E+02 -0.11426414794E+04  0.11437678309E+04  0.00000000000E+00 0. -1.
          1    1    1    2  502    0  0.45548421710E+02  0.65338605881E+01  0.23658979987E+03  0.24102299363E+03  0.00000000000E+00 0. -1.
         22    1    3    3    0    0  0.25597493037E+02  0.43439480377E+02  0.36947869262E+03  0.37290310324E+03  0.00000000000E+00 0. -1.
         22    1    3    3    0    0 -0.62203457478E+02 -0.20031657635E-01  0.11611933991E+03  0.13173067837E+03  0.00000000000E+00 0. -1.
</event>
<event>
 7    1  0.6508013E-006  0.3707835E+02  0.7818608E-02  0.1598784E+00
          2   -1    0    0  502    0  0.00000000000E+00  0.00000000000E+00  0.13783848232E+04  0.13783848232E+04  0.00000000000E+00 0. -1.
          1   -1    0    0  501    0 -0.00000000000E+00 -0.00000000000E+00 -0.57848133124E+03  0.57848133124E+03  0.00000000000E+00 0. -1.
         25    2    1    2    0    0  0.11954947371E+02  0.22052736700E+02  0.15920905681E+02  0.12848155490E+03  0.12499916299E+03 0.  0.
          2    1    1    2  501    0 -0.19454515086E+02  0.14344993935E+02 -0.52165677245E+03  0.52221647355E+03  0.00000000000E+00 0. -1.
          1    1    1    2  502    0  0.74995677153E+01 -0.36397730636E+02  0.13056393587E+04  0.13061681260E+04  0.00000000000E+00 0. -1.
         22    1    3    3    0    0 -0.85418143069E+01  0.51747625419E+02  0.54514645016E+02  0.75648039296E+02  0.00000000000E+00 0.  1.
         22    1    3    3    0    0  0.20496761678E+02 -0.29694888718E+02 -0.38593739335E+02  0.52833515604E+02  0.00000000000E+00 0.  1.
</event>
<event>
 7    1  0.6508013E-006  0.3069219E+02  0.7818608E-02  0.1599935E+00
          2   -1    0    0  502    0  0.00000000000E+00  0.00000000000E+00  0.14583929772E+04  0.14583929772E+04  0.00000000000E+00 0. -1.
          1   -1    0    0  501    0 -0.00000000000E+00 -0.00000000000E+00 -0.22887628399E+03  0.22887628399E+03  0.00000000000E+00 0. -1.
         25    2    1    2    0    0  0.38279843886E+02 -0.34447123829E+02  0.13510774641E+03  0.19113218018E+03  0.12500182547E+03 0.  0.
          2    1    1    2  501    0 -0.84218171935E+01  0.27749140480E+02 -0.19963559484E+03  0.20173079222E+03  0.00000000000E+00 0. -1.
          1    1    1    2  502    0 -0.29858026693E+02  0.66979833486E+01  0.12940445416E+04  0.12944062888E+04  0.00000000000E+00 0. -1.
         22    1    3    3    0    0  0.19068340003E+02  0.32875421911E+02  0.11061430946E+03  0.11696119191E+03  0.00000000000E+00 0. -1.
         22    1    3    3    0    0  0.19211503883E+02 -0.67322545739E+02  0.24493436947E+02  0.74170988262E+02  0.00000000000E+00 0. -1.
</event>
<event>
 7    1  0.6508013E-006  0.9676142E+02  0.7818608E-02  0.1471316E+00
          2   -1    0    0  502    0  0.00000000000E+00  0.00000000000E+00  0.30148791934E+04  0.30148791934E+04  0.00000000000E+00 0. -1.
          1   -1    0    0  501    0 -0.00000000000E+00 -0.00000000000E+00 -0.34072499643E+02  0.34072499643E+02  0.00000000000E+00 0. -1.
         25    2    1    2    0    0  0.53335373544E+02 -0.61913159502E+02  0.17807828309E+03  0.23242637007E+03  0.12502896147E+03 0.  0.
          2    1    1    2  501    0 -0.28109466728E+01 -0.21198925609E+02  0.12842489109E+02  0.24944446170E+02  0.00000000000E+00 0. -1.
          1    1    1    2  502    0 -0.50524426871E+02  0.83112085111E+02  0.27898859216E+04  0.27915808768E+04  0.00000000000E+00 0. -1.
         22    1    3    3    0    0  0.64794611842E+01 -0.60690197471E+02  0.17513092908E+03  0.18546192549E+03  0.00000000000E+00 0.  1.
         22    1    3    3    0    0  0.46855912360E+02 -0.12229620306E+01  0.29473540077E+01  0.46964444582E+02  0.00000000000E+00 0.  1.
</event>
<event>
 7    1  0.6508013E-006  0.5694401E+02  0.7818608E-02  0.1540336E+00
          2   -1    0    0  502    0  0.00000000000E+00  0.00000000000E+00  0.25340827176E+04  0.25340827176E+04  0.00000000000E+00 0. -1.
          1   -1    0    0  501    0 -0.00000000000E+00 -0.00000000000E+00 -0.44513779931E+03  0.44513779931E+03  0.00000000000E+00 0. -1.
         25    2    1    2    0    0  0.41547333093E+02 -0.17841677655E+02 -0.33985849869E+03  0.36492902358E+03  0.12499954709E+03 0.  0.
          2    1    1    2  501    0  0.15398372423E+02  0.16670658348E+02 -0.91029094753E+02  0.93815333579E+02  0.00000000000E+00 0. -1.
          1    1    1    2  502    0 -0.56945705516E+02  0.11710193065E+01  0.25198325117E+04  0.25204761597E+04  0.00000000000E+00 0. -1.
         22    1    3    3    0    0  0.82477762671E+02 -0.26684553080E+02 -0.18167749211E+03  0.20129917498E+03  0.00000000000E+00 0. -1.
         22    1    3    3    0    0 -0.40930429578E+02  0.88428754253E+01 -0.15818100658E+03  0.16362984860E+03  0.00000000000E+00 0. -1.
</event>
<event>
 7    1  0.6508013E-006  0.1445688E+03  0.7818608E-02  0.1295174E+00
          2   -1    0    0  502    0  0.00000000000E+00  0.00000000000E+00  0.16889054403E+04  0.16889054403E+04  0.00000000000E+00 0. -1.
          1   -1    0    0  501    0 -0.00000000000E+00 -0.00000000000E+00 -0.52574424275E+02  0.52574424275E+02  0.00000000000E+00 0. -1.
         25    2    1    2    0    0 -0.23393713116E+02 -0.13170481781E+03  0.44524213045E+03  0.48141283639E+03  0.12499735782E+03 0.  0.
          2    1    1    2  501    0  0.58524416532E+02 -0.13865527063E+02  0.54986301684E+00  0.60147007577E+02  0.00000000000E+00 0. -1.
          1    1    1    2  502    0 -0.35130703416E+02  0.14557034487E+03  0.11905390225E+04  0.11999200206E+04  0.00000000000E+00 0. -1.
         22    1    3    3    0    0  0.27719551020E+01 -0.70107801111E+02  0.66051651623E+02  0.96361860680E+02  0.00000000000E+00 0.  1.
         22    1    3    3    0    0 -0.26165668218E+02 -0.61597016700E+02  0.37919047883E+03  0.38505097571E+03  0.00000000000E+00 0.  1.
</event>
<event>
 7    1  0.6508013E-006  0.4576404E+02  0.7818608E-02  0.1488660E+00
          2   -1    0    0  502    0  0.00000000000E+00  0.00000000000E+00  0.12177810066E+04  0.12177810066E+04  0.00000000000E+00 0. -1.
          1   -1    0    0  501    0 -0.00000000000E+00 -0.00000000000E+00 -0.28658148575E+02  0.28658148575E+02  0.00000000000E+00 0. -1.
         25    2    1    2    0    0  0.76469233665E+02 -0.36492703978E+02  0.20855116677E+03  0.25748305073E+03  0.12499868444E+03 0.  0.
          2    1    1    2  501    0 -0.35072135320E+02  0.19235162562E+02  0.10697714858E+03  0.11421101731E+03  0.00000000000E+00 0. -1.
          1    1    1    2  502    0 -0.41397098345E+02  0.17257541416E+02  0.87359454266E+03  0.87474508713E+03  0.00000000000E+00 0. -1.
         22    1    3    3    0    0  0.37079184033E+02 -0.60887549424E+02  0.38069032921E+02  0.80817144412E+02  0.00000000000E+00 0. -1.
         22    1    3    3    0    0  0.39390049631E+02  0.24394845446E+02  0.17048213385E+03  0.17666590632E+03  0.00000000000E+00 0. -1.
</event>
<event>
 7    1  0.6508013E-006  0.7332468E+02  0.7818608E-02  0.1444030E+00
          2   -1    0    0  502    0  0.00000000000E+00  0.00000000000E+00  0.36509800214E+03  0.36509800214E+03  0.00000000000E+00 0. -1.
          1   -1    0    0  501    0 -0.00000000000E+00 -0.00000000000E+00 -0.17860670378E+03  0.17860670378E+03  0.00000000000E+00 0. -1.
         25    2    1    2    0    0  0.55894467782E+02  0.54244359628E+02  0.10649698197E+03  0.18175075061E+03  0.12500034439E+03 0.  0.
          2    1    1    2  501    0 -0.69895052481E+02 -0.22791227978E+02 -0.12989678990E+03  0.14925794605E+03  0.00000000000E+00 0. -1.
          1    1    1    2  502    0  0.14000584699E+02 -0.31453131651E+02  0.20989110628E+03  0.21269600926E+03  0.00000000000E+00 0. -1.
         22    1    3    3    0    0  0.94189337401E+02  0.22906495768E+02  0.61001687255E+02  0.11453185005E+03  0.00000000000E+00 0.  1.
         22    1    3    3    0    0 -0.38294869619E+02  0.31337863860E+02  0.45495294715E+02  0.67218900554E+02  0.00000000000E+00 0.  1.
</event>
<event>
 7    1  0.6508013E-006  0.7306090E+02  0.7818608E-02  0.1354479E+00
          2   -1    0    0  502    0  0.00000000000E+00  0.00000000000E+00  0.20320646056E+04  0.20320646056E+04  0.00000000000E+00 0. -1.
          1   -1    0    0  501    0 -0.00000000000E+00 -0.00000000000E+00 -0.22213149888E+04  0.22213149888E+04  0.00000000000E+00 0. -1.
         25    2    1    2    0    0 -0.68479826980E+00 -0.77906700286E+01  0.11474729417E+03  0.16986114134E+03  0.12499880931E+03 0.  0.
          2    1    1    2  501    0 -0.63049426610E+02  0.37505210946E+02 -0.21924901692E+04  0.21937171680E+04  0.00000000000E+00 0. -1.
          1    1    1    2  502    0  0.63734224880E+02 -0.29714540917E+02  0.18884924918E+04  0.18898012850E+04  0.00000000000E+00 0. -1.
         22    1    3    3    0    0  0.22700622090E+02 -0.59978117648E+02  0.81518860972E+02  0.10372086354E+03  0.00000000000E+00 0.  1.
         22    1    3    3    0    0 -0.23385420360E+02  0.52187447619E+02  0.33228433201E+02  0.66140277800E+02  0.00000000000E+00 0.  1.
</event>
<event>
 7    1  0.6508013E-006  0.1131261E+03  0.7818608E-02  0.1296443E+00
          2   -1    0    0  502    0  0.00000000000E+00  0.00000000000E+00  0.24187987316E+04  0.24187987316E+04  0.00000000000E+00 0. -1.
          1   -1    0    0  501    0 -0.00000000000E+00 -0.00000000000E+00 -0.15427371721E+03  0.15427371721E+03  0.00000000000E+00 0. -1.
         25    2    1    2    0    0 -0.50501423904E+02 -0.47593927689E+02  0.15357902015E+03  0.20982610684E+03  0.12499961564E+03 0.  0.
          2    1    1    2  501    0  0.12069996625E+03  0.18572538552E+02 -0.95787881241E+02  0.15520547424E+03  0.00000000000E+00 0. -1.
          1    1    1    2  502    0 -0.70198542343E+02  0.29021389137E+02  0.22067338755E+04  0.22080408677E+04  0.00000000000E+00 0. -1.
         22    1    3    3    0    0 -0.92136158834E+02 -0.27674239166E+02  0.94463967401E+02  0.13482720948E+03  0.00000000000E+00 0. -1.
         22    1    3    3    0    0  0.41634734930E+02 -0.19919688523E+02  0.59115052750E+02  0.74998897359E+02  0.00000000000E+00 0. -1.
</event>
<event>
 7    1  0.6508013E-006  0.1999308E+03  0.7818608E-02  0.1281315E+00
          2   -1    0    0  502    0  0.00000000000E+00  0.00000000000E+00  0.41269451911E+02  0.41269451911E+02  0.00000000000E+00 0. -1.
          1   -1    0    0  501    0 -0.00000000000E+00 -0.00000000000E+00 -0.21466308434E+04  0.21466308434E+04  0.00000000000E+00 0. -1.
         25    2    1    2    0    0 -0.91909091517E+02 -0.16757861642E+03 -0.11551295054E+04  0.11774888299E+04  0.12500358662E+03 0.  0.
          2    1    1    2  501    0  0.39719988730E+02 -0.29598571088E+02 -0.62198938221E+03  0.62395876827E+03  0.00000000000E+00 0. -1.
          1    1    1    2  502    0  0.52189102788E+02  0.19717718751E+03 -0.32824250389E+03  0.38645269709E+03  0.00000000000E+00 0. -1.
         22    1    3    3    0    0  0.35332039676E+01  0.16119695877E+02 -0.17265123862E+03  0.17343811093E+03  0.00000000000E+00 0.  1.
         22    1    3    3    0    0 -0.95442295485E+02 -0.18369831230E+03 -0.98247826675E+03  0.10040507190E+04  0.00000000000E+00 0.  1.
</event>
<event>
 7    1  0.6508013E-006  0.1480949E+03  0.7818608E-02  0.1339345E+00
          2   -1    0    0  502    0  0.00000000000E+00  0.00000000000E+00  0.39734282117E+04  0.39734282117E+04  0.00000000000E+00 0. -1.
          1   -1    0    0  501    0 -0.00000000000E+00 -0.00000000000E+00 -0.46244332697E+03  0.46244332697E+03  0.00000000000E+00 0. -1.
         25    2    1    2    0    0 -0.15679718052E+03 -0.91162607961E+02 -0.15860575075E+01  0.22028226813E+03  0.12500314060E+03 0.  0.
          2    1    1    2  501    0  0.20795824845E+02  0.33579361532E+02 -0.34898353796E+03  0.35121154540E+03  0.00000000000E+00 0. -1.
          1    1    1    2  502    0  0.13600135568E+03  0.57583246428E+02  0.38615544802E+04  0.38643777252E+04  0.00000000000E+00 0. -1.
         22    1    3    3    0    0 -0.15757123615E+03 -0.91744439994E+02  0.33327780144E+02  0.18535500442E+03  0.00000000000E+00 0. -1.
         22    1    3    3    0    0  0.77405562869E+00  0.58183203341E+00 -0.34913837651E+02  0.34927263709E+02  0.00000000000E+00 0. -1.
</event>
<event>
 7    1  0.6508013E-006  0.7013151E+02  0.7818608E-02  0.1399535E+00
          2   -1    0    0  502    0  0.00000000000E+00  0.00000000000E+00  0.13900003099E+04  0.13900003099E+04  0.00000000000E+00 0. -1.
          1   -1    0    0  501    0 -0.00000000000E+00 -0.00000000000E+00 -0.61980218743E+02  0.61980218743E+02  0.00000000000E+00 0. -1.
         25    2    1    2    0    0  0.83111861673E+02 -0.62587495613E+02  0.53403398143E+03  0.55824870112E+03  0.12499817129E+03 0.  0.
          2    1    1    2  501    0 -0.32496894969E+02  0.60901992426E+02 -0.24823646422E+02  0.73357441925E+02  0.00000000000E+00 0. -1.
          1    1    1    2  502    0 -0.50614966703E+02  0.16855031871E+01  0.81880975612E+03  0.82037438557E+03  0.00000000000E+00 0. -1.
         22    1    3    3    0    0  0.39733607015E+02 -0.55792631669E+02  0.49432741113E+03  0.49905026467E+03  0.00000000000E+00 0.  1.
         22    1    3    3    0    0  0.43378254658E+02 -0.67948639439E+01  0.39706570299E+02  0.59198436450E+02  0.00000000000E+00 0.  1.
</event>
<event>
 7    1  0.6508013E-006  0.3650677E+02  0.7818608E-02  0.1583834E+00
          2   -1    0    0  502    0  0.00000000000E+00  0.00000000000E+00  0.28552658751E+04  0.28552658751E+04  0.00000000000E+00 0. -1.
          1   -1    0    0  501    0 -0.00000000000E+00 -0.00000000000E+00 -0.25193327608E+03  0.25193327608E+03  0.00000000000E+00 0. -1.
         25    2    1    2    0    0  0.69804983036E+01  0.76761509768E+01  0.18428419476E+03  0.22291662558E+03  0.12499402733E+03 0.  0.
          2    1    1    2  501    0  0.90343743295E+01  0.25324372441E+02 -0.23171277648E+03  0.23326755999E+03  0.00000000000E+00 0. -1.
          1    1    1    2  502    0 -0.16014872633E+02 -0.33000523418E+02  0.26507611808E+04  0.26510149657E+04  0.00000000000E+00 0. -1.
         22    1    3    3    0    0  0.34947376435E+02  0.39491394264E+02  0.25493762841E+02  0.58573213028E+02  0.00000000000E+00 0. -1.
         22    1    3    3    0    0 -0.27966878131E+02 -0.31815243287E+02  0.15879043192E+03  0.16434341255E+03  0.00000000000E+00 0. -1.
</event>
<event>
 7    1  0.6508013E-006  0.9264144E+02  0.7818608E-02  0.1441105E+00
          2   -1    0    0  502    0  0.00000000000E+00  0.00000000000E+00  0.35058952859E+04  0.35058952859E+04  0.00000000000E+00 0. -1.
          1   -1    0    0  501    0 -0.00000000000E+00 -0.00000000000E+00 -0.26301922044E+04  0.26301922044E+04  0.00000000000E+00 0. -1.
         25    2    1    2    0    0 -0.10042268330E+03 -0.66524078563E+02 -0.73770679572E+03  0.75785727964E+03  0.12500468593E+03 0.  0.
          2    1    1    2  501    0  0.23574622612E+02  0.14827034806E+02 -0.18816936464E+04  0.18818997271E+04  0.00000000000E+00 0. -1.
          1    1    1    2  502    0  0.76848060685E+02  0.51697043757E+02  0.34951035237E+04  0.34963304836E+04  0.00000000000E+00 0. -1.
         22    1    3    3    0    0 -0.90709313041E+02 -0.10191466548E+03 -0.60283744068E+03  0.61808394123E+03  0.00000000000E+00 0. -1.
         22    1    3    3    0    0 -0.97133702556E+01  0.35390586915E+02 -0.13486935504E+03  0.13977333842E+03  0.00000000000E+00 0. -1.
</event>
<event>
 7    1  0.6508013E-006  0.1118371E+03  0.7818608E-02  0.1358252E+00
          2   -1    0    0  502    0  0.00000000000E+00  0.00000000000E+00  0.68149505952E+03  0.68149505952E+03  0.00000000000E+00 0. -1.
          1   -1    0    0  501    0 -0.00000000000E+00 -0.00000000000E+00 -0.67282488577E+03  0.67282488577E+03  0.00000000000E+00 0. -1.
         25    2    1    2    0    0  0.12200384593E+03 -0.31483644805E+02 -0.10624323515E+03  0.20685465138E+03  0.12500025389E+03 0.  0.
          2    1    1    2  501    0 -0.91055292945E+02  0.63455710319E+02 -0.50951035889E+03  0.52145805139E+03  0.00000000000E+00 0. -1.
          1    1    1    2  502    0 -0.30948552981E+02 -0.31972065514E+02  0.62442376778E+03  0.62600724251E+03  0.00000000000E+00 0. -1.
         22    1    3    3    0    0  0.14697937922E+03 -0.15410003861E+02 -0.88441770800E+02  0.17222761961E+03  0.00000000000E+00 0.  1.
         22    1    3    3    0    0 -0.24975533291E+02 -0.16073640944E+02 -0.17801464346E+02  0.34627031771E+02  0.00000000000E+00 0.  1.
</event>
<event>
 7    1  0.6508013E-006  0.1221198E+03  0.7818608E-02  0.1310159E+00
          2   -1    0    0  502    0  0.00000000000E+00  0.00000000000E+00  0.24708817020E+03  0.24708817020E+03  0.00000000000E+00 0. -1.
          1   -1    0    0  501    0 -0.00000000000E+00 -0.00000000000E+00 -0.44961269386E+03  0.44961269386E+03  0.00000000000E+00 0. -1.
         25    2    1    2    0    0  0.43158413353E+02  0.17094736475E+03 -0.87209608773E+02  0.23304521900E+03  0.12497562993E+03 0.  0.
          2    1    1    2  501    0 -0.50464539236E+01 -0.61844649665E+02 -0.26634761074E+03  0.27347993918E+03  0.00000000000E+00 0. -1.
          1    1    1    2  502    0 -0.38111959430E+02 -0.10910271509E+03  0.15103269585E+03  0.19017570588E+03  0.00000000000E+00 0. -1.
         22    1    3    3    0    0 -0.31965706241E+02  0.12219544617E+03 -0.56516207591E+02  0.13837490799E+03  0.00000000000E+00 0. -1.
         22    1    3    3    0    0  0.75124119594E+02  0.48751918580E+02 -0.30693401181E+02  0.94670311007E+02  0.00000000000E+00 0. -1.
</event>
<event>
 7    1  0.6508013E-006  0.6917127E+02  0.7818608E-02  0.1400269E+00
          2   -1    0    0  502    0  0.00000000000E+00  0.00000000000E+00  0.14435510091E+04  0.14435510091E+04  0.00000000000E+00 0. -1.
          1   -1    0    0  501    0 -0.00000000000E+00 -0.00000000000E+00 -0.35771247001E+03  0.35771247001E+03  0.00000000000E+00 0. -1.
         25    2    1    2    0    0 -0.44150614396E+02 -0.28698271470E+02  0.65582470491E+02  0.15065908885E+03  0.12499693229E+03 0.  0.
          2    1    1    2  501    0  0.31651119222E+02 -0.40052221730E+02 -0.31218552716E+03  0.31633175177E+03  0.00000000000E+00 0. -1.
          1    1    1    2  502    0  0.12499495174E+02  0.68750493200E+02  0.13324415957E+04  0.13342726385E+04  0.00000000000E+00 0. -1.
         22    1    3    3    0    0 -0.54001176382E+02 -0.69243740537E+02  0.22424688619E+02  0.90629406452E+02  0.00000000000E+00 0.  1.
         22    1    3    3    0    0  0.98505619854E+01  0.40545469067E+02  0.43157781871E+02  0.60029682402E+02  0.00000000000E+00 0.  1.
</event>
<event>
 7    1  0.6508013E-006  0.5994913E+02  0.7818608E-02  0.1401115E+00
          2   -1    0    0  502    0  0.00000000000E+00  0.00000000000E+00  0.10020612073E+03  0.10020612073E+03  0.00000000000E+00 0. -1.
          1   -1    0    0  501    0 -0.00000000000E+00 -0.00000000000E+00 -0.13123855765E+04  0.13123855765E+04  0.00000000000E+00 0. -1.
         25    2    1    2    0    0  0.55967789378E+02  0.78348700611E+02 -0.51620051413E+03  0.53977669478E+03  0.12499998838E+03 0.  0.
          2    1    1    2  501    0  0.20722625235E+00 -0.58508281553E+02 -0.77312905922E+03  0.77533979917E+03  0.00000000000E+00 0. -1.
          1    1    1    2  502    0 -0.56175015631E+02 -0.19840419058E+02  0.77150117599E+02  0.97475203283E+02  0.00000000000E+00 0. -1.
         22    1    3    3    0    0  0.58239713921E+01  0.92670576105E+02 -0.42209916070E+03  0.43219145732E+03  0.00000000000E+00 0.  1.
         22    1    3    3    0    0  0.50143817986E+02 -0.14321875494E+02 -0.94101353434E+02  0.10758523745E+03  0.00000000000E+00 0.  1.
</event>
<event>
 7    1  0.6508013E-006  0.3674329E+02  0.7818608E-02  0.1582965E+00
          2   -1    0    0  502    0  0.00000000000E+00  0.00000000000E+00  0.19272134412E+03  0.19272134412E+03  0.00000000000E+00 0. -1.
          1   -1    0    0  501    0 -0.00000000000E+00 -0.00000000000E+00 -0.48788042828E+03  0.48788042828E+03  0.00000000000E+00 0. -1.
         25    2    1    2    0    0  0.28987202135E+02  0.44695783873E+02 -0.12759363520E+03  0.18639081577E+03  0.12499371775E+03 0.  0.
          2    1    1    2  501    0  0.28893634843E+01 -0.26701818094E+02 -0.32828188502E+03  0.32937870535E+03  0.00000000000E+00 0. -1.
          1    1    1    2  502    0 -0.31876565619E+02 -0.17993965779E+02  0.16071643606E+03  0.16483225127E+03  0.00000000000E+00 0. -1.
         22    1    3    3    0    0 -0.46003305093E+02  0.11678584067E+02 -0.20888729154E+02  0.51855881160E+02  0.00000000000E+00 0.  1.
         22    1    3    3    0    0  0.74990507227E+02  0.33017199806E+02 -0.10670490604E+03  0.13453493461E+03  0.00000000000E+00 0.  1.
</event>
<event>
 7    1  0.6508013E-006  0.3460587E+03  0.7818608E-02  0.1167019E+00
          2   -1    0    0  502    0  0.00000000000E+00  0.00000000000E+00  0.18931440890E+04  0.18931440890E+04  0.00000000000E+00 0. -1.
          1   -1    0    0  501    0 -0.00000000000E+00 -0.00000000000E+00 -0.35153387572E+03  0.35153387572E+03  0.00000000000E+00 0. -1.
         25    2    1    2    0    0  0.74679646849E+02 -0.28386114845E+03  0.22058085274E+03  0.38785703472E+03  0.12499186187E+03 0.  0.
          2    1    1    2  501    0 -0.56256418865E+02 -0.75897345197E+02 -0.23834164317E+03  0.25638239125E+03  0.00000000000E+00 0. -1.
          1    1    1    2  502    0 -0.18423227984E+02  0.35975849365E+03  0.15593710037E+04  0.16004385388E+04  0.00000000000E+00 0. -1.
         22    1    3    3    0    0  0.57890384144E+02 -0.18141566047E+03  0.21003675639E+03  0.28351080663E+03  0.00000000000E+00 0. -1.
         22    1    3    3    0    0  0.16789262705E+02 -0.10244548798E+03  0.10544096353E+02  0.10434622809E+03  0.00000000000E+00 0. -1.
</event>
<event>
 7    1  0.9968123E-006  0.9932559E+02  0.7818608E-02  0.1448982E+00
          2   -1    0    0  502    0  0.00000000000E+00  0.00000000000E+00  0.23213252189E+04  0.23213252189E+04  0.00000000000E+00 0. -1.
          1   -1    0    0  501    0 -0.00000000000E+00 -0.00000000000E+00 -0.94758568779E+03  0.94758568779E+03  0.00000000000E+00 0. -1.
         25    2    1    2    0    0  0.75175004059E+02  0.26555211131E+02 -0.33716060167E+03  0.36831898149E+03  0.12500056132E+03 0.  0.
          2    1    1    2  501    0  0.11855777141E+02  0.21441550428E+02 -0.59352200669E+03  0.59402750102E+03  0.00000000000E+00 0. -1.
          1    1    1    2  502    0 -0.87030781200E+02 -0.47996761558E+02  0.23044221394E+04  0.23065644241E+04  0.00000000000E+00 0. -1.
         22    1    3    3    0    0 -0.27031775822E+02 -0.10493376561E+02 -0.14191486378E+03  0.14484701038E+03  0.00000000000E+00 0. -1.
         22    1    3    3    0    0  0.10220677988E+03  0.37048587692E+02 -0.19524573790E+03  0.22347197111E+03  0.00000000000E+00 0. -1.
</event>
<event>
 7    1  0.6508013E-006  0.6378448E+02  0.7818608E-02  0.1500411E+00
          2   -1    0    0  502    0  0.00000000000E+00  0.00000000000E+00  0.28186971792E+04  0.28186971792E+04  0.00000000000E+00 0. -1.
          1   -1    0    0  501    0 -0.00000000000E+00 -0.00000000000E+00 -0.89937957419E+03  0.89937957419E+03  0.00000000000E+00 0. -1.
         25    2    1    2    0    0  0.59055523180E+02  0.49802392065E+02  0.15597747362E+03  0.21429562578E+03  0.12500323947E+03 0.  0.
          2    1    1    2  501    0  0.16861687225E+00 -0.26456811998E+02 -0.86963458459E+03  0.87003695441E+03  0.00000000000E+00 0. -1.
          1    1    1    2  502    0 -0.59224140052E+02 -0.23345580067E+02  0.26329747159E+04  0.26337441732E+04  0.00000000000E+00 0. -1.
         22    1    3    3    0    0  0.51867743073E+00  0.32078112311E+02 -0.12980189169E+02  0.34608664039E+02  0.00000000000E+00 0.  1.
         22    1    3    3    0    0  0.58536845750E+02  0.17724279755E+02  0.16895766279E+03  0.17968696174E+03  0.00000000000E+00 0.  1.
</event>
<event>
 7    1  0.6508013E-006  0.2832886E+03  0.7818608E-02  0.1322804E+00
          2   -1    0    0  502    0  0.00000000000E+00  0.00000000000E+00  0.11610118532E+04  0.11610118532E+04  0.00000000000E+00 0. -1.
          1   -1    0    0  501    0 -0.00000000000E+00 -0.00000000000E+00 -0.19557235310E+03  0.19557235310E+03  0.00000000000E+00 0. -1.
         25    2    1    2    0    0 -0.21493873221E+03  0.18248781863E+03  0.26957020130E+03  0.40963469175E+03  0.12502809567E+03 0.  0.
          2    1    1    2  501    0  0.14634947466E+02  0.18865228047E+02 -0.99535328402E+02  0.10235897673E+03  0.00000000000E+00 0. -1.
          1    1    1    2  502    0  0.20030378474E+03 -0.20135304668E+03  0.79540462718E+03  0.84459053779E+03  0.00000000000E+00 0. -1.
         22    1    3    3    0    0 -0.18163275644E+03  0.18369139132E+03  0.18218044817E+03  0.31610552218E+03  0.00000000000E+00 0. -1.
         22    1    3    3    0    0 -0.33305975769E+02 -0.12035726904E+01  0.87389753129E+02  0.93529169573E+02  0.00000000000E+00 0. -1.
</event>
<event>
 7    1  0.6508013E-006  0.1869489E+03  0.7818608E-02  0.1261689E+00
          2   -1    0    0  502    0  0.00000000000E+00  0.00000000000E+00  0.12810497020E+03  0.12810497020E+03  0.00000000000E+00 0. -1.
          1   -1    0    0  501    0 -0.00000000000E+00 -0.00000000000E+00 -0.33113856683E+04  0.33113856683E+04  0.00000000000E+00 0. -1.
         25    2    1    2    0    0 -0.21770774946E+03 -0.50375554189E+00 -0.94017458021E+02  0.26806957389E+03  0.12500038437E+03 0.  0.
          2    1    1    2  501    0  0.58779813283E+02 -0.25359138304E+02 -0.29708739950E+04  0.29715636366E+04  0.00000000000E+00 0. -1.
          1    1    1    2  502    0  0.15892793618E+03  0.25862893846E+02 -0.11838924511E+03  0.19985742802E+03  0.00000000000E+00 0. -1.
         22    1    3    3    0    0 -0.11764939346E+03  0.39083106585E+02 -0.10147556774E+03  0.16020661612E+03  0.00000000000E+00 0. -1.
         22    1    3    3    0    0 -0.10005835600E+03 -0.39586862127E+02  0.74581097204E+01  0.10786295777E+03  0.00000000000E+00 0. -1.
</event>
<event>
 7    1  0.6508013E-006  0.8078644E+02  0.7818608E-02  0.1497504E+00
          2   -1    0    0  502    0  0.00000000000E+00  0.00000000000E+00  0.77238812640E+03  0.77238812640E+03  0.00000000000E+00 0. -1.
          1   -1    0    0  501    0 -0.00000000000E+00 -0.00000000000E+00 -0.24718472755E+03  0.24718472755E+03  0.00000000000E+00 0. -1.
         25    2    1    2    0    0  0.96726414340E+01  0.10115466381E+03  0.43558102704E+03  0.46441672972E+03  0.12500496679E+03 0.  0.
          2    1    1    2  501    0 -0.53477611039E+01 -0.80286793312E+02 -0.22544221748E+03  0.23937159637E+03  0.00000000000E+00 0. -1.
          1    1    1    2  502    0 -0.43248803301E+01 -0.20867870495E+02  0.31506458929E+03  0.31578452786E+03  0.00000000000E+00 0. -1.
         22    1    3    3    0    0 -0.12938860733E+02  0.56717538680E+01 -0.34594153212E+01  0.14544774436E+02  0.00000000000E+00 0. -1.
         22    1    3    3    0    0  0.22611502167E+02  0.95482909939E+02  0.43904044236E+03  0.44987195528E+03  0.00000000000E+00 0. -1.
</event>
<event>
 7    1  0.6508013E-006  0.6026269E+02  0.7818608E-02  0.1446402E+00
          2   -1    0    0  502    0  0.00000000000E+00  0.00000000000E+00  0.90077987847E+03  0.90077987847E+03  0.00000000000E+00 0. -1.
          1   -1    0    0  501    0 -0.00000000000E+00 -0.00000000000E+00 -0.30078148585E+03  0.30078148585E+03  0.00000000000E+00 0. -1.
         25    2    1    2    0    0  0.15522212503E+02 -0.20565694451E+02  0.32387411999E+03  0.34811394325E+03  0.12499994009E+03 0.  0.
          2    1    1    2  501    0  0.11193000162E+02 -0.39609283166E+02 -0.28526067842E+03  0.28821490804E+03  0.00000000000E+00 0. -1.
          1    1    1    2  502    0 -0.26715212665E+02  0.60174977617E+02  0.56138495105E+03  0.56523251302E+03  0.00000000000E+00 0. -1.
         22    1    3    3    0    0  0.12999704907E+02  0.22124797229E+02  0.29590342297E+03  0.29701403116E+03  0.00000000000E+00 0.  1.
         22    1    3    3    0    0  0.25225075959E+01 -0.42690491680E+02  0.27970697015E+02  0.51099912094E+02  0.00000000000E+00 0.  1.
</event>
<event>
 7    1  0.6508013E-006  0.1250515E+03  0.7818608E-02  0.1270530E+00
          2   -1    0    0  502    0  0.00000000000E+00  0.00000000000E+00  0.61636305125E+03  0.61636305125E+03  0.00000000000E+00 0. -1.
          1   -1    0    0  501    0 -0.00000000000E+00 -0.00000000000E+00 -0.13075515877E+04  0.13075515877E+04  0.00000000000E+00 0. -1.
         25    2    1    2    0    0 -0.63345137241E+02  0.18667542853E+03 -0.85421891384E+03  0.88553703613E+03  0.12500227024E+03 0.  0.
          2    1    1    2  501    0 -0.11478081161E+02 -0.87061695111E+02 -0.42669419274E+03  0.43563679737E+03  0.00000000000E+00 0. -1.
          1    1    1    2  502    0  0.74823218402E+02 -0.99613733417E+02  0.58972457015E+03  0.60274080544E+03  0.00000000000E+00 0. -1.
         22    1    3    3    0    0 -0.81674873421E+02  0.17603117400E+03 -0.60369005526E+03  0.63411311450E+03  0.00000000000E+00 0. -1.
         22    1    3    3    0    0  0.18329736180E+02  0.10644254530E+02 -0.25052885859E+03  0.25142392163E+03  0.00000000000E+00 0. -1.
</event>
<event>
 7    1  0.6508013E-006  0.9173913E+02  0.7818608E-02  0.1306228E+00
          2   -1    0    0  502    0  0.00000000000E+00  0.00000000000E+00  0.26262954936E+04  0.26262954936E+04  0.00000000000E+00 0. -1.
          1   -1    0    0  501    0 -0.00000000000E+00 -0.00000000000E+00 -0.49675655898E+02  0.49675655898E+02  0.00000000000E+00 0. -1.
         25    2    1    2    0    0  0.11127793689E+01 -0.28484316050E+02  0.30411000170E+03  0.33003203211E+03  0.12500261815E+03 0.  0.
          2    1    1    2  501    0  0.87480203991E+02  0.52303438538E+02  0.36823876724E+02  0.10837173834E+03  0.00000000000E+00 0. -1.
          1    1    1    2  502    0 -0.88592983360E+02 -0.23819122488E+02  0.22356859592E+04  0.22375673790E+04  0.00000000000E+00 0. -1.
         22    1    3    3    0    0  0.10796529052E+02 -0.72131363621E+02  0.24676769204E+03  0.25732040823E+03  0.00000000000E+00 0. -1.
         22    1    3    3    0    0 -0.96837496832E+01  0.43647047571E+02  0.57342309664E+02  0.72711623879E+02  0.00000000000E+00 0. -1.
</event>
<event>
 7    1  0.6508013E-006  0.2738532E+03  0.7818608E-02  0.1204595E+00
          2   -1    0    0  502    0  0.00000000000E+00  0.00000000000E+00  0.95681427914E+03  0.95681427914E+03  0.00000000000E+00 0. -1.
          1   -1    0    0  501    0 -0.00000000000E+00 -0.00000000000E+00 -0.16653517792E+03  0.16653517792E+03  0.00000000000E+00 0. -1.
         25    2    1    2    0    0 -0.22307420646E+03 -0.56186080532E+02  0.28487267169E+03  0.38690679599E+03  0.12500180988E+03 0.  0.
          2    1    1    2  501    0 -0.78317699993E+02 -0.64014111151E+01 -0.55788597918E+02  0.96369122929E+02  0.00000000000E+00 0. -1.
          1    1    1    2  502    0  0.30139190645E+03  0.62587491647E+02  0.56119502745E+03  0.64007353813E+03  0.00000000000E+00 0. -1.
         22    1    3    3    0    0 -0.14026096311E+03 -0.89863779590E+02  0.22228885648E+03  0.27777863916E+03  0.00000000000E+00 0.  1.
         22    1    3    3    0    0 -0.82813243351E+02  0.33677699058E+02  0.62583815208E+02  0.10912815683E+03  0.00000000000E+00 0.  1.
</event>
<event>
 7    1  0.6508013E-006  0.1246504E+03  0.7818608E-02  0.1314968E+00
          2   -1    0    0  502    0  0.00000000000E+00  0.00000000000E+00  0.14529542876E+04  0.14529542876E+04  0.00000000000E+00 0. -1.
          1   -1    0    0  501    0 -0.00000000000E+00 -0.00000000000E+00 -0.19550666738E+03  0.19550666738E+03  0.00000000000E+00 0. -1.
         25    2    1    2    0    0 -0.16117880837E+03 -0.33892237399E+02  0.59698069391E+03  0.63177428174E+03  0.12500200855E+03 0.  0.
          2    1    1    2  501    0  0.45098359817E+02  0.36795831078E+02 -0.16920112148E+03  0.17893243069E+03  0.00000000000E+00 0. -1.
          1    1    1    2  502    0  0.11608044855E+03 -0.29035936787E+01  0.82966804776E+03  0.83775424252E+03  0.00000000000E+00 0. -1.
         22    1    3    3    0    0 -0.23300609509E+02 -0.35893267967E+02  0.31489090359E+03  0.31778534619E+03  0.00000000000E+00 0.  1.
         22    1    3    3    0    0 -0.13787819886E+03  0.20010305678E+01  0.28208979032E+03  0.31398893555E+03  0.00000000000E+00 0.  1.
</event>
<event>
 7    1  0.6508013E-006  0.1510211E+03  0.7818608E-02  0.1215554E+00
          2   -1    0    0  502    0  0.00000000000E+00  0.00000000000E+00  0.21363898632E+04  0.21363898632E+04  0.00000000000E+00 0. -1.
          1   -1    0    0  501    0 -0.00000000000E+00 -0.00000000000E+00 -0.16968702364E+04  0.16968702364E+04  0.00000000000E+00 0. -1.
         25    2    1    2    0    0 -0.44109144238E+02 -0.18605379566E+03  0.11959384521E+02  0.22874306176E+03  0.12497491724E+03 0.  0.
          2    1    1    2  501    0 -0.79377084810E+02  0.98827825078E+02 -0.15831071017E+04  0.15881737172E+04  0.00000000000E+00 0. -1.
          1    1    1    2  502    0  0.12348622905E+03  0.87225970584E+02  0.20106673439E+04  0.20163433206E+04  0.00000000000E+00 0. -1.
         22    1    3    3    0    0 -0.36936624099E+02 -0.20387732346E+03  0.19482264800E+02  0.20811015319E+03  0.00000000000E+00 0.  1.
         22    1    3    3    0    0 -0.71725201386E+01  0.17823527794E+02 -0.75228802787E+01  0.20632908565E+02  0.00000000000E+00 0.  1.
</event>
<event>
 7    1  0.6508013E-006  0.2997027E+02  0.7818608E-02  0.1663150E+00
          2   -1    0    0  502    0  0.00000000000E+00  0.00000000000E+00  0.41053320477E+02  0.41053320477E+02  0.00000000000E+00 0. -1.
          1   -1    0    0  501    0 -0.00000000000E+00 -0.00000000000E+00 -0.53134015376E+03  0.53134015376E+03  0.00000000000E+00 0. -1.
         25    2    1    2    0    0 -0.16311177388E+02  0.11063564276E+02 -0.33382115566E+03  0.35700070845E+03  0.12499793961E+03 0.  0.
          2    1    1    2  501    0  0.90752175272E+01 -0.30357564950E+02 -0.18077164517E+03  0.18352746121E+03  0.00000000000E+00 0. -1.
          1    1    1    2  502    0  0.72359598609E+01  0.19294000674E+02  0.24305967545E+02  0.31865304571E+02  0.00000000000E+00 0. -1.
         22    1    3    3    0    0  0.51100391767E+02  0.23455032337E+02 -0.18054646760E+03  0.18909895701E+03  0.00000000000E+00 0. -1.
         22    1    3    3    0    0 -0.67411569155E+02 -0.12391468061E+02 -0.15327468806E+03  0.16790175144E+03  0.00000000000E+00 0. -1.
</event>
<event>
 7    1  0.6508013E-006  0.5034929E+02  0.7818608E-02  0.1449212E+00
          2   -1    0    0  502    0  0.00000000000E+00  0.00000000000E+00  0.78791404419E+03  0.78791404419E+03  0.00000000000E+00 0. -1.
          1   -1    0    0  501    0 -0.00000000000E+00 -0.00000000000E+00 -0.61464018761E+03  0.61464018761E+03  0.00000000000E+00 0. -1.
         25    2    1    2    0    0 -0.53446578347E+02 -0.20871920461E+02 -0.24011834163E+03  0.27671794471E+03  0.12499531645E+03 0.  0.
          2    1    1    2  501    0  0.39589731958E+02 -0.27584681748E+02 -0.35375738079E+03  0.35703297607E+03  0.00000000000E+00 0. -1.
          1    1    1    2  502    0  0.13856846389E+02  0.48456602209E+02  0.76714957899E+03  0.76880331102E+03  0.00000000000E+00 0. -1.
         22    1    3    3    0    0 -0.53459402061E+02 -0.45201854418E+02 -0.24237546476E+03  0.25228353340E+03  0.00000000000E+00 0. -1.
         22    1    3    3    0    0  0.12823713814E-01  0.24329933957E+02  0.22571231268E+01  0.24434411301E+02  0.00000000000E+00 0. -1.
</event>
<event>
 7    1  0.6508013E-006  0.2158785E+03  0.7818608E-02  0.1202489E+00
          2   -1    0    0  502    0  0.00000000000E+00  0.00000000000E+00  0.39847947921E+04  0.39847947921E+04  0.00000000000E+00 0. -1.
          1   -1    0    0  501    0 -0.00000000000E+00 -0.00000000000E+00 -0.40939489827E+03  0.40939489827E+03  0.00000000000E+00 0. -1.
         25    2    1    2    0    0  0.25349960275E+03  0.72089807731E+01  0.20893124511E+03  0.35155638988E+03  0.12500244829E+03 0.  0.
          2    1    1    2  501    0 -0.19370408965E+03 -0.89811034574E+02 -0.30359315591E+03  0.37115508968E+03  0.00000000000E+00 0. -1.
          1    1    1    2  502    0 -0.59795513099E+02  0.82602053801E+02  0.36700618046E+04  0.36714782108E+04  0.00000000000E+00 0. -1.
         22    1    3    3    0    0  0.80053884189E+02  0.61059603942E+02  0.65209435566E+02  0.11995486690E+03  0.00000000000E+00 0.  1.
         22    1    3    3    0    0  0.17344571856E+03 -0.53850623169E+02  0.14372180955E+03  0.23160152297E+03  0.00000000000E+00 0.  1.
</event>
<event>
 7    1  0.6508013E-006  0.1065808E+03  0.7818608E-02  0.1269036E+00
          2   -1    0    0  502    0  0.00000000000E+00  0.00000000000E+00  0.24649812359E+03  0.24649812359E+03  0.00000000000E+00 0. -1.
          1   -1    0    0  501    0 -0.00000000000E+00 -0.00000000000E+00 -0.18222965751E+04  0.18222965751E+04  0.00000000000E+00 0. -1.
         25    2    1    2    0    0  0.45809233904E+02 -0.56446540465E+02 -0.31329623011E+02  0.14795835902E+03  0.12500173152E+03 0.  0.
          2    1    1    2  501    0  0.50839591772E+02  0.96272496653E+02 -0.17162769350E+04  0.17197265990E+04  0.00000000000E+00 0. -1.
          1    1    1    2  502    0 -0.96648825676E+02 -0.39825956188E+02  0.17180810656E+03  0.20110974061E+03  0.00000000000E+00 0. -1.
         22    1    3    3    0    0  0.48342810536E+02  0.24982738390E+02  0.11941170632E+02  0.55711364227E+02  0.00000000000E+00 0. -1.
         22    1    3    3    0    0 -0.25335766322E+01 -0.81429278855E+02 -0.43270793643E+02  0.92246994790E+02  0.00000000000E+00 0. -1.
</event>
<event>
 7    1  0.6508013E-006  0.6942460E+02  0.7818608E-02  0.1367784E+00
          2   -1    0    0  502    0  0.00000000000E+00  0.00000000000E+00  0.24485569899E+04  0.24485569899E+04  0.00000000000E+00 0. -1.
          1   -1    0    0  501    0 -0.00000000000E+00 -0.00000000000E+00 -0.13739545198E+04  0.13739545198E+04  0.00000000000E+00 0. -1.
         25    2    1    2    0    0 -0.12871245699E+02  0.32596412354E+01  0.15050119359E+03  0.19608894318E+03  0.12499588049E+03 0.  0.
          2    1    1    2  501    0  0.81714691306E+01 -0.69280526718E+02 -0.13497783357E+04  0.13515798607E+04  0.00000000000E+00 0. -1.
          1    1    1    2  502    0  0.46997765686E+01  0.66020885483E+02  0.22738796123E+04  0.22748427058E+04  0.00000000000E+00 0. -1.
         22    1    3    3    0    0  0.50274687717E+02  0.13604092811E+02  0.10613402060E+03  0.11822455707E+03  0.00000000000E+00 0.  1.
         22    1    3    3    0    0 -0.63145933416E+02 -0.10344451575E+02  0.44367172990E+02  0.77864386111E+02  0.00000000000E+00 0.  1.
</event>
<event>
 7    1  0.6508013E-006  0.8265163E+02  0.7818608E-02  0.1381589E+00
          2   -1    0    0  502    0  0.00000000000E+00  0.00000000000E+00  0.36496810300E+03  0.36496810300E+03  0.00000000000E+00 0. -1.
          1   -1    0    0  501    0 -0.00000000000E+00 -0.00000000000E+00 -0.10495949562E+03  0.10495949562E+03  0.00000000000E+00 0. -1.
         25    2    1    2    0    0  0.41312373813E+01 -0.10992286863E+03  0.16321808415E+02  0.16730820873E+03  0.12500212442E+03 0.  0.
          2    1    1    2  501    0 -0.26317529465E+02  0.65526042700E+02  0.19856188635E+02  0.73352183718E+02  0.00000000000E+00 0. -1.
          1    1    1    2  502    0  0.22186292084E+02  0.44396825930E+02  0.22383061033E+03  0.22926720618E+03  0.00000000000E+00 0. -1.
         22    1    3    3    0    0 -0.32838963910E+02 -0.15984741995E+02  0.49077202575E+02  0.61175823165E+02  0.00000000000E+00 0. -1.
         22    1    3    3    0    0  0.36970201291E+02 -0.93938126635E+02 -0.32755394160E+02  0.10613238557E+03  0.00000000000E+00 0. -1.
</event>
<event>
 7    1  0.6508013E-006  0.3927771E+02  0.7818608E-02  0.1529755E+00
          2   -1    0    0  502    0  0.00000000000E+00  0.00000000000E+00  0.14786373472E+04  0.14786373472E+04  0.00000000000E+00 0. -1.
          1   -1    0    0  501    0 -0.00000000000E+00 -0.00000000000E+00 -0.65100463932E+03  0.65100463932E+03  0.00000000000E+00 0. -1.
         25    2    1    2    0    0  0.41395081971E+02  0.12120925867E+02 -0.14152454292E+02  0.13298807161E+03  0.12500026229E+03 0.  0.
          2    1    1    2  501    0 -0.15616476042E+02 -0.36182684294E+02 -0.57654257276E+03  0.57788787768E+03  0.00000000000E+00 0. -1.
          1    1    1    2  502    0 -0.25778605929E+02  0.24061758427E+02  0.14183277349E+04  0.14187660372E+04  0.00000000000E+00 0. -1.
         22    1    3    3    0    0  0.78560055370E+02  0.37385008857E+02 -0.13509921246E+02  0.88044529410E+02  0.00000000000E+00 0. -1.
         22    1    3    3    0    0 -0.37164973399E+02 -0.25264082990E+02 -0.64253304617E+00  0.44943542203E+02  0.00000000000E+00 0. -1.
</event>
<event>
 7    1  0.6508013E-006  0.7707958E+02  0.7818608E-02  0.1454266E+00
          2   -1    0    0  502    0  0.00000000000E+00  0.00000000000E+00  0.17751325806E+04  0.17751325806E+04  0.00000000000E+00 0. -1.
          1   -1    0    0  501    0 -0.00000000000E+00 -0.00000000000E+00 -0.31260754967E+03  0.31260754967E+03  0.00000000000E+00 0. -1.
         25    2    1    2    0    0 -0.47173309452E+01 -0.57360751554E+02  0.93924164008E+02  0.16662029385E+03  0.12501225823E+03 0.  0.
          2    1    1    2  501    0 -0.27248667026E+02 -0.13409663001E+02 -0.27450506494E+03  0.27617990440E+03  0.00000000000E+00 0. -1.
          1    1    1    2  502    0  0.31965997971E+02  0.70770414555E+02  0.16431059318E+04  0.16449399320E+04  0.00000000000E+00 0. -1.
         22    1    3    3    0    0  0.60124556540E+02 -0.30609503719E+02  0.44880994284E+02  0.81032139704E+02  0.00000000000E+00 0. -1.
         22    1    3    3    0    0 -0.64841887485E+02 -0.26751247836E+02  0.49043169723E+02  0.85588154144E+02  0.00000000000E+00 0. -1.
</event>
<event>
 7    1  0.6508013E-006  0.6516811E+02  0.7818608E-02  0.1486155E+00
          2   -1    0    0  502    0  0.00000000000E+00  0.00000000000E+00  0.13245967842E+04  0.13245967842E+04  0.00000000000E+00 0. -1.
          1   -1    0    0  501    0 -0.00000000000E+00 -0.00000000000E+00 -0.31946336948E+03  0.31946336948E+03  0.00000000000E+00 0. -1.
         25    2    1    2    0    0  0.38192381061E+02 -0.46204589092E+02  0.77307193509E+03  0.78540318579E+03  0.12499770156E+03 0.  0.
          2    1    1    2  501    0  0.23426009036E+02  0.16383279325E+02 -0.31049037203E+03  0.31180356134E+03  0.00000000000E+00 0. -1.
          1    1    1    2  502    0 -0.61618390097E+02  0.29821309767E+02  0.54255185161E+03  0.54685340650E+03  0.00000000000E+00 0. -1.
         22    1    3    3    0    0  0.74134700098E+01 -0.78445069191E+02  0.64502753235E+03  0.64982236489E+03  0.00000000000E+00 0.  1.
         22    1    3    3    0    0  0.30778911051E+02  0.32240480100E+02  0.12804440274E+03  0.13558082090E+03  0.00000000000E+00 0.  1.
</event>
<event>
 7    1  0.6508013E-006  0.3264567E+03  0.7818608E-02  0.1194076E+00
          2   -1    0    0  502    0  0.00000000000E+00  0.00000000000E+00  0.23050458640E+04  0.23050458640E+04  0.00000000000E+00 0. -1.
          1   -1    0    0  501    0 -0.00000000000E+00 -0.00000000000E+00 -0.47155314947E+03  0.47155314947E+03  0.00000000000E+00 0. -1.
         25    2    1    2    0    0 -0.19346634264E+03 -0.30756456189E+03  0.11729384795E+03  0.40175559058E+03  0.12499808929E+03 0.  0.
          2    1    1    2  501    0  0.21141061516E+03  0.23587225507E+03 -0.25230404802E+03  0.40495370298E+03  0.00000000000E+00 0. -1.
          1    1    1    2  502    0 -0.17944272514E+02  0.71692306821E+02  0.19685029146E+04  0.19698897199E+04  0.00000000000E+00 0. -1.
         22    1    3    3    0    0 -0.13937486480E+03 -0.28466045434E+03  0.12840719670E+03  0.34197271144E+03  0.00000000000E+00 0. -1.
         22    1    3    3    0    0 -0.54091477841E+02 -0.22904107553E+02 -0.11113348753E+02  0.59782879141E+02  0.00000000000E+00 0. -1.
</event>
<event>
 7    1  0.6508013E-006  0.6478231E+02  0.7818608E-02  0.1413622E+00
          2   -1    0    0  502    0  0.00000000000E+00  0.00000000000E+00  0.55024513748E+02  0.55024513748E+02  0.00000000000E+00 0. -1.
          1   -1    0    0  501    0 -0.00000000000E+00 -0.00000000000E+00 -0.11284186680E+04  0.11284186680E+04  0.00000000000E+00 0. -1.
         25    2    1    2    0    0 -0.63145485313E+02  0.26271454131E+02 -0.20077711264E+03  0.24619495353E+03  0.12499185801E+03 0.  0.
          2    1    1    2  501    0  0.47055899793E+00 -0.49088624190E+02 -0.86906946629E+03  0.87045485333E+03  0.00000000000E+00 0. -1.
          1    1    1    2  502    0  0.62674926315E+02  0.22817170059E+02 -0.35475753304E+01  0.66793374887E+02  0.00000000000E+00 0. -1.
         22    1    3    3    0    0  0.36672012919E+02  0.42123452603E+01 -0.31897402666E+02  0.48785496625E+02  0.00000000000E+00 0.  1.
         22    1    3    3    0    0 -0.99817498232E+02  0.22059108871E+02 -0.16887970997E+03  0.19740945691E+03  0.00000000000E+00 0.  1.
</event>
<event>
 7    1  0.6508013E-006  0.1655712E+03  0.7818608E-02  0.1334741E+00
          2   -1    0    0  502    0  0.00000000000E+00  0.00000000000E+00  0.11567338158E+04  0.11567338158E+04  0.00000000000E+00 0. -1.
          1   -1    0    0  501    0 -0.00000000000E+00 -0.00000000000E+00 -0.42052699512E+03  0.42052699512E+03  0.00000000000E+00 0. -1.
         25    2    1    2    0    0  0.18005148587E+03 -0.85696330495E+02  0.19860240590E+03  0.30794582663E+03  0.12500127154E+03 0.  0.
          2    1    1    2  501    0 -0.14960807811E+03  0.65070965150E+02 -0.34726633940E+03  0.38368048950E+03  0.00000000000E+00 0. -1.
          1    1    1    2  502    0 -0.30443407762E+02  0.20625365346E+02  0.88487075419E+03  0.88563449481E+03  0.00000000000E+00 0. -1.
         22    1    3    3    0    0  0.10030928803E+03 -0.39386892492E+02  0.23874963775E+02  0.11037796185E+03  0.00000000000E+00 0. -1.
         22    1    3    3    0    0  0.79742197836E+02 -0.46309438003E+02  0.17472744213E+03  0.19756786479E+03  0.00000000000E+00 0. -1.
</event>
<event>
 7    1  0.6508013E-006  0.1327654E+03  0.7818608E-02  0.1316457E+00
          2   -1    0    0  502    0  0.00000000000E+00  0.00000000000E+00  0.20113423848E+04  0.20113423848E+04  0.00000000000E+00 0. -1.
          1   -1    0    0  501    0 -0.00000000000E+00 -0.00000000000E+00 -0.62394876143E+02  0.62394876143E+02  0.00000000000E+00 0. -1.
         25    2    1    2    0    0  0.10109614469E+03 -0.65178996421E+02  0.29578750216E+03  0.34290399886E+03  0.12499669578E+03 0.  0.
          2    1    1    2  501    0  0.32357344658E+02  0.43132169807E+02 -0.15966980831E+02  0.56234565015E+02  0.00000000000E+00 0. -1.
          1    1    1    2  502    0 -0.13345348935E+03  0.22046826614E+02  0.16691269873E+04  0.16745986971E+04  0.00000000000E+00 0. -1.
         22    1    3    3    0    0  0.11584500945E+03 -0.56261234521E+02  0.15705531962E+03  0.20310530802E+03  0.00000000000E+00 0. -1.
         22    1    3    3    0    0 -0.14748864762E+02 -0.89177619005E+01  0.13873218254E+03  0.13979869084E+03  0.00000000000E+00 0. -1.
</event>
<event>
 7    1  0.6508013E-006  0.3613341E+02  0.7818608E-02  0.1547056E+00
          2   -1    0    0  502    0  0.00000000000E+00  0.00000000000E+00  0.22923311177E+03  0.22923311177E+03  0.00000000000E+00 0. -1.
          1   -1    0    0  501    0 -0.00000000000E+00 -0.00000000000E+00 -0.48557861836E+03  0.48557861836E+03  0.00000000000E+00 0. -1.
         25    2    1    2    0    0 -0.11726451961E+02 -0.28056734937E+02 -0.27102374134E+03  0.30000571237E+03  0.12499947615E+03 0.  0.
          2    1    1    2  501    0 -0.22344863882E+02  0.31461518145E+02 -0.19681322769E+03  0.20056063088E+03  0.00000000000E+00 0. -1.
          1    1    1    2  502    0  0.34071315843E+02 -0.34047832078E+01  0.21149146244E+03  0.21424538687E+03  0.00000000000E+00 0. -1.
         22    1    3    3    0    0 -0.25019981849E+02 -0.70230869358E+02 -0.10901516163E+03  0.13207073850E+03  0.00000000000E+00 0. -1.
         22    1    3    3    0    0  0.13293529888E+02  0.42174134422E+02 -0.16200857971E+03  0.16793497387E+03  0.00000000000E+00 0. -1.
</event>
<event>
 7    1  0.6508013E-006  0.8811700E+02  0.7818608E-02  0.1307718E+00
          2   -1    0    0  502    0  0.00000000000E+00  0.00000000000E+00  0.19178443610E+04  0.19178443610E+04  0.00000000000E+00 0. -1.
          1   -1    0    0  501    0 -0.00000000000E+00 -0.00000000000E+00 -0.63989425886E+03  0.63989425886E+03  0.00000000000E+00 0. -1.
         25    2    1    2    0    0  0.74813894710E+02  0.74716450442E+02  0.76265255940E+02  0.18061359031E+03  0.12500085173E+03 0.  0.
          2    1    1    2  501    0 -0.87878279197E+02  0.12230743753E+02 -0.58328323898E+03  0.58999281345E+03  0.00000000000E+00 0. -1.
          1    1    1    2  502    0  0.13064384486E+02 -0.86947194195E+02  0.17849680852E+04  0.17871322161E+04  0.00000000000E+00 0. -1.
         22    1    3    3    0    0 -0.26262742820E+02 -0.10288720919E+02  0.20327426725E+00  0.28206927500E+02  0.00000000000E+00 0. -1.
         22    1    3    3    0    0  0.10107663753E+03  0.85005171361E+02  0.76061981673E+02  0.15240666281E+03  0.00000000000E+00 0. -1.
</event>
<event>
 7    1  0.6508013E-006  0.8345263E+02  0.7818608E-02  0.1492350E+00
          2   -1    0    0  502    0  0.00000000000E+00  0.00000000000E+00  0.13812388643E+03  0.13812388643E+03  0.00000000000E+00 0. -1.
          1   -1    0    0  501    0 -0.00000000000E+00 -0.00000000000E+00 -0.48004447649E+03  0.48004447649E+03  0.00000000000E+00 0. -1.
         25    2    1    2    0    0  0.95501487377E+02  0.27450568672E+02 -0.24040294971E+03  0.28860449532E+03  0.12499963472E+03 0.  0.
          2    1    1    2  501    0 -0.74145036900E+02 -0.26458906536E+02 -0.20724654833E+03  0.22169504285E+03  0.00000000000E+00 0. -1.
          1    1    1    2  502    0 -0.21356450477E+02 -0.99166213697E+00  0.10572890797E+03  0.10786882475E+03  0.00000000000E+00 0. -1.
         22    1    3    3    0    0  0.57426073762E+02  0.62809590714E+02 -0.21403818819E+03  0.23033702402E+03  0.00000000000E+00 0. -1.
         22    1    3    3    0    0  0.38075413615E+02 -0.35359022042E+02 -0.26364761522E+02  0.58267471301E+02  0.00000000000E+00 0. -1.
</event>
<event>
 7    1  0.6508013E-006  0.5190650E+02  0.7818608E-02  0.1440896E+00
          2   -1    0    0  502    0  0.00000000000E+00  0.00000000000E+00  0.70971161902E+03  0.70971161902E+03  0.00000000000E+00 0. -1.
          1   -1    0    0  501    0 -0.00000000000E+00 -0.00000000000E+00 -0.16768200749E+04  0.16768200749E+04  0.00000000000E+00 0. -1.
         25    2    1    2    0    0  0.34107830086E+02 -0.13527926428E+02 -0.10146549625E+03  0.16512777680E+03  0.12500234747E+03 0.  0.
          2    1    1    2  501    0  0.35444132408E+01  0.49656828910E+02 -0.15421169391E+04  0.15429202888E+04  0.00000000000E+00 0. -1.
          1    1    1    2  502    0 -0.37652243326E+02 -0.36128902481E+02  0.67647397950E+03  0.67848362836E+03  0.00000000000E+00 0. -1.
         22    1    3    3    0    0  0.66329781121E+02 -0.48913465631E+02 -0.63585240862E+02  0.10409250616E+03  0.00000000000E+00 0.  1.
         22    1    3    3    0    0 -0.32221951035E+02  0.35385539202E+02 -0.37880255388E+02  0.61035270635E+02  0.00000000000E+00 0.  1.
</event>
<event>
 7    1  0.6508013E-006  0.4690258E+02  0.7818608E-02  0.1542808E+00
          2   -1    0    0  502    0  0.00000000000E+00  0.00000000000E+00  0.17258923417E+04  0.17258923417E+04  0.00000000000E+00 0. -1.
          1   -1    0    0  501    0 -0.00000000000E+00 -0.00000000000E+00 -0.99164860961E+01  0.99164860961E+01  0.00000000000E+00 0. -1.
         25    2    1    2    0    0 -0.44938079823E+02  0.56135457933E+02  0.12838074845E+04  0.12918810727E+04  0.12499771262E+03 0.  0.
          2    1    1    2  501    0  0.25720826046E+02 -0.37008242221E+02  0.89678867451E+02  0.10036667849E+03  0.00000000000E+00 0. -1.
          1    1    1    2  502    0  0.19217253777E+02 -0.19127215711E+02  0.34248950372E+03  0.34356107664E+03  0.00000000000E+00 0. -1.
         22    1    3    3    0    0 -0.86574970336E+02  0.23196531737E+02  0.89233545588E+03  0.89682544031E+03  0.00000000000E+00 0. -1.
         22    1    3    3    0    0  0.41636890512E+02  0.32938926196E+02  0.39147202859E+03  0.39505563238E+03  0.00000000000E+00 0. -1.
</event>
<event>
 7    1  0.6508013E-006  0.2139890E+03  0.7818608E-02  0.1327682E+00
          2   -1    0    0  502    0  0.00000000000E+00  0.00000000000E+00  0.14695881879E+04  0.14695881879E+04  0.00000000000E+00 0. -1.
          1   -1    0    0  501    0 -0.00000000000E+00 -0.00000000000E+00 -0.47490563162E+03  0.47490563162E+03  0.00000000000E+00 0. -1.
         25    2    1    2    0    0  0.19046929548E+03  0.96873566725E+02  0.99725029327E+03  0.10275189917E+04  0.12499636159E+03 0.  0.
          2    1    1    2  501    0 -0.17517890048E+03 -0.12299938380E+03 -0.43429990020E+03  0.48418271231E+03  0.00000000000E+00 0. -1.
          1    1    1    2  502    0 -0.15290395002E+02  0.26125817076E+02  0.43173216321E+03  0.43279211551E+03  0.00000000000E+00 0. -1.
         22    1    3    3    0    0  0.20178686144E+03  0.10944138351E+03  0.94973861059E+03  0.97708688576E+03  0.00000000000E+00 0.  1.
         22    1    3    3    0    0 -0.11317565960E+02 -0.12567816783E+02  0.47511682680E+02  0.50432105935E+02  0.00000000000E+00 0.  1.
</event>
<event>
 7    1  0.6508013E-006  0.8881259E+02  0.7818608E-02  0.1357097E+00
          2   -1    0    0  502    0  0.00000000000E+00  0.00000000000E+00  0.38076608688E+04  0.38076608688E+04  0.00000000000E+00 0. -1.
          1   -1    0    0  501    0 -0.00000000000E+00 -0.00000000000E+00 -0.10017077644E+02  0.10017077644E+02  0.00000000000E+00 0. -1.
         25    2    1    2    0    0 -0.77465062949E+02 -0.25922471734E+02  0.13643401007E+04  0.13724876073E+04  0.12500204497E+03 0.  0.
          2    1    1    2  501    0  0.54385149372E+02  0.77583429796E+02  0.39881694753E+03  0.40991693145E+03  0.00000000000E+00 0. -1.
          1    1    1    2  502    0  0.23079913576E+02 -0.51660958062E+02  0.20344867429E+04  0.20352734077E+04  0.00000000000E+00 0. -1.
         22    1    3    3    0    0 -0.19967214017E+02  0.12871310667E+02  0.41409769800E+02  0.47740227365E+02  0.00000000000E+00 0.  1.
         22    1    3    3    0    0 -0.57497848931E+02 -0.38793782402E+02  0.13229303309E+04  0.13247473799E+04  0.00000000000E+00 0.  1.
</event>
<event>
 7    1  0.6508013E-006  0.1262701E+03  0.7818608E-02  0.1245594E+00
          2   -1    0    0  502    0  0.00000000000E+00  0.00000000000E+00  0.16612382883E+04  0.16612382883E+04  0.00000000000E+00 0. -1.
          1   -1    0    0  501    0 -0.00000000000E+00 -0.00000000000E+00 -0.43129280011E+03  0.43129280011E+03  0.00000000000E+00 0. -1.
         25    2    1    2    0    0  0.39792240662E+02  0.20670667457E+03  0.28993394531E+03  0.37946943983E+03  0.12499716553E+03 0.  0.
          2    1    1    2  501    0  0.30473912049E+02 -0.10694921547E+03 -0.37564438324E+03  0.39175948828E+03  0.00000000000E+00 0. -1.
          1    1    1    2  502    0 -0.70266152711E+02 -0.99757459107E+02  0.13156559261E+04  0.13213021603E+04  0.00000000000E+00 0. -1.
         22    1    3    3    0    0  0.12164064162E+02  0.18891117248E+03  0.29034232646E+03  0.34660360944E+03  0.00000000000E+00 0.  1.
         22    1    3    3    0    0  0.27628176501E+02  0.17795502098E+02 -0.40838115661E+00  0.32865830384E+02  0.00000000000E+00 0.  1.
</event>
<event>
 7    1  0.6508013E-006  0.9305394E+02  0.7818608E-02  0.1372802E+00
          2   -1    0    0  502    0  0.00000000000E+00  0.00000000000E+00  0.86601265069E+02  0.86601265069E+02  0.00000000000E+00 0. -1.
          1   -1    0    0  501    0 -0.00000000000E+00 -0.00000000000E+00 -0.74400335771E+03  0.74400335771E+03  0.00000000000E+00 0. -1.
         25    2    1    2    0    0  0.91066809395E+02 -0.51435711110E+02 -0.43207549620E+02  0.16861321811E+03  0.12499891530E+03 0.  0.
          2    1    1    2  501    0 -0.51481846063E+02  0.77458804367E+02 -0.60698979606E+03  0.61407398525E+03  0.00000000000E+00 0. -1.
          1    1    1    2  502    0 -0.39584963332E+02 -0.26023093257E+02 -0.72047469655E+01  0.47917419416E+02  0.00000000000E+00 0. -1.
         22    1    3    3    0    0  0.19706911696E+02  0.10074060467E+02  0.38169835969E+02  0.44122391603E+02  0.00000000000E+00 0.  1.
         22    1    3    3    0    0  0.71359897698E+02 -0.61509771578E+02 -0.81377385588E+02  0.12449082651E+03  0.00000000000E+00 0.  1.
</event>
<event>
 7    1  0.6508013E-006  0.1213298E+03  0.7818608E-02  0.1360360E+00
          2   -1    0    0  502    0  0.00000000000E+00  0.00000000000E+00  0.11963290273E+04  0.11963290273E+04  0.00000000000E+00 0. -1.
          1   -1    0    0  501    0 -0.00000000000E+00 -0.00000000000E+00 -0.10640244661E+04  0.10640244661E+04  0.00000000000E+00 0. -1.
         25    2    1    2    0    0 -0.76787530588E+02 -0.37356594591E+02 -0.48131022390E+02  0.15885548209E+03  0.12500651527E+03 0.  0.
          2    1    1    2  501    0  0.11689192575E+03  0.41274212043E+02 -0.95617301612E+03  0.96417535730E+03  0.00000000000E+00 0. -1.
          1    1    1    2  502    0 -0.40104395160E+02 -0.39176174522E+01  0.11366085997E+04  0.11373226539E+04  0.00000000000E+00 0. -1.
         22    1    3    3    0    0  0.20346241517E+02  0.19825746688E+01 -0.50025023530E+02  0.54040754300E+02  0.00000000000E+00 0.  1.
         22    1    3    3    0    0 -0.97133772105E+02 -0.39339169259E+02  0.18940011399E+01  0.10481472779E+03  0.00000000000E+00 0.  1.
</event>
<event>
 7    1  0.6508013E-006  0.1649327E+03  0.7818608E-02  0.1359235E+00
          2   -1    0    0  502    0  0.00000000000E+00  0.00000000000E+00  0.15898104704E+04  0.15898104704E+04  0.00000000000E+00 0. -1.
          1   -1    0    0  501    0 -0.00000000000E+00 -0.00000000000E+00 -0.27558579647E+03  0.27558579647E+03  0.00000000000E+00 0. -1.
         25    2    1    2    0    0 -0.15551786415E+03 -0.94768371298E+02 -0.14560628654E+03  0.26456158977E+03  0.12499917533E+03 0.  0.
          2    1    1    2  501    0  0.43678679985E+01  0.29603586941E+02 -0.62677610017E+02  0.69454542170E+02  0.00000000000E+00 0. -1.
          1    1    1    2  502    0  0.15114999615E+03  0.65164784357E+02  0.15225085705E+04  0.15313801350E+04  0.00000000000E+00 0. -1.
         22    1    3    3    0    0 -0.11336545940E+03 -0.10745360960E+03 -0.58186561921E+02  0.16668437715E+03  0.00000000000E+00 0. -1.
         22    1    3    3    0    0 -0.42152404753E+02  0.12685238298E+02 -0.87419724617E+02  0.97877212615E+02  0.00000000000E+00 0. -1.
</event>
<event>
 7    1  0.6508013E-006  0.4341404E+02  0.7818608E-02  0.1572544E+00
          2   -1    0    0  502    0  0.00000000000E+00  0.00000000000E+00  0.16707116196E+04  0.16707116196E+04  0.00000000000E+00 0. -1.
          1   -1    0    0  501    0 -0.00000000000E+00 -0.00000000000E+00 -0.23643801094E+03  0.23643801094E+03  0.00000000000E+00 0. -1.
         25    2    1    2    0    0 -0.13072265636E+02 -0.14388273305E+02 -0.75790836624E+02  0.14746598822E+03  0.12499624086E+03 0.  0.
          2    1    1    2  501    0 -0.12473546869E+02 -0.20791473674E+02 -0.12334006703E+03  0.12570062404E+03  0.00000000000E+00 0. -1.
          1    1    1    2  502    0  0.25545812505E+02  0.35179746978E+02  0.16334045123E+04  0.16339830183E+04  0.00000000000E+00 0. -1.
         22    1    3    3    0    0 -0.19200330302E+02  0.50006274931E+02 -0.60868161921E+02  0.81081522876E+02  0.00000000000E+00 0. -1.
         22    1    3    3    0    0  0.61280646661E+01 -0.64394548236E+02 -0.14922674703E+02  0.66384465347E+02  0.00000000000E+00 0. -1.
</event>
<event>
 7    1  0.6508013E-006  0.1265674E+03  0.7818608E-02  0.1266982E+00
          2   -1    0    0  502    0  0.00000000000E+00  0.00000000000E+00  0.31358457825E+04  0.31358457825E+04  0.00000000000E+00 0. -1.
          1   -1    0    0  501    0 -0.00000000000E+00 -0.00000000000E+00 -0.29503992491E+03  0.29503992491E+03  0.00000000000E+00 0. -1.
         25    2    1    2    0    0  0.11174370211E+02  0.53317579050E+02 -0.10992693558E+03  0.17515122652E+03  0.12500556067E+03 0.  0.
          2    1    1    2  501    0 -0.64791894668E+02  0.62173190862E+02 -0.13785561124E+03  0.16452253592E+03  0.00000000000E+00 0. -1.
          1    1    1    2  502    0  0.53617524457E+02 -0.11549076991E+03  0.30885884044E+04  0.30912119450E+04  0.00000000000E+00 0. -1.
         22    1    3    3    0    0  0.15981596337E+02  0.41756159392E+02  0.16833424804E+02  0.47773972614E+02  0.00000000000E+00 0.  1.
         22    1    3    3    0    0 -0.48072261259E+01  0.11561419657E+02 -0.12676036038E+03  0.12737725390E+03  0.00000000000E+00 0.  1.
</event>
<event>
 7    1  0.6508013E-006  0.3425919E+02  0.7818608E-02  0.1616828E+00
          2   -1    0    0  502    0  0.00000000000E+00  0.00000000000E+00  0.12357806761E+04  0.12357806761E+04  0.00000000000E+00 0. -1.
          1   -1    0    0  501    0 -0.00000000000E+00 -0.00000000000E+00 -0.34175579327E+02  0.34175579327E+02  0.00000000000E+00 0. -1.
         25    2    1    2    0    0  0.55298296040E+02 -0.22848264642E+01  0.42724719814E+03  0.44858282040E+03  0.12499302565E+03 0.  0.
          2    1    1    2  501    0 -0.22729893653E+02 -0.59451970024E+01 -0.17190869026E+02  0.29112186636E+02  0.00000000000E+00 0. -1.
          1    1    1    2  502    0 -0.32568402387E+02  0.82300234665E+01  0.79154876768E+03  0.79226124841E+03  0.00000000000E+00 0. -1.
         22    1    3    3    0    0 -0.82362366741E+01 -0.17863041221E+01 -0.62259207857E+01  0.10478003941E+02  0.00000000000E+00 0.  1.
         22    1    3    3    0    0  0.63534532714E+02 -0.49852234200E+00  0.43347311893E+03  0.43810481646E+03  0.00000000000E+00 0.  1.
</event>
<event>
 7    1  0.6508013E-006  0.6894259E+02  0.7818608E-02  0.1432587E+00
          2   -1    0    0  502    0  0.00000000000E+00  0.00000000000E+00  0.65421201870E+03  0.65421201870E+03  0.00000000000E+00 0. -1.
          1   -1    0    0  501    0 -0.00000000000E+00 -0.00000000000E+00 -0.29432609724E+03  0.29432609724E+03  0.00000000000E+00 0. -1.
         25    2    1    2    0    0  0.87145206850E+02 -0.61175166537E+02  0.12851155567E+03  0.20850440527E+03  0.12498871548E+03 0.  0.
          2    1    1    2  501    0 -0.59948115348E+02  0.31988777418E+02 -0.24894947169E+03  0.25805599755E+03  0.00000000000E+00 0. -1.
          1    1    1    2  502    0 -0.27197091502E+02  0.29186389119E+02  0.48032383748E+03  0.48197771312E+03  0.00000000000E+00 0. -1.
         22    1    3    3    0    0  0.94541860372E+02 -0.83368431618E+02  0.67118261923E+02  0.14280518141E+03  0.00000000000E+00 0.  1.
         22    1    3    3    0    0 -0.73966535221E+01  0.22193265081E+02  0.61393293749E+02  0.65699223859E+02  0.00000000000E+00 0.  1.
</event>
<event>
 7    1  0.6508013E-006  0.2466620E+03  0.7818608E-02  0.1269362E+00
          2   -1    0    0  502    0  0.00000000000E+00  0.00000000000E+00  0.88499132431E+03  0.88499132431E+03  0.00000000000E+00 0. -1.
          1   -1    0    0  501    0 -0.00000000000E+00 -0.00000000000E+00 -0.28346233225E+03  0.28346233225E+03  0.00000000000E+00 0. -1.
         25    2    1    2    0    0 -0.97061075737E+02  0.25953657959E+03  0.28364391467E+03  0.41576322101E+03  0.12500038816E+03 0.  0.
          2    1    1    2  501    0  0.14528558800E+01 -0.45002128827E+02 -0.18886356612E+03  0.19415650645E+03  0.00000000000E+00 0. -1.
          1    1    1    2  502    0  0.95608219857E+02 -0.21453445077E+03  0.50674864351E+03  0.55853392911E+03  0.00000000000E+00 0. -1.
         22    1    3    3    0    0  0.11019999208E+02  0.14030758252E+03  0.15803643485E+03  0.21162035071E+03  0.00000000000E+00 0.  1.
         22    1    3    3    0    0 -0.10808107494E+03  0.11922899708E+03  0.12560747983E+03  0.20414287030E+03  0.00000000000E+00 0.  1.
</event>
<event>
 7    1  0.6508013E-006  0.1076065E+03  0.7818608E-02  0.1371824E+00
          2   -1    0    0  502    0  0.00000000000E+00  0.00000000000E+00  0.22980661128E+03  0.22980661128E+03  0.00000000000E+00 0. -1.
          1   -1    0    0  501    0 -0.00000000000E+00 -0.00000000000E+00 -0.13910197478E+04  0.13910197478E+04  0.00000000000E+00 0. -1.
         25    2    1    2    0    0 -0.78608195627E+02 -0.82438328847E+02  0.64253252347E+02  0.18091257023E+03  0.12500220457E+03 0.  0.
          2    1    1    2  501    0  0.37811916645E+02 -0.16606642593E+02 -0.13055288112E+04  0.13061818398E+04  0.00000000000E+00 0. -1.
          1    1    1    2  502    0  0.40796278981E+02  0.99044971441E+02  0.80062422319E+02  0.13373194911E+03  0.00000000000E+00 0. -1.
         22    1    3    3    0    0 -0.25882484210E+02  0.31015612723E+02  0.32477919095E+02  0.51833256219E+02  0.00000000000E+00 0.  1.
         22    1    3    3    0    0 -0.52725711416E+02 -0.11345394157E+03  0.31775333252E+02  0.12907931401E+03  0.00000000000E+00 0.  1.
</event>
<event>
 7    1  0.6508013E-006  0.1058503E+03  0.7818608E-02  0.1305830E+00
          2   -1    0    0  502    0  0.00000000000E+00  0.00000000000E+00  0.12825877470E+03  0.12825877470E+03  0.00000000000E+00 0. -1.
          1   -1    0    0  501    0 -0.00000000000E+00 -0.00000000000E+00 -0.33498884997E+04  0.33498884997E+04  0.00000000000E+00 0. -1.
         25    2    1    2    0    0 -0.12319146925E+03  0.12199753310E+03 -0.19364362647E+03  0.28841531233E+03  0.12500400848E+03 0.  0.
          2    1    1    2  501    0  0.57084613751E+02 -0.87720772867E+02 -0.30906423091E+04  0.30924138581E+04  0.00000000000E+00 0. -1.
          1    1    1    2  502    0  0.66106855495E+02 -0.34276760230E+02  0.62656210559E+02  0.97318103953E+02  0.00000000000E+00 0. -1.
         22    1    3    3    0    0 -0.47888619735E+01  0.86274803794E+02 -0.10639522661E+03  0.13706282944E+03  0.00000000000E+00 0.  1.
         22    1    3    3    0    0 -0.11840260727E+03  0.35722729303E+02 -0.87248399864E+02  0.15135248289E+03  0.00000000000E+00 0.  1.
</event>
<event>
 7    1  0.6508013E-006  0.7959522E+02  0.7818608E-02  0.1474370E+00
          2   -1    0    0  502    0  0.00000000000E+00  0.00000000000E+00  0.67661872543E+03  0.67661872543E+03  0.00000000000E+00 0. -1.
          1   -1    0    0  501    0 -0.00000000000E+00 -0.00000000000E+00 -0.16842394898E+04  0.16842394898E+04  0.00000000000E+00 0. -1.
         25    2    1    2    0    0 -0.45671657800E+02  0.74061249783E+02  0.47493987195E+03  0.49876456820E+03  0.12500897357E+03 0.  0.
          2    1    1    2  501    0 -0.10815758526E+02 -0.23022068431E+02 -0.16645905948E+04  0.16647849244E+04  0.00000000000E+00 0. -1.
          1    1    1    2  502    0  0.56487416326E+02 -0.51039181353E+02  0.18202995848E+03  0.19730872262E+03  0.00000000000E+00 0. -1.
         22    1    3    3    0    0 -0.50342508457E+02 -0.69017701053E+01  0.31875847680E+03  0.32278316115E+03  0.00000000000E+00 0. -1.
         22    1    3    3    0    0  0.46708506569E+01  0.80963019888E+02  0.15618139515E+03  0.17598140705E+03  0.00000000000E+00 0. -1.
</event>
<event>
 7    1  0.6508013E-006  0.9585568E+02  0.7818608E-02  0.1372543E+00
          2   -1    0    0  502    0  0.00000000000E+00  0.00000000000E+00  0.15753318208E+04  0.15753318208E+04  0.00000000000E+00 0. -1.
          1   -1    0    0  501    0 -0.00000000000E+00 -0.00000000000E+00 -0.22882784758E+03  0.22882784758E+03  0.00000000000E+00 0. -1.
         25    2    1    2    0    0 -0.10512539811E+02  0.69401839404E+02  0.19693082321E+03  0.24358338066E+03  0.12499594154E+03 0.  0.
          2    1    1    2  501    0  0.38890089444E+02  0.24728524047E+02 -0.20110836107E+03  0.20632138001E+03  0.00000000000E+00 0. -1.
          1    1    1    2  502    0 -0.28377549633E+02 -0.94130363451E+02  0.13506815110E+04  0.13542549077E+04  0.00000000000E+00 0. -1.
         22    1    3    3    0    0  0.53461947981E+02  0.69703786813E+01  0.70899803358E+02  0.89070467480E+02  0.00000000000E+00 0.  1.
         22    1    3    3    0    0 -0.63974487792E+02  0.62431460722E+02  0.12603101985E+03  0.15451291319E+03  0.00000000000E+00 0.  1.
</event>
<event>
 7    1  0.6508013E-006  0.1460064E+03  0.7818608E-02  0.1333780E+00
          2   -1    0    0  502    0  0.00000000000E+00  0.00000000000E+00  0.13949862694E+03  0.13949862694E+03  0.00000000000E+00 0. -1.
          1   -1    0    0  501    0 -0.00000000000E+00 -0.00000000000E+00 -0.64511990232E+03  0.64511990232E+03  0.00000000000E+00 0. -1.
         25    2    1    2    0    0 -0.11408911439E+03  0.92478958154E+02 -0.35847419867E+02  0.19615972760E+03  0.12499966998E+03 0.  0.
          2    1    1    2  501    0  0.13537834390E+03 -0.56214737231E+02 -0.50976827023E+03  0.53042537836E+03  0.00000000000E+00 0. -1.
          1    1    1    2  502    0 -0.21289229517E+02 -0.36264220922E+02  0.39994414714E+02  0.58033423308E+02  0.00000000000E+00 0. -1.
         22    1    3    3    0    0 -0.76354143519E+02 -0.32703105752E+01 -0.51362414332E+02  0.92080116039E+02  0.00000000000E+00 0.  1.
         22    1    3    3    0    0 -0.37734970869E+02  0.95749268729E+02  0.15514994465E+02  0.10407961156E+03  0.00000000000E+00 0.  1.
</event>
<event>
 7    1  0.6508013E-006  0.5226558E+02  0.7818608E-02  0.1457442E+00
          2   -1    0    0  502    0  0.00000000000E+00  0.00000000000E+00  0.68900965328E+02  0.68900965328E+02  0.00000000000E+00 0. -1.
          1   -1    0    0  501    0 -0.00000000000E+00 -0.00000000000E+00 -0.16011071022E+04  0.16011071022E+04  0.00000000000E+00 0. -1.
         25    2    1    2    0    0  0.24701985266E+02 -0.51664943556E+02 -0.26977004046E+03  0.30278853553E+03  0.12500227217E+03 0.  0.
          2    1    1    2  501    0  0.18984994018E+02  0.49125624096E+02 -0.13050652043E+04  0.13061274610E+04  0.00000000000E+00 0. -1.
          1    1    1    2  502    0 -0.43686979284E+02  0.25393194591E+01  0.42629107869E+02  0.61092071008E+02  0.00000000000E+00 0. -1.
         22    1    3    3    0    0  0.28449527417E+02 -0.72468738368E+02 -0.79227243388E+02  0.11107677411E+03  0.00000000000E+00 0. -1.
         22    1    3    3    0    0 -0.37475421503E+01  0.20803794813E+02 -0.19054279708E+03  0.19171176142E+03  0.00000000000E+00 0. -1.
</event>
<event>
 7    1  0.6508013E-006  0.4938217E+02  0.7818608E-02  0.1558140E+00
          2   -1    0    0  502    0  0.00000000000E+00  0.00000000000E+00  0.10221407031E+03  0.10221407031E+03  0.00000000000E+00 0. -1.
          1   -1    0    0  501    0 -0.00000000000E+00 -0.00000000000E+00 -0.31213694505E+03  0.31213694505E+03  0.00000000000E+00 0. -1.
         25    2    1    2    0    0 -0.44608758792E+02  0.52993377249E+02 -0.11856453498E+02  0.14340326281E+03  0.12500272358E+03 0.  0.
          2    1    1    2  501    0  0.37755283392E+02 -0.30683788511E+02 -0.22791970930E+03  0.23305439320E+03  0.00000000000E+00 0. -1.
          1    1    1    2  502    0  0.68534754005E+01 -0.22309588738E+02  0.29853288059E+02  0.37893359348E+02  0.00000000000E+00 0. -1.
         22    1    3    3    0    0 -0.27327645144E+02  0.87796775917E+02  0.18866810704E+02  0.93867090062E+02  0.00000000000E+00 0.  1.
         22    1    3    3    0    0 -0.17281113648E+02 -0.34803398668E+02 -0.30723264202E+02  0.49536172753E+02  0.00000000000E+00 0.  1.
</event>
<event>
 7    1  0.6508013E-006  0.3811944E+02  0.7818608E-02  0.1615574E+00
          2   -1    0    0  502    0  0.00000000000E+00  0.00000000000E+00  0.65299500303E+02  0.65299500303E+02  0.00000000000E+00 0. -1.
          1   -1    0    0  501    0 -0.00000000000E+00 -0.00000000000E+00 -0.86057594829E+03  0.86057594829E+03  0.00000000000E+00 0. -1.
         25    2    1    2    0    0 -0.22899382938E+02  0.46049890910E+02 -0.46131789199E+03  0.48069956908E+03  0.12495160683E+03 0.  0.
          2    1    1    2  501    0  0.19624806799E+02 -0.82074994938E+01 -0.38275099706E+03  0.38334165159E+03  0.00000000000E+00 0. -1.
          1    1    1    2  502    0  0.32745761389E+01 -0.37842391416E+02  0.48792441071E+02  0.61834227921E+02  0.00000000000E+00 0. -1.
         22    1    3    3    0    0  0.37465082022E+02  0.54817653878E+02 -0.31939529950E+03  0.32622379571E+03  0.00000000000E+00 0. -1.
         22    1    3    3    0    0 -0.60364464960E+02 -0.87677629686E+01 -0.14192259249E+03  0.15447577337E+03  0.00000000000E+00 0. -1.
</event>
<event>
 7    1  0.6508013E-006  0.4921325E+02  0.7818608E-02  0.1464913E+00
          2   -1    0    0  502    0  0.00000000000E+00  0.00000000000E+00  0.68513529191E+03  0.68513529191E+03  0.00000000000E+00 0. -1.
          1   -1    0    0  501    0 -0.00000000000E+00 -0.00000000000E+00 -0.42392021099E+02  0.42392021099E+02  0.00000000000E+00 0. -1.
         25    2    1    2    0    0  0.92167443019E+01  0.55409491621E+02  0.35886801512E+03  0.38414473839E+03  0.12500307046E+03 0.  0.
          2    1    1    2  501    0  0.33734752362E+02 -0.28285442106E+02 -0.10003125587E+02  0.45146010605E+02  0.00000000000E+00 0. -1.
          1    1    1    2  502    0 -0.42951496664E+02 -0.27124049515E+02  0.29387838128E+03  0.29823656401E+03  0.00000000000E+00 0. -1.
         22    1    3    3    0    0  0.46592376846E+02  0.54666054550E+02  0.10306703962E+03  0.12562659653E+03  0.00000000000E+00 0.  1.
         22    1    3    3    0    0 -0.37375632544E+02  0.74343707116E+00  0.25580097550E+03  0.25851814186E+03  0.00000000000E+00 0.  1.
</event>
<event>
 7    1  0.9614373E-006  0.7605679E+02  0.7818608E-02  0.1473138E+00
          2   -1    0    0  502    0  0.00000000000E+00  0.00000000000E+00  0.86579171936E+03  0.86579171936E+03  0.00000000000E+00 0. -1.
          1   -1    0    0  501    0 -0.00000000000E+00 -0.00000000000E+00 -0.12592540061E+04  0.12592540061E+04  0.00000000000E+00 0. -1.
         25    2    1    2    0    0  0.69064281786E+02  0.21156533678E+02 -0.69784980926E+03  0.71262614833E+03  0.12499678824E+03 0.  0.
          2    1    1    2  501    0  0.68607485161E+01 -0.25962939326E+02 -0.55200337259E+03  0.55265619280E+03  0.00000000000E+00 0. -1.
          1    1    1    2  502    0 -0.75925030302E+02  0.48064056486E+01  0.85639089512E+03  0.85976338431E+03  0.00000000000E+00 0. -1.
         22    1    3    3    0    0  0.11054517389E+02 -0.10346865665E+02 -0.40237013204E+01  0.15666848953E+02  0.00000000000E+00 0.  1.
         22    1    3    3    0    0  0.58009764396E+02  0.31503399342E+02 -0.69382610794E+03  0.69695929938E+03  0.00000000000E+00 0.  1.
</event>
<event>
 7    1  0.6508013E-006  0.4845214E+02  0.7818608E-02  0.1516465E+00
          2   -1    0    0  502    0  0.00000000000E+00  0.00000000000E+00  0.57775071329E+03  0.57775071329E+03  0.00000000000E+00 0. -1.
          1   -1    0    0  501    0 -0.00000000000E+00 -0.00000000000E+00 -0.23015355459E+03  0.23015355459E+03  0.00000000000E+00 0. -1.
         25    2    1    2    0    0 -0.55073873715E+02 -0.33112485353E+02  0.41208697594E+03  0.43539810901E+03  0.12500507727E+03 0.  0.
          2    1    1    2  501    0  0.48327768004E+02  0.26186729367E+01 -0.21418633841E+03  0.21958647083E+03  0.00000000000E+00 0. -1.
          1    1    1    2  502    0  0.67461057107E+01  0.30493812417E+02  0.14969652117E+03  0.15291968803E+03  0.00000000000E+00 0. -1.
         22    1    3    3    0    0  0.19749473760E+01 -0.10417342375E+02 -0.64308523159E+01  0.12400697594E+02  0.00000000000E+00 0.  1.
         22    1    3    3    0    0 -0.57048821091E+02 -0.22695142978E+02  0.41851782825E+03  0.42299741142E+03  0.00000000000E+00 0.  1.
</event>
<event>
 7    1  0.6508013E-006  0.5997913E+02  0.7818608E-02  0.1446786E+00
          2   -1    0    0  502    0  0.00000000000E+00  0.00000000000E+00  0.20890550831E+04  0.20890550831E+04  0.00000000000E+00 0. -1.
          1   -1    0    0  501    0 -0.00000000000E+00 -0.00000000000E+00 -0.13258416554E+04  0.13258416554E+04  0.00000000000E+00 0. -1.
         25    2    1    2    0    0 -0.16661310637E+02  0.85310929399E+02 -0.17388044616E+02  0.15324375125E+03  0.12500299698E+03 0.  0.
          2    1    1    2  501    0  0.35069148440E+02 -0.48409961715E+02 -0.12395950840E+04  0.12410355925E+04  0.00000000000E+00 0. -1.
          1    1    1    2  502    0 -0.18407837803E+02 -0.36900967684E+02  0.20201965563E+04  0.20206173948E+04  0.00000000000E+00 0. -1.
         22    1    3    3    0    0 -0.59020199675E+02  0.32764639403E+01 -0.14547859378E+02  0.60874948855E+02  0.00000000000E+00 0.  1.
         22    1    3    3    0    0  0.42358889038E+02  0.82034465459E+02 -0.28401852388E+01  0.92368802395E+02  0.00000000000E+00 0.  1.
</event>
<event>
 7    1  0.6508013E-006  0.3999310E+02  0.7818608E-02  0.1511301E+00
          2   -1    0    0  502    0  0.00000000000E+00  0.00000000000E+00  0.32084086882E+03  0.32084086882E+03  0.00000000000E+00 0. -1.
          1   -1    0    0  501    0 -0.00000000000E+00 -0.00000000000E+00 -0.20566721626E+04  0.20566721626E+04  0.00000000000E+00 0. -1.
         25    2    1    2    0    0 -0.22421535841E+02 -0.52438933682E+02 -0.61238221543E+03  0.62760632695E+03  0.12500062724E+03 0.  0.
          2    1    1    2  501    0 -0.14251823112E+02  0.36493316299E+02 -0.14351330941E+04  0.14356677451E+04  0.00000000000E+00 0. -1.
          1    1    1    2  502    0  0.36673358953E+02  0.15945617384E+02  0.31168401569E+03  0.31423895941E+03  0.00000000000E+00 0. -1.
         22    1    3    3    0    0  0.48245001861E+02 -0.37086809966E+02 -0.20444601295E+03  0.21331006514E+03  0.00000000000E+00 0.  1.
         22    1    3    3    0    0 -0.70666537702E+02 -0.15352123716E+02 -0.40793620248E+03  0.41429626181E+03  0.00000000000E+00 0.  1.
</event>
<event>
 7    1  0.6508013E-006  0.1093683E+03  0.7818608E-02  0.1326652E+00
          2   -1    0    0  502    0  0.00000000000E+00  0.00000000000E+00  0.25103812731E+04  0.25103812731E+04  0.00000000000E+00 0. -1.
          1   -1    0    0  501    0 -0.00000000000E+00 -0.00000000000E+00 -0.53591138863E+02  0.53591138863E+02  0.00000000000E+00 0. -1.
         25    2    1    2    0    0 -0.10620673872E+01  0.68433251735E+02  0.77780875130E+03  0.79075436693E+03  0.12498710850E+03 0.  0.
          2    1    1    2  501    0  0.27961638636E+02  0.52826736400E+02 -0.24947566414E+02  0.64768035202E+02  0.00000000000E+00 0. -1.
          1    1    1    2  502    0 -0.26899571249E+02 -0.12125998813E+03  0.17039289493E+04  0.17084500098E+04  0.00000000000E+00 0. -1.
         22    1    3    3    0    0 -0.91223400555E+01  0.72912765746E+02  0.77806724825E+03  0.78152935408E+03  0.00000000000E+00 0.  1.
         22    1    3    3    0    0  0.80602726683E+01 -0.44795140108E+01 -0.25849695344E+00  0.92250128420E+01  0.00000000000E+00 0.  1.
</event>
<event>
 7    1  0.6508013E-006  0.3918180E+02  0.7818608E-02  0.1611235E+00
          2   -1    0    0  502    0  0.00000000000E+00  0.00000000000E+00  0.14494173074E+04  0.14494173074E+04  0.00000000000E+00 0. -1.
          1   -1    0    0  501    0 -0.00000000000E+00 -0.00000000000E+00 -0.51473145012E+03  0.51473145012E+03  0.00000000000E+00 0. -1.
         25    2    1    2    0    0  0.34020677375E+02 -0.48309663993E+02 -0.22187322998E+03  0.26142485767E+03  0.12499598353E+03 0.  0.
          2    1    1    2  501    0 -0.22162048153E+02  0.30696664911E+02 -0.27169083639E+03  0.27431615372E+03  0.00000000000E+00 0. -1.
          1    1    1    2  502    0 -0.11858629222E+02  0.17612999082E+02  0.14282499237E+04  0.14284077462E+04  0.00000000000E+00 0. -1.
         22    1    3    3    0    0  0.24459463836E+02 -0.90979844277E+02 -0.15961318099E+03  0.18534283094E+03  0.00000000000E+00 0. -1.
         22    1    3    3    0    0  0.95612135386E+01  0.42670180284E+02 -0.62260048998E+02  0.76082026728E+02  0.00000000000E+00 0. -1.
</event>
<event>
 7    1  0.6508013E-006  0.7401266E+02  0.7818608E-02  0.1384810E+00
          2   -1    0    0  502    0  0.00000000000E+00  0.00000000000E+00  0.33984854800E+03  0.33984854800E+03  0.00000000000E+00 0. -1.
          1   -1    0    0  501    0 -0.00000000000E+00 -0.00000000000E+00 -0.11188511000E+04  0.11188511000E+04  0.00000000000E+00 0. -1.
         25    2    1    2    0    0 -0.65150577149E+02  0.10467205490E+03 -0.39540792636E+02  0.17996735127E+03  0.12499574576E+03 0.  0.
          2    1    1    2  501    0  0.38496457170E+02 -0.37861079613E+02 -0.10035609733E+04  0.10050124704E+04  0.00000000000E+00 0. -1.
          1    1    1    2  502    0  0.26654119979E+02 -0.66810975290E+02  0.26409921392E+03  0.27371982633E+03  0.00000000000E+00 0. -1.
         22    1    3    3    0    0 -0.54396209727E+02  0.12917582504E+03 -0.53205413810E+02  0.14992050382E+03  0.00000000000E+00 0.  1.
         22    1    3    3    0    0 -0.10754367422E+02 -0.24503770137E+02  0.13664621173E+02  0.30046847445E+02  0.00000000000E+00 0.  1.
</event>
<event>
 7    1  0.6508013E-006  0.6619931E+02  0.7818608E-02  0.1516115E+00
          2   -1    0    0  502    0  0.00000000000E+00  0.00000000000E+00  0.56560903813E+02  0.56560903813E+02  0.00000000000E+00 0. -1.
          1   -1    0    0  501    0 -0.00000000000E+00 -0.00000000000E+00 -0.72612005248E+03  0.72612005248E+03  0.00000000000E+00 0. -1.
         25    2    1    2    0    0 -0.31358016109E+02 -0.75539269594E+02 -0.10495766134E+03  0.18256813223E+03  0.12500202321E+03 0.  0.
          2    1    1    2  501    0  0.11243906888E+02  0.64566677777E+02 -0.57222468762E+03  0.57596560178E+03  0.00000000000E+00 0. -1.
          1    1    1    2  502    0  0.20114109221E+02  0.10972591817E+02  0.76232002898E+01  0.24147222275E+02  0.00000000000E+00 0. -1.
         22    1    3    3    0    0  0.46149239718E+02 -0.43474818000E+02 -0.60503064742E+02  0.87638079451E+02  0.00000000000E+00 0.  1.
         22    1    3    3    0    0 -0.77507255828E+02 -0.32064451593E+02 -0.44454596594E+02  0.94930052777E+02  0.00000000000E+00 0.  1.
</event>
<event>
 7    1  0.6508013E-006  0.4803163E+02  0.7818608E-02  0.1508649E+00
          2   -1    0    0  502    0  0.00000000000E+00  0.00000000000E+00  0.25608619785E+04  0.25608619785E+04  0.00000000000E+00 0. -1.
          1   -1    0    0  501    0 -0.00000000000E+00 -0.00000000000E+00 -0.35720910122E+02  0.35720910122E+02  0.00000000000E+00 0. -1.
         25    2    1    2    0    0 -0.29348008243E+02  0.60267034109E+01  0.68375490288E+03  0.69573202563E+03  0.12499863015E+03 0.  0.
          2    1    1    2  501    0  0.42097157237E+02  0.24641430344E+02 -0.94760297893E+01  0.49690702122E+02  0.00000000000E+00 0. -1.
          1    1    1    2  502    0 -0.12749148993E+02 -0.30668133755E+02  0.18508621953E+04  0.18511601609E+04  0.00000000000E+00 0. -1.
         22    1    3    3    0    0  0.18872537516E+01  0.37839533531E+02  0.63983587188E+02  0.74359205577E+02  0.00000000000E+00 0. -1.
         22    1    3    3    0    0 -0.31235261995E+02 -0.31812830120E+02  0.61977131569E+03  0.62137282006E+03  0.00000000000E+00 0. -1.
</event>
<event>
 7    1  0.6508013E-006  0.9007085E+02  0.7818608E-02  0.1416433E+00
          2   -1    0    0  502    0  0.00000000000E+00  0.00000000000E+00  0.27776125583E+03  0.27776125583E+03  0.00000000000E+00 0. -1.
          1   -1    0    0  501    0 -0.00000000000E+00 -0.00000000000E+00 -0.16127898043E+03  0.16127898043E+03  0.00000000000E+00 0. -1.
         25    2    1    2    0    0 -0.17330207154E+02  0.10421565236E+03  0.88003921878E+02  0.18583191608E+03  0.12501028955E+03 0.  0.
          2    1    1    2  501    0 -0.21792147973E+02 -0.26807080014E+02 -0.95696782895E+02  0.10174178841E+03  0.00000000000E+00 0. -1.
          1    1    1    2  502    0  0.39122355127E+02 -0.77408572341E+02  0.12417513641E+03  0.15146653177E+03  0.00000000000E+00 0. -1.
         22    1    3    3    0    0  0.23816274747E+02  0.27607723034E+02  0.91815138354E+02  0.98789781582E+02  0.00000000000E+00 0.  1.
         22    1    3    3    0    0 -0.41146481901E+02  0.76607929322E+02 -0.38112164763E+01  0.87042134503E+02  0.00000000000E+00 0.  1.
</event>
<event>
 7    1  0.6508013E-006  0.1118907E+03  0.7818608E-02  0.1434641E+00
          2   -1    0    0  502    0  0.00000000000E+00  0.00000000000E+00  0.17164532662E+03  0.17164532662E+03  0.00000000000E+00 0. -1.
          1   -1    0    0  501    0 -0.00000000000E+00 -0.00000000000E+00 -0.12766768093E+04  0.12766768093E+04  0.00000000000E+00 0. -1.
         25    2    1    2    0    0  0.13274108585E+03 -0.64899927397E+01 -0.10644080020E+04  0.10799314859E+04  0.12500121453E+03 0.  0.
          2    1    1    2  501    0 -0.22339324183E+02 -0.93141511484E+01 -0.18465112679E+03  0.18623060286E+03  0.00000000000E+00 0. -1.
          1    1    1    2  502    0 -0.11040176167E+03  0.15804143888E+02  0.14402764610E+03  0.18216004717E+03  0.00000000000E+00 0. -1.
         22    1    3    3    0    0  0.37191433526E+02 -0.46879700262E+02 -0.64954648140E+03  0.65229712595E+03  0.00000000000E+00 0.  1.
         22    1    3    3    0    0  0.95549652324E+02  0.40389707522E+02 -0.41486152062E+03  0.42763435996E+03  0.00000000000E+00 0.  1.
</event>
<event>
 7    1  0.6508013E-006  0.1305905E+03  0.7818608E-02  0.1338598E+00
          2   -1    0    0  502    0  0.00000000000E+00  0.00000000000E+00  0.11311429955E+04  0.11311429955E+04  0.00000000000E+00 0. -1.
          1   -1    0    0  501    0 -0.00000000000E+00 -0.00000000000E+00 -0.36835189292E+03  0.36835189292E+03  0.00000000000E+00 0. -1.
         25    2    1    2    0    0 -0.97098018346E+01  0.15566105637E+03  0.33667306080E+03  0.39153220262E+03  0.12499628434E+03 0.  0.
          2    1    1    2  501    0 -0.28348586903E+02 -0.35054275761E+02 -0.33418538712E+03  0.33721257034E+03  0.00000000000E+00 0. -1.
          1    1    1    2  502    0  0.38058388738E+02 -0.12060678061E+03  0.76030342895E+03  0.77075011550E+03  0.00000000000E+00 0. -1.
         22    1    3    3    0    0  0.15115968876E+01 -0.18021510743E+02  0.75817924877E+02  0.77944964605E+02  0.00000000000E+00 0. -1.
         22    1    3    3    0    0 -0.11221398722E+02  0.17368256711E+03  0.26085513592E+03  0.31358723801E+03  0.00000000000E+00 0. -1.
</event>
<event>
 7    1  0.6508013E-006  0.1124518E+03  0.7818608E-02  0.1256198E+00
          2   -1    0    0  502    0  0.00000000000E+00  0.00000000000E+00  0.60520466054E+03  0.60520466054E+03  0.00000000000E+00 0. -1.
          1   -1    0    0  501    0 -0.00000000000E+00 -0.00000000000E+00 -0.52341624514E+03  0.52341624514E+03  0.00000000000E+00 0. -1.
         25    2    1    2    0    0  0.42175029604E+01 -0.49831771912E+02 -0.12414228799E+03  0.18312922682E+03  0.12499605283E+03 0.  0.
          2    1    1    2  501    0  0.77703703297E+02  0.12686631473E+03 -0.34894508857E+03  0.37933573804E+03  0.00000000000E+00 0. -1.
          1    1    1    2  502    0 -0.81921206257E+02 -0.77034542819E+02  0.55487579196E+03  0.56615594082E+03  0.00000000000E+00 0. -1.
         22    1    3    3    0    0 -0.60084495354E+01  0.70293586153E+01 -0.12500784277E+03  0.12534940807E+03  0.00000000000E+00 0.  1.
         22    1    3    3    0    0  0.10225952496E+02 -0.56861130527E+02  0.86555478580E+00  0.57779818746E+02  0.00000000000E+00 0.  1.
</event>
<event>
 7    1  0.6508013E-006  0.3854682E+02  0.7818608E-02  0.1619781E+00
          2   -1    0    0  502    0  0.00000000000E+00  0.00000000000E+00  0.12662455635E+04  0.12662455635E+04  0.00000000000E+00 0. -1.
          1   -1    0    0  501    0 -0.00000000000E+00 -0.00000000000E+00 -0.16696655997E+02  0.16696655997E+02  0.00000000000E+00 0. -1.
         25    2    1    2    0    0  0.40848720077E+02  0.17202975024E+01  0.11228623324E+04  0.11305380835E+04  0.12499985365E+03 0.  0.
          2    1    1    2  501    0 -0.32893011852E+02 -0.20637381665E+02  0.12602480936E+03  0.13187154479E+03  0.00000000000E+00 0. -1.
          1    1    1    2  502    0 -0.79557082247E+01  0.18917084163E+02  0.66176573239E+00  0.20532591178E+02  0.00000000000E+00 0. -1.
         22    1    3    3    0    0  0.47886944274E+02 -0.88619868823E+01  0.11139534176E+04  0.11150174487E+04  0.00000000000E+00 0. -1.
         22    1    3    3    0    0 -0.70382241979E+01  0.10582284385E+02  0.89089147429E+01  0.15520634799E+02  0.00000000000E+00 0. -1.
</event>
<event>
 7    1  0.6508013E-006  0.2310145E+03  0.7818608E-02  0.1335639E+00
          2   -1    0    0  502    0  0.00000000000E+00  0.00000000000E+00  0.11609680011E+04  0.11609680011E+04  0.00000000000E+00 0. -1.
          1   -1    0    0  501    0 -0.00000000000E+00 -0.00000000000E+00 -0.33295187679E+03  0.33295187679E+03  0.00000000000E+00 0. -1.
         25    2    1    2    0    0  0.13610468732E+03 -0.17316655079E+03  0.89922846233E+02  0.26874299057E+03  0.12500214591E+03 0.  0.
          2    1    1    2  501    0 -0.12664620812E+03  0.19754566642E+03 -0.18679036672E+03  0.29992364603E+03  0.00000000000E+00 0. -1.
          1    1    1    2  502    0 -0.94584792098E+01 -0.24379115630E+02  0.92488364475E+03  0.92525324125E+03  0.00000000000E+00 0. -1.
         22    1    3    3    0    0  0.22505310355E+02 -0.10523284188E+02  0.64019852174E+02  0.68671464064E+02  0.00000000000E+00 0. -1.
         22    1    3    3    0    0  0.11359937697E+03 -0.16264326660E+03  0.25902994059E+02  0.20007152651E+03  0.00000000000E+00 0. -1.
</event>
<event>
 7    1  0.6508013E-006  0.1185774E+03  0.7818608E-02  0.1404067E+00
          2   -1    0    0  502    0  0.00000000000E+00  0.00000000000E+00  0.10721118595E+03  0.10721118595E+03  0.00000000000E+00 0. -1.
          1   -1    0    0  501    0 -0.00000000000E+00 -0.00000000000E+00 -0.61177905421E+03  0.61177905421E+03  0.00000000000E+00 0. -1.
         25    2    1    2    0    0  0.78289309895E+02  0.52314992779E+02 -0.52035658611E+03  0.54337999965E+03  0.12499909118E+03 0.  0.
          2    1    1    2  501    0  0.13720836517E+02  0.25434479609E+02 -0.34559822394E+02  0.45050587472E+02  0.00000000000E+00 0. -1.
          1    1    1    2  502    0 -0.92010146412E+02 -0.77749472388E+02  0.50348540240E+02  0.13055965305E+03  0.00000000000E+00 0. -1.
         22    1    3    3    0    0  0.53011855818E+01  0.78666899995E+02 -0.26916095439E+03  0.28047139443E+03  0.00000000000E+00 0. -1.
         22    1    3    3    0    0  0.72988124313E+02 -0.26351907216E+02 -0.25119563171E+03  0.26290860521E+03  0.00000000000E+00 0. -1.
</event>
<event>
 7    1  0.6508013E-006  0.5340625E+02  0.7818608E-02  0.1458287E+00
          2   -1    0    0  502    0  0.00000000000E+00  0.00000000000E+00  0.17958074459E+03  0.17958074459E+03  0.00000000000E+00 0. -1.
          1   -1    0    0  501    0 -0.00000000000E+00 -0.00000000000E+00 -0.18484552178E+03  0.18484552178E+03  0.00000000000E+00 0. -1.
         25    2    1    2    0    0  0.29889216101E+01 -0.59323905090E+02  0.84337394645E+01  0.13865177088E+03  0.12499970495E+03 0.  0.
          2    1    1    2  501    0 -0.39379635358E+02  0.37247856202E+02 -0.10881537223E+03  0.12156867897E+03  0.00000000000E+00 0. -1.
          1    1    1    2  502    0  0.36390713748E+02  0.22076048888E+02  0.95116855574E+02  0.10420581652E+03  0.00000000000E+00 0. -1.
         22    1    3    3    0    0  0.41513946949E+02 -0.49430417390E+01 -0.38743533050E+02  0.56999147416E+02  0.00000000000E+00 0. -1.
         22    1    3    3    0    0 -0.38525025339E+02 -0.54380863351E+02  0.47177272515E+02  0.81652623461E+02  0.00000000000E+00 0. -1.
</event>
<event>
 7    1  0.6508013E-006  0.7829753E+02  0.7818608E-02  0.1336843E+00
          2   -1    0    0  502    0  0.00000000000E+00  0.00000000000E+00  0.12024304425E+04  0.12024304425E+04  0.00000000000E+00 0. -1.
          1   -1    0    0  501    0 -0.00000000000E+00 -0.00000000000E+00 -0.72005206741E+03  0.72005206741E+03  0.00000000000E+00 0. -1.
         25    2    1    2    0    0 -0.41364515752E+02 -0.42027000871E+02  0.31649291987E+03  0.34535417801E+03  0.12499779189E+03 0.  0.
          2    1    1    2  501    0  0.73851754975E+02 -0.27064424517E+02 -0.70174799039E+03  0.70614220013E+03  0.00000000000E+00 0. -1.
          1    1    1    2  502    0 -0.32487239223E+02  0.69091425388E+02  0.86763344563E+03  0.87098613178E+03  0.00000000000E+00 0. -1.
         22    1    3    3    0    0 -0.95060675841E+01  0.22301887238E+02  0.38149711818E+01  0.24541668656E+02  0.00000000000E+00 0.  1.
         22    1    3    3    0    0 -0.31858448168E+02 -0.64328888109E+02  0.31267794868E+03  0.32081250935E+03  0.00000000000E+00 0.  1.
</event>
<event>
 7    1  0.6508013E-006  0.1507328E+03  0.7818608E-02  0.1301413E+00
          2   -1    0    0  502    0  0.00000000000E+00  0.00000000000E+00  0.97603602271E+03  0.97603602271E+03  0.00000000000E+00 0. -1.
          1   -1    0    0  501    0 -0.00000000000E+00 -0.00000000000E+00 -0.46301794544E+03  0.46301794544E+03  0.00000000000E+00 0. -1.
         25    2    1    2    0    0  0.19080386201E+03  0.71372516473E+02 -0.30585043458E+03  0.38816036712E+03  0.12499532951E+03 0.  0.
          2    1    1    2  501    0 -0.48305003960E+02 -0.25133620155E+02 -0.10322631802E+03  0.11670794746E+03  0.00000000000E+00 0. -1.
          1    1    1    2  502    0 -0.14249885805E+03 -0.46238896319E+02  0.92209482987E+03  0.93418565357E+03  0.00000000000E+00 0. -1.
         22    1    3    3    0    0  0.66311343913E+02 -0.27262481524E+02 -0.14685998179E+03  0.16342671594E+03  0.00000000000E+00 0. -1.
         22    1    3    3    0    0  0.12449251810E+03  0.98634997998E+02 -0.15899045279E+03  0.22473365118E+03  0.00000000000E+00 0. -1.
</event>
<event>
 7    1  0.6508013E-006  0.1050920E+03  0.7818608E-02  0.1314892E+00
          2   -1    0    0  502    0  0.00000000000E+00  0.00000000000E+00  0.10317502798E+04  0.10317502798E+04  0.00000000000E+00 0. -1.
          1   -1    0    0  501    0 -0.00000000000E+00 -0.00000000000E+00 -0.96055400383E+03  0.96055400383E+03  0.00000000000E+00 0. -1.
         25    2    1    2    0    0  0.10795645928E+03 -0.35006008094E+02  0.26202231244E+02  0.17085475598E+03  0.12499909206E+03 0.  0.
          2    1    1    2  501    0 -0.46613383461E+02 -0.50988537458E+02 -0.88388645537E+03  0.88658214761E+03  0.00000000000E+00 0. -1.
          1    1    1    2  502    0 -0.61343075817E+02  0.85994545552E+02  0.92888050007E+03  0.93486738002E+03  0.00000000000E+00 0. -1.
         22    1    3    3    0    0  0.92715605609E+02 -0.79292463376E+02  0.18830439864E+02  0.12344255238E+03  0.00000000000E+00 0.  1.
         22    1    3    3    0    0  0.15240853670E+02  0.44286455282E+02  0.73717913808E+01  0.47412203600E+02  0.00000000000E+00 0.  1.
</event>
<event>
 7    1  0.6508013E-006  0.1497494E+03  0.7818608E-02  0.1220686E+00
          2   -1    0    0  502    0  0.00000000000E+00  0.00000000000E+00  0.84127123269E+03  0.84127123269E+03  0.00000000000E+00 0. -1.
          1   -1    0    0  501    0 -0.00000000000E+00 -0.00000000000E+00 -0.66468311167E+03  0.66468311167E+03  0.00000000000E+00 0. -1.
         25    2    1    2    0    0  0.24863377733E+02  0.72451485953E+02  0.19673753122E+03  0.24535551711E+03  0.12500507278E+03 0.  0.
          2    1    1    2  501    0  0.31316910915E+02  0.11698981351E+03 -0.61861398602E+03  0.63035754067E+03  0.00000000000E+00 0. -1.
          1    1    1    2  502    0 -0.56180288648E+02 -0.18944129946E+03  0.59846457583E+03  0.63024128657E+03  0.00000000000E+00 0. -1.
         22    1    3    3    0    0  0.28390364714E+02  0.90245427680E+02  0.20473064562E+03  0.22553245284E+03  0.00000000000E+00 0. -1.
         22    1    3    3    0    0 -0.35269869808E+01 -0.17793941727E+02 -0.79931144078E+01  0.19823064276E+02  0.00000000000E+00 0. -1.
</event>
<event>
 7    1  0.6508013E-006  0.1372560E+03  0.7818608E-02  0.1266113E+00
          2   -1    0    0  502    0  0.00000000000E+00  0.00000000000E+00  0.15976184768E+04  0.15976184768E+04  0.00000000000E+00 0. -1.
          1   -1    0    0  501    0 -0.00000000000E+00 -0.00000000000E+00 -0.12366877894E+04  0.12366877894E+04  0.00000000000E+00 0. -1.
         25    2    1    2    0    0  0.41200979461E+02  0.14811060104E+03  0.16769833072E+03  0.25957912871E+03  0.12499729232E+03 0.  0.
          2    1    1    2  501    0 -0.10254147196E+03 -0.91446928571E+02 -0.11855165613E+04  0.11934516376E+04  0.00000000000E+00 0. -1.
          1    1    1    2  502    0  0.61340492497E+02 -0.56663672469E+02  0.13787489179E+04  0.13812754999E+04  0.00000000000E+00 0. -1.
         22    1    3    3    0    0  0.26996440936E+02  0.15614300658E+03  0.94316049187E+02  0.18440434773E+03  0.00000000000E+00 0.  1.
         22    1    3    3    0    0  0.14204538525E+02 -0.80324055366E+01  0.73382281535E+02  0.75174780989E+02  0.00000000000E+00 0.  1.
</event>
<event>
 7    1  0.6508013E-006  0.8408164E+02  0.7818608E-02  0.1350259E+00
          2   -1    0    0  502    0  0.00000000000E+00  0.00000000000E+00  0.35561522070E+03  0.35561522070E+03  0.00000000000E+00 0. -1.
          1   -1    0    0  501    0 -0.00000000000E+00 -0.00000000000E+00 -0.18391693995E+04  0.18391693995E+04  0.00000000000E+00 0. -1.
         25    2    1    2    0    0 -0.29028051766E+02  0.84106370703E+02 -0.57244540873E+03  0.59265025031E+03  0.12499625525E+03 0.  0.
          2    1    1    2  501    0  0.75800989837E+02 -0.41401738320E+02 -0.12522189592E+04  0.12551940948E+04  0.00000000000E+00 0. -1.
          1    1    1    2  502    0 -0.46772938071E+02 -0.42704632382E+02  0.34111018910E+03  0.34694027507E+03  0.00000000000E+00 0. -1.
         22    1    3    3    0    0 -0.93115976949E+01  0.69230192554E+02 -0.11510100159E+03  0.13463939238E+03  0.00000000000E+00 0. -1.
         22    1    3    3    0    0 -0.19716454071E+02  0.14876178149E+02 -0.45734440714E+03  0.45801085793E+03  0.00000000000E+00 0. -1.
</event>
<event>
 7    1  0.6508013E-006  0.9211782E+02  0.7818608E-02  0.1385788E+00
          2   -1    0    0  502    0  0.00000000000E+00  0.00000000000E+00  0.17403620516E+04  0.17403620516E+04  0.00000000000E+00 0. -1.
          1   -1    0    0  501    0 -0.00000000000E+00 -0.00000000000E+00 -0.47727877861E+03  0.47727877861E+03  0.00000000000E+00 0. -1.
         25    2    1    2    0    0 -0.23801277223E+02 -0.12431249970E+03  0.13440410137E+03  0.22295717515E+03  0.12500136442E+03 0.  0.
          2    1    1    2  501    0 -0.13180027567E+02  0.40972520275E+02 -0.43059767858E+03  0.43274336661E+03  0.00000000000E+00 0. -1.
          1    1    1    2  502    0  0.36981304790E+02  0.83339979429E+02  0.15592768502E+04  0.15619402884E+04  0.00000000000E+00 0. -1.
         22    1    3    3    0    0  0.41607391043E+02 -0.74533574219E+02  0.30890294333E+02  0.90777965164E+02  0.00000000000E+00 0. -1.
         22    1    3    3    0    0 -0.65408668266E+02 -0.49778925484E+02  0.10351380704E+03  0.13217920999E+03  0.00000000000E+00 0. -1.
</event>
<event>
 7    1  0.6508013E-006  0.1168268E+03  0.7818608E-02  0.1334404E+00
          2   -1    0    0  502    0  0.00000000000E+00  0.00000000000E+00  0.41374133512E+03  0.41374133512E+03  0.00000000000E+00 0. -1.
          1   -1    0    0  501    0 -0.00000000000E+00 -0.00000000000E+00 -0.84405775901E+03  0.84405775901E+03  0.00000000000E+00 0. -1.
         25    2    1    2    0    0 -0.27283826356E+02 -0.11583163346E+03  0.90967353534E+02  0.19509936017E+03  0.12500930542E+03 0.  0.
          2    1    1    2  501    0 -0.46823485555E+02  0.23229264984E+02 -0.77808169600E+03  0.77983534364E+03  0.00000000000E+00 0. -1.
          1    1    1    2  502    0  0.74107311911E+02  0.92602368471E+02  0.25679791857E+03  0.28286439031E+03  0.00000000000E+00 0. -1.
         22    1    3    3    0    0 -0.77586578070E+02 -0.69185271966E+02  0.52776622180E+02  0.11658323551E+03  0.00000000000E+00 0. -1.
         22    1    3    3    0    0  0.50302751714E+02 -0.46646361489E+02  0.38190731354E+02  0.78516124659E+02  0.00000000000E+00 0. -1.
</event>
<event>
 7    1  0.6508013E-006  0.9859497E+02  0.7818608E-02  0.1313444E+00
          2   -1    0    0  502    0  0.00000000000E+00  0.00000000000E+00  0.21454783790E+03  0.21454783790E+03  0.00000000000E+00 0. -1.
          1   -1    0    0  501    0 -0.00000000000E+00 -0.00000000000E+00 -0.65975573613E+03  0.65975573613E+03  0.00000000000E+00 0. -1.
         25    2    1    2    0    0 -0.89193786928E+01 -0.10997260080E+03 -0.94544069902E+02  0.19166775412E+03  0.12499767426E+03 0.  0.
          2    1    1    2  501    0 -0.59514517291E+02  0.80263581438E+02 -0.50309774978E+03  0.51292452282E+03  0.00000000000E+00 0. -1.
          1    1    1    2  502    0  0.68433895984E+02  0.29709019360E+02  0.15243392145E+03  0.16971129709E+03  0.00000000000E+00 0. -1.
         22    1    3    3    0    0  0.38736520967E+02 -0.58241344098E+02 -0.98969664885E+02  0.12119227197E+03  0.00000000000E+00 0. -1.
         22    1    3    3    0    0 -0.47655899659E+02 -0.51731256700E+02  0.44255949829E+01  0.70475482142E+02  0.00000000000E+00 0. -1.
</event>
<event>
 7    1  0.6508013E-006  0.3492009E+02  0.7818608E-02  0.1600117E+00
          2   -1    0    0  502    0  0.00000000000E+00  0.00000000000E+00  0.10239729327E+04  0.10239729327E+04  0.00000000000E+00 0. -1.
          1   -1    0    0  501    0 -0.00000000000E+00 -0.00000000000E+00 -0.19033578936E+03  0.19033578936E+03  0.00000000000E+00 0. -1.
         25    2    1    2    0    0 -0.11024814719E+02  0.45335269210E+01  0.27335934449E+02  0.12852267074E+03  0.12501489582E+03 0.  0.
          2    1    1    2  501    0 -0.10407818583E+02  0.23235743427E+02 -0.13825447200E+03  0.14057923562E+03  0.00000000000E+00 0. -1.
          1    1    1    2  502    0  0.21432633303E+02 -0.27769270348E+02  0.94455568092E+03  0.94520681573E+03  0.00000000000E+00 0. -1.
         22    1    3    3    0    0  0.20287610944E+02 -0.43473447356E+02  0.47742522685E+02  0.67682170881E+02  0.00000000000E+00 0. -1.
         22    1    3    3    0    0 -0.31312425663E+02  0.48006974278E+02 -0.20406588237E+02  0.60840499864E+02  0.00000000000E+00 0. -1.
</event>
<event>
 7    1  0.6508013E-006  0.1957929E+03  0.7818608E-02  0.1197373E+00
          2   -1    0    0  502    0  0.00000000000E+00  0.00000000000E+00  0.10061194143E+04  0.10061194143E+04  0.00000000000E+00 0. -1.
          1   -1    0    0  501    0 -0.00000000000E+00 -0.00000000000E+00 -0.79382543574E+03  0.79382543574E+03  0.00000000000E+00 0. -1.
         25    2    1    2    0    0  0.22654487866E+02  0.16405856390E+03 -0.16843156847E+03  0.26725142800E+03  0.12500277719E+03 0.  0.
          2    1    1    2  501    0 -0.14151315332E+03 -0.16429216413E+03 -0.55166906871E+03  0.59275344716E+03  0.00000000000E+00 0. -1.
          1    1    1    2  502    0  0.11885866546E+03  0.23360023328E+00  0.93239461577E+03  0.93993997491E+03  0.00000000000E+00 0. -1.
         22    1    3    3    0    0 -0.50992712712E+02  0.50917757874E+02 -0.66958018556E+02  0.98367937183E+02  0.00000000000E+00 0. -1.
         22    1    3    3    0    0  0.73647200577E+02  0.11314080602E+03 -0.10147354991E+03  0.16888349082E+03  0.00000000000E+00 0. -1.
</event>
<event>
 7    1  0.6508013E-006  0.8204909E+02  0.7818608E-02  0.1360807E+00
          2   -1    0    0  502    0  0.00000000000E+00  0.00000000000E+00  0.20134788695E+04  0.20134788695E+04  0.00000000000E+00 0. -1.
          1   -1    0    0  501    0 -0.00000000000E+00 -0.00000000000E+00 -0.18639808411E+03  0.18639808411E+03  0.00000000000E+00 0. -1.
         25    2    1    2    0    0 -0.87641551154E+02 -0.55745360252E+02  0.42186468708E+03  0.45208562918E+03  0.12499206066E+03 0.  0.
          2    1    1    2  501    0  0.81897289138E+02 -0.33392595492E+01 -0.16088736836E+03  0.18056317985E+03  0.00000000000E+00 0. -1.
          1    1    1    2  502    0  0.57442620166E+01  0.59084619801E+02  0.15661034667E+04  0.15672281446E+04  0.00000000000E+00 0. -1.
         22    1    3    3    0    0 -0.10698869608E+03 -0.77106642810E+02  0.36926201215E+03  0.39210515053E+03  0.00000000000E+00 0. -1.
         22    1    3    3    0    0  0.19347144926E+02  0.21361282558E+02  0.52602674923E+02  0.59980478645E+02  0.00000000000E+00 0. -1.
</event>
<event>
 7    1  0.6508013E-006  0.1052182E+03  0.7818608E-02  0.1348766E+00
          2   -1    0    0  502    0  0.00000000000E+00  0.00000000000E+00  0.16344348738E+03  0.16344348738E+03  0.00000000000E+00 0. -1.
          1   -1    0    0  501    0 -0.00000000000E+00 -0.00000000000E+00 -0.13260114247E+04  0.13260114247E+04  0.00000000000E+00 0. -1.
         25    2    1    2    0    0  0.91095096950E+02  0.34805081950E+01 -0.74209066272E+03  0.75804587816E+03  0.12499828424E+03 0.  0.
          2    1    1    2  501    0 -0.11195216656E+03  0.43346160696E+02 -0.56523484243E+03  0.57784306204E+03  0.00000000000E+00 0. -1.
          1    1    1    2  502    0  0.20857069610E+02 -0.46826668891E+02  0.14475756784E+03  0.15356597188E+03  0.00000000000E+00 0. -1.
         22    1    3    3    0    0  0.29381654306E+02  0.38691127897E+02 -0.91599705831E+02  0.10368602170E+03  0.00000000000E+00 0.  1.
         22    1    3    3    0    0  0.61713442643E+02 -0.35210619702E+02 -0.65049095689E+03  0.65435985646E+03  0.00000000000E+00 0.  1.
</event>
<event>
 7    1  0.6508013E-006  0.1185109E+03  0.7818608E-02  0.1410122E+00
          2   -1    0    0  502    0  0.00000000000E+00  0.00000000000E+00  0.10885780400E+04  0.10885780400E+04  0.00000000000E+00 0. -1.
          1   -1    0    0  501    0 -0.00000000000E+00 -0.00000000000E+00 -0.37353209634E+03  0.37353209634E+03  0.00000000000E+00 0. -1.
         25    2    1    2    0    0 -0.39514817021E-02 -0.10214284439E+03  0.25259787636E+03  0.29977362065E+03  0.12500150328E+03 0.  0.
          2    1    1    2  501    0 -0.23301688877E+02  0.11688296364E+03 -0.33955262110E+03  0.35986188794E+03  0.00000000000E+00 0. -1.
          1    1    1    2  502    0  0.23305640358E+02 -0.14740119246E+02  0.80200068842E+03  0.80247462777E+03  0.00000000000E+00 0. -1.
         22    1    3    3    0    0 -0.34082504573E+02 -0.13851669742E+02  0.82013251886E+01  0.37692805779E+02  0.00000000000E+00 0.  1.
         22    1    3    3    0    0  0.34078553092E+02 -0.88291174652E+02  0.24439655117E+03  0.26208081487E+03  0.00000000000E+00 0.  1.
</event>
<event>
 7    1  0.6508013E-006  0.1130358E+03  0.7818608E-02  0.1377193E+00
          2   -1    0    0  502    0  0.00000000000E+00  0.00000000000E+00  0.24213154487E+04  0.24213154487E+04  0.00000000000E+00 0. -1.
          1   -1    0    0  501    0 -0.00000000000E+00 -0.00000000000E+00 -0.43838802735E+03  0.43838802735E+03  0.00000000000E+00 0. -1.
         25    2    1    2    0    0 -0.95321269999E+02  0.85258309558E+02  0.53789329939E+03  0.56684192085E+03  0.12500175135E+03 0.  0.
          2    1    1    2  501    0  0.10207373958E+03 -0.48252790803E+02 -0.41620262814E+03  0.43124471916E+03  0.00000000000E+00 0. -1.
          1    1    1    2  502    0 -0.67524695798E+01 -0.37005518755E+02  0.18612367501E+04  0.18616168360E+04  0.00000000000E+00 0. -1.
         22    1    3    3    0    0  0.30442577077E+02  0.89777210150E+01  0.94221266772E+02  0.99423322645E+02  0.00000000000E+00 0.  1.
         22    1    3    3    0    0 -0.12576384708E+03  0.76280588543E+02  0.44367203262E+03  0.46741859821E+03  0.00000000000E+00 0.  1.
</event>
<event>
 7    1  0.6508013E-006  0.8764242E+02  0.7818608E-02  0.1404982E+00
          2   -1    0    0  502    0  0.00000000000E+00  0.00000000000E+00  0.95629344224E+03  0.95629344224E+03  0.00000000000E+00 0. -1.
          1   -1    0    0  501    0 -0.00000000000E+00 -0.00000000000E+00 -0.12876867709E+04  0.12876867709E+04  0.00000000000E+00 0. -1.
         25    2    1    2    0    0  0.29292963528E+02 -0.89581026347E+02 -0.10978929921E+03  0.19121081392E+03  0.12500018858E+03 0.  0.
          2    1    1    2  501    0 -0.59140359486E+02  0.64759559901E+02 -0.11350829810E+04  0.11384659664E+04  0.00000000000E+00 0. -1.
          1    1    1    2  502    0  0.29847395957E+02  0.24821466447E+02  0.91347895161E+03  0.91430343283E+03  0.00000000000E+00 0. -1.
         22    1    3    3    0    0 -0.11900575890E+02 -0.11016838721E+02  0.25030164932E+02  0.29824546911E+02  0.00000000000E+00 0.  1.
         22    1    3    3    0    0  0.41193539418E+02 -0.78564187626E+02 -0.13481946414E+03  0.16138626701E+03  0.00000000000E+00 0.  1.
</event>
<event>
 7    1  0.6508013E-006  0.2271821E+03  0.7818608E-02  0.1237248E+00
          2   -1    0    0  502    0  0.00000000000E+00  0.00000000000E+00  0.10964786010E+04  0.10964786010E+04  0.00000000000E+00 0. -1.
          1   -1    0    0  501    0 -0.00000000000E+00 -0.00000000000E+00 -0.14698535051E+03  0.14698535051E+03  0.00000000000E+00 0. -1.
         25    2    1    2    0    0  0.13677750262E+03  0.21859869808E+03  0.76144447432E+03  0.81358156257E+03  0.12499518169E+03 0.  0.
          2    1    1    2  501    0 -0.41030583068E+02 -0.53298982297E+02 -0.77591737265E+02  0.10268772055E+03  0.00000000000E+00 0. -1.
          1    1    1    2  502    0 -0.95746919556E+02 -0.16529971579E+03  0.26564051338E+03  0.32719466835E+03  0.00000000000E+00 0. -1.
         22    1    3    3    0    0  0.37944033101E+02  0.26928502848E+01  0.20643328677E+03  0.20990879681E+03  0.00000000000E+00 0. -1.
         22    1    3    3    0    0  0.98833469523E+02  0.21590584780E+03  0.55501118755E+03  0.60367276576E+03  0.00000000000E+00 0. -1.
</event>
<event>
 7    1  0.7318665E-006  0.5462741E+02  0.7818608E-02  0.1515372E+00
          2   -1    0    0  502    0  0.00000000000E+00  0.00000000000E+00  0.17066481342E+04  0.17066481342E+04  0.00000000000E+00 0. -1.
          1   -1    0    0  501    0 -0.00000000000E+00 -0.00000000000E+00 -0.72471566068E+03  0.72471566068E+03  0.00000000000E+00 0. -1.
         25    2    1    2    0    0 -0.41419700967E+02 -0.26715287908E+02 -0.44018604723E+03  0.46023815807E+03  0.12500443086E+03 0.  0.
          2    1    1    2  501    0  0.16972767122E+02 -0.22149873370E+02 -0.27335314131E+03  0.27477378255E+03  0.00000000000E+00 0. -1.
          1    1    1    2  502    0  0.24446933845E+02  0.48865161278E+02  0.16954716620E+04  0.16963518542E+04  0.00000000000E+00 0. -1.
         22    1    3    3    0    0 -0.76654560091E+02 -0.24544482702E+02 -0.17391395981E+03  0.19163616211E+03  0.00000000000E+00 0.  1.
         22    1    3    3    0    0  0.35234859123E+02 -0.21708052056E+01 -0.26627208742E+03  0.26860199596E+03  0.00000000000E+00 0.  1.
</event>
<event>
 7    1  0.6508013E-006  0.7643784E+02  0.7818608E-02  0.1345595E+00
          2   -1    0    0  502    0  0.00000000000E+00  0.00000000000E+00  0.21327323696E+03  0.21327323696E+03  0.00000000000E+00 0. -1.
          1   -1    0    0  501    0 -0.00000000000E+00 -0.00000000000E+00 -0.55997214031E+03  0.55997214031E+03  0.00000000000E+00 0. -1.
         25    2    1    2    0    0 -0.74540239782E+02  0.61557172352E+02  0.97940604946E+02  0.18589597169E+03  0.12497766753E+03 0.  0.
          2    1    1    2  501    0  0.36068673753E+01 -0.76577135512E+02 -0.49382142713E+03  0.49973659969E+03  0.00000000000E+00 0. -1.
          1    1    1    2  502    0  0.70933372407E+02  0.15019963161E+02  0.49181918832E+02  0.87612805881E+02  0.00000000000E+00 0. -1.
         22    1    3    3    0    0  0.16662254621E+02 -0.16904157968E+02  0.51916197589E+02  0.57084786570E+02  0.00000000000E+00 0.  1.
         22    1    3    3    0    0 -0.91202494402E+02  0.78461330319E+02  0.46024407357E+02  0.12881118512E+03  0.00000000000E+00 0.  1.
</event>
<event>
 7    1  0.6508013E-006  0.1761288E+03  0.7818608E-02  0.1293041E+00
          2   -1    0    0  502    0  0.00000000000E+00  0.00000000000E+00  0.17948273646E+03  0.17948273646E+03  0.00000000000E+00 0. -1.
          1   -1    0    0  501    0 -0.00000000000E+00 -0.00000000000E+00 -0.12817144973E+04  0.12817144973E+04  0.00000000000E+00 0. -1.
         25    2    1    2    0    0 -0.85038314017E+02  0.11316314591E+03 -0.10015566851E+03  0.21376001462E+03  0.12499909388E+03 0.  0.
          2    1    1    2  501    0  0.78310638016E+02 -0.16306833852E+03 -0.11119525652E+04  0.11265710570E+04  0.00000000000E+00 0. -1.
          1    1    1    2  502    0  0.67276760002E+01  0.49905192614E+02  0.10987647288E+03  0.12086616221E+03  0.00000000000E+00 0. -1.
         22    1    3    3    0    0  0.13657599953E+02  0.56082095986E+02  0.59304396949E+01  0.58025008760E+02  0.00000000000E+00 0.  1.
         22    1    3    3    0    0 -0.98695913970E+02  0.57081049923E+02 -0.10608610821E+03  0.15573500586E+03  0.00000000000E+00 0.  1.
</event>
<event>
 7    1  0.6508013E-006  0.3764055E+02  0.7818608E-02  0.1600381E+00
          2   -1    0    0  502    0  0.00000000000E+00  0.00000000000E+00  0.18525507232E+04  0.18525507232E+04  0.00000000000E+00 0. -1.
          1   -1    0    0  501    0 -0.00000000000E+00 -0.00000000000E+00 -0.20502206167E+03  0.20502206167E+03  0.00000000000E+00 0. -1.
         25    2    1    2    0    0  0.56134768975E+02 -0.15318016611E+02  0.14213266881E+03  0.19801892708E+03  0.12499618402E+03 0.  0.
          2    1    1    2  501    0 -0.32723161501E+02  0.18152177943E+02 -0.17501832167E+03  0.17897407573E+03  0.00000000000E+00 0. -1.
          1    1    1    2  502    0 -0.23411607474E+02 -0.28341613325E+01  0.16804143144E+04  0.16805797820E+04  0.00000000000E+00 0. -1.
         22    1    3    3    0    0  0.57364889328E+02 -0.64399933745E+02  0.71663663606E+02  0.11213279037E+03  0.00000000000E+00 0.  1.
         22    1    3    3    0    0 -0.12301203529E+01  0.49081917135E+02  0.70469005200E+02  0.85886136714E+02  0.00000000000E+00 0.  1.
</event>
<event>
 7    1  0.6508013E-006  0.5738887E+02  0.7818608E-02  0.1433222E+00
          2   -1    0    0  502    0  0.00000000000E+00  0.00000000000E+00  0.18938183198E+03  0.18938183198E+03  0.00000000000E+00 0. -1.
          1   -1    0    0  501    0 -0.00000000000E+00 -0.00000000000E+00 -0.11067146346E+03  0.11067146346E+03  0.00000000000E+00 0. -1.
         25    2    1    2    0    0  0.16349350948E+02 -0.19529625177E+02  0.68706931427E+02  0.14489385083E+03  0.12499951218E+03 0.  0.
          2    1    1    2  501    0  0.36567100441E+02 -0.30623537719E+02 -0.43636327560E+02  0.64645827244E+02  0.00000000000E+00 0. -1.
          1    1    1    2  502    0 -0.52916451389E+02  0.50153162896E+02  0.53639764662E+02  0.90513617368E+02  0.00000000000E+00 0. -1.
         22    1    3    3    0    0  0.86098281260E+01  0.31142870797E+02  0.85139262758E+02  0.91064271834E+02  0.00000000000E+00 0.  1.
         22    1    3    3    0    0  0.77395228220E+01 -0.50672495973E+02 -0.16432331331E+02  0.53829578994E+02  0.00000000000E+00 0.  1.
</event>
<event>
 7    1  0.6508013E-006  0.1177990E+03  0.7818608E-02  0.1268109E+00
          2   -1    0    0  502    0  0.00000000000E+00  0.00000000000E+00  0.11504278271E+04  0.11504278271E+04  0.00000000000E+00 0. -1.
          1   -1    0    0  501    0 -0.00000000000E+00 -0.00000000000E+00 -0.14805200058E+04  0.14805200058E+04  0.00000000000E+00 0. -1.
         25    2    1    2    0    0 -0.92615486221E+01  0.19575115586E+03  0.22364907488E+03  0.32256532749E+03  0.12500076198E+03 0.  0.
          2    1    1    2  501    0  0.39069526135E+02 -0.87068004824E+02 -0.14258411205E+04  0.14290311985E+04  0.00000000000E+00 0. -1.
          1    1    1    2  502    0 -0.29807977513E+02 -0.10868315104E+03  0.87209986700E+03  0.87935130685E+03  0.00000000000E+00 0. -1.
         22    1    3    3    0    0 -0.34586602345E+02  0.16125851126E+03  0.10274432977E+03  0.19431144541E+03  0.00000000000E+00 0. -1.
         22    1    3    3    0    0  0.25325053723E+02  0.34492644602E+02  0.12090474511E+03  0.12825388208E+03  0.00000000000E+00 0. -1.
</event>
<event>
 7    1  0.6508013E-006  0.9345092E+02  0.7818608E-02  0.1435313E+00
          2   -1    0    0  502    0  0.00000000000E+00  0.00000000000E+00  0.19422091272E+04  0.19422091272E+04  0.00000000000E+00 0. -1.
          1   -1    0    0  501    0 -0.00000000000E+00 -0.00000000000E+00 -0.14899661282E+04  0.14899661282E+04  0.00000000000E+00 0. -1.
         25    2    1    2    0    0  0.66776488981E+01 -0.10283516832E+03  0.52025731350E+03  0.54489643760E+03  0.12499917050E+03 0.  0.
          2    1    1    2  501    0  0.19757064744E+02  0.91322502478E+02 -0.14760217909E+04  0.14789761554E+04  0.00000000000E+00 0. -1.
          1    1    1    2  502    0 -0.26434713643E+02  0.11512665838E+02  0.14080074764E+04  0.14083026625E+04  0.00000000000E+00 0. -1.
         22    1    3    3    0    0  0.84252831858E+01  0.12810349134E+01  0.31143145898E+03  0.31154803817E+03  0.00000000000E+00 0. -1.
         22    1    3    3    0    0 -0.17476342876E+01 -0.10411620323E+03  0.20882585452E+03  0.23334839943E+03  0.00000000000E+00 0. -1.
</event>
<event>
 7    1  0.6508013E-006  0.2530325E+03  0.7818608E-02  0.1266335E+00
          2   -1    0    0  502    0  0.00000000000E+00  0.00000000000E+00  0.41961066702E+03  0.41961066702E+03  0.00000000000E+00 0. -1.
          1   -1    0    0  501    0 -0.00000000000E+00 -0.00000000000E+00 -0.38599772963E+03  0.38599772963E+03  0.00000000000E+00 0. -1.
         25    2    1    2    0    0  0.23911260608E+03  0.14773646181E+03  0.94186709644E+02  0.32170702683E+03  0.12499349705E+03 0.  0.
          2    1    1    2  501    0 -0.19402312332E+03 -0.15089944665E+03 -0.21279486886E+03  0.32511116806E+03  0.00000000000E+00 0. -1.
          1    1    1    2  502    0 -0.45089482751E+02  0.31629848310E+01  0.15222109660E+03  0.15879020177E+03  0.00000000000E+00 0. -1.
         22    1    3    3    0    0 -0.15246314475E+02  0.11010018685E+02  0.47496720390E+01  0.19396649220E+02  0.00000000000E+00 0. -1.
         22    1    3    3    0    0  0.25435892055E+03  0.13672644313E+03  0.89437037605E+02  0.30231037761E+03  0.00000000000E+00 0. -1.
</event>
<event>
 7    1  0.6508013E-006  0.7077368E+02  0.7818608E-02  0.1385399E+00
          2   -1    0    0  502    0  0.00000000000E+00  0.00000000000E+00  0.20157717678E+04  0.20157717678E+04  0.00000000000E+00 0. -1.
          1   -1    0    0  501    0 -0.00000000000E+00 -0.00000000000E+00 -0.13242660777E+04  0.13242660777E+04  0.00000000000E+00 0. -1.
         25    2    1    2    0    0 -0.27931948007E+02 -0.79076808182E+02  0.29315385548E+02  0.15335360025E+03  0.12499839827E+03 0.  0.
          2    1    1    2  501    0  0.54571184530E+02  0.13419786135E+02 -0.12609687393E+04  0.12622203715E+04  0.00000000000E+00 0. -1.
          1    1    1    2  502    0 -0.26639236523E+02  0.65657022047E+02  0.19231590438E+04  0.19244638738E+04  0.00000000000E+00 0. -1.
         22    1    3    3    0    0  0.49856562233E+02 -0.36939780039E+02  0.12833127893E+02  0.63363343651E+02  0.00000000000E+00 0.  1.
         22    1    3    3    0    0 -0.77788510241E+02 -0.42137028143E+02  0.16482257654E+02  0.89990256604E+02  0.00000000000E+00 0.  1.
</event>
<event>
 7    1  0.6508013E-006  0.8852618E+02  0.7818608E-02  0.1342171E+00
          2   -1    0    0  502    0  0.00000000000E+00  0.00000000000E+00  0.89924748065E+03  0.89924748065E+03  0.00000000000E+00 0. -1.
          1   -1    0    0  501    0 -0.00000000000E+00 -0.00000000000E+00 -0.48835379001E+02  0.48835379001E+02  0.00000000000E+00 0. -1.
         25    2    1    2    0    0 -0.29455495380E+02  0.55936740417E+02  0.21323136969E+03  0.25512346975E+03  0.12499529057E+03 0.  0.
          2    1    1    2  501    0 -0.14649960541E+02 -0.10297107988E+03  0.77829838831E+02  0.12990438195E+03  0.00000000000E+00 0. -1.
          1    1    1    2  502    0  0.44105455921E+02  0.47034339468E+02  0.55935089313E+03  0.56305500795E+03  0.00000000000E+00 0. -1.
         22    1    3    3    0    0 -0.32346598081E+02 -0.22610059472E+02  0.14741509276E+03  0.15260644407E+03  0.00000000000E+00 0.  1.
         22    1    3    3    0    0  0.28911027003E+01  0.78546799889E+02  0.65816276924E+02  0.10251702569E+03  0.00000000000E+00 0.  1.
</event>
<event>
 7    1  0.6508013E-006  0.5941525E+02  0.7818608E-02  0.1425807E+00
          2   -1    0    0  502    0  0.00000000000E+00  0.00000000000E+00  0.19353092538E+03  0.19353092538E+03  0.00000000000E+00 0. -1.
          1   -1    0    0  501    0 -0.00000000000E+00 -0.00000000000E+00 -0.97113641462E+03  0.97113641462E+03  0.00000000000E+00 0. -1.
         25    2    1    2    0    0  0.49582555499E+02 -0.45755609102E+02 -0.28682352575E+03  0.32006950075E+03  0.12499897925E+03 0.  0.
          2    1    1    2  501    0 -0.30196947814E+01  0.60144547624E+02 -0.66294257920E+03  0.66567210282E+03  0.00000000000E+00 0. -1.
          1    1    1    2  502    0 -0.46562860718E+02 -0.14388938522E+02  0.17216061572E+03  0.17892573642E+03  0.00000000000E+00 0. -1.
         22    1    3    3    0    0  0.26636649401E+02  0.41678428054E+02 -0.12950983637E+03  0.13863405127E+03  0.00000000000E+00 0.  1.
         22    1    3    3    0    0  0.22945906098E+02 -0.87434037157E+02 -0.15731368939E+03  0.18143544948E+03  0.00000000000E+00 0.  1.
</event>
<event>
 7    1  0.6508013E-006  0.1420325E+03  0.7818608E-02  0.1217294E+00
          2   -1    0    0  502    0  0.00000000000E+00  0.00000000000E+00  0.22011620584E+04  0.22011620584E+04  0.00000000000E+00 0. -1.
          1   -1    0    0  501    0 -0.00000000000E+00 -0.00000000000E+00 -0.44819579182E+03  0.44819579182E+03  0.00000000000E+00 0. -1.
         25    2    1    2    0    0  0.53083675416E+02 -0.60883592867E+02  0.19939238160E+03  0.24881167828E+03  0.12500096371E+03 0.  0.
          2    1    1    2  501    0  0.54747140057E+02  0.13758431122E+03 -0.40824461670E+03  0.43426991503E+03  0.00000000000E+00 0. -1.
          1    1    1    2  502    0 -0.10783081547E+03 -0.76700718353E+02  0.19618185016E+04  0.19662762569E+04  0.00000000000E+00 0. -1.
         22    1    3    3    0    0  0.79843004805E+02 -0.23937566768E+01  0.14041202889E+03  0.16154310058E+03  0.00000000000E+00 0. -1.
         22    1    3    3    0    0 -0.26759329389E+02 -0.58489836191E+02  0.58980352712E+02  0.87268577696E+02  0.00000000000E+00 0. -1.
</event>
<event>
 7    1  0.6508013E-006  0.1224635E+03  0.7818608E-02  0.1399712E+00
          2   -1    0    0  502    0  0.00000000000E+00  0.00000000000E+00  0.11859479814E+04  0.11859479814E+04  0.00000000000E+00 0. -1.
          1   -1    0    0  501    0 -0.00000000000E+00 -0.00000000000E+00 -0.34076301313E+03  0.34076301313E+03  0.00000000000E+00 0. -1.
         25    2    1    2    0    0 -0.10608340630E+03  0.28445680884E+02  0.24471792774E+03  0.29592952852E+03  0.12499830335E+03 0.  0.
          2    1    1    2  501    0 -0.18679828458E+02 -0.22131980027E+02 -0.31021864210E+03  0.31156759529E+03  0.00000000000E+00 0. -1.
          1    1    1    2  502    0  0.12476323476E+03 -0.63137008563E+01  0.91068568259E+03  0.91921387068E+03  0.00000000000E+00 0. -1.
         22    1    3    3    0    0 -0.70290304577E+02 -0.45709677421E+02  0.11606903401E+03  0.14318562143E+03  0.00000000000E+00 0. -1.
         22    1    3    3    0    0 -0.35793101721E+02  0.74155358305E+02  0.12864889372E+03  0.15274390709E+03  0.00000000000E+00 0. -1.
</event>
<event>
 7    1  0.6508013E-006  0.8556557E+02  0.7818608E-02  0.1326271E+00
          2   -1    0    0  502    0  0.00000000000E+00  0.00000000000E+00  0.49055453498E+02  0.49055453498E+02  0.00000000000E+00 0. -1.
          1   -1    0    0  501    0 -0.00000000000E+00 -0.00000000000E+00 -0.13677625903E+04  0.13677625903E+04  0.00000000000E+00 0. -1.
         25    2    1    2    0    0 -0.48744610089E+02  0.69616918165E+02 -0.59550140373E+03  0.61438470892E+03  0.12499638559E+03 0.  0.
          2    1    1    2  501    0  0.93435557605E+02 -0.73370760279E+01 -0.71961626766E+03  0.72569388091E+03  0.00000000000E+00 0. -1.
          1    1    1    2  502    0 -0.44690947516E+02 -0.62279842137E+02 -0.35894653720E+01  0.76739453921E+02  0.00000000000E+00 0. -1.
         22    1    3    3    0    0  0.11493433521E+02  0.73022001810E+02 -0.46208271945E+03  0.46795806584E+03  0.00000000000E+00 0.  1.
         22    1    3    3    0    0 -0.60238043610E+02 -0.34050836453E+01 -0.13341868427E+03  0.14642664309E+03  0.00000000000E+00 0.  1.
</event>
<event>
 7    1  0.7127366E-006  0.6363592E+02  0.7818608E-02  0.1421755E+00
          2   -1    0    0  502    0  0.00000000000E+00  0.00000000000E+00  0.64515545516E+03  0.64515545516E+03  0.00000000000E+00 0. -1.
          1   -1    0    0  501    0 -0.00000000000E+00 -0.00000000000E+00 -0.10274864240E+04  0.10274864240E+04  0.00000000000E+00 0. -1.
         25    2    1    2    0    0 -0.82747549490E+01  0.21242635896E+02 -0.31508569613E+03  0.33974019320E+03  0.12499872728E+03 0.  0.
          2    1    1    2  501    0 -0.44636617156E+02  0.14507961473E+02 -0.69767207201E+03  0.69924904619E+03  0.00000000000E+00 0. -1.
          1    1    1    2  502    0  0.52911372105E+02 -0.35750597370E+02  0.63042679933E+03  0.63365263972E+03  0.00000000000E+00 0. -1.
         22    1    3    3    0    0  0.25582606460E+02 -0.12091109777E+02 -0.27808178267E+03  0.27951769629E+03  0.00000000000E+00 0. -1.
         22    1    3    3    0    0 -0.33857361409E+02  0.33333745674E+02 -0.37003913461E+02  0.60222496906E+02  0.00000000000E+00 0. -1.
</event>
<event>
 7    1  0.6508013E-006  0.7837061E+02  0.7818608E-02  0.1346774E+00
          2   -1    0    0  502    0  0.00000000000E+00  0.00000000000E+00  0.11456627148E+04  0.11456627148E+04  0.00000000000E+00 0. -1.
          1   -1    0    0  501    0 -0.00000000000E+00 -0.00000000000E+00 -0.10728779103E+03  0.10728779103E+03  0.00000000000E+00 0. -1.
         25    2    1    2    0    0  0.90567515398E+01 -0.18022674301E+02  0.25296516764E+03  0.28288409573E+03  0.12500077615E+03 0.  0.
          2    1    1    2  501    0  0.61736100796E+02 -0.33008361111E+02 -0.76530331512E+02  0.10371976517E+03  0.00000000000E+00 0. -1.
          1    1    1    2  502    0 -0.70792852335E+02  0.51031035413E+02  0.86194008769E+03  0.86634664499E+03  0.00000000000E+00 0. -1.
         22    1    3    3    0    0  0.47508805323E+02 -0.42226391537E+02  0.21330501308E+03  0.22257399518E+03  0.00000000000E+00 0. -1.
         22    1    3    3    0    0 -0.38452053783E+02  0.24203717236E+02  0.39660154560E+02  0.60310100546E+02  0.00000000000E+00 0. -1.
</event>
<event>
 7    1  0.6508013E-006  0.1677271E+03  0.7818608E-02  0.1244774E+00
          2   -1    0    0  502    0  0.00000000000E+00  0.00000000000E+00  0.75197812339E+03  0.75197812339E+03  0.00000000000E+00 0. -1.
          1   -1    0    0  501    0 -0.00000000000E+00 -0.00000000000E+00 -0.82331920674E+03  0.82331920674E+03  0.00000000000E+00 0. -1.
         25    2    1    2    0    0 -0.18028975718E+03 -0.13516939656E+03  0.41477973181E+03  0.48830586005E+03  0.12500089889E+03 0.  0.
          2    1    1    2  501    0  0.62524038180E+02  0.56712766296E+02 -0.76744992240E+03  0.77207834875E+03  0.00000000000E+00 0. -1.
          1    1    1    2  502    0  0.11776571900E+03  0.78456630260E+02  0.28132910725E+03  0.31491312133E+03  0.00000000000E+00 0. -1.
         22    1    3    3    0    0 -0.16261619776E+03 -0.51981523819E+02  0.30385932255E+03  0.34853492579E+03  0.00000000000E+00 0. -1.
         22    1    3    3    0    0 -0.17673559419E+02 -0.83187872736E+02  0.11092040926E+03  0.13977093426E+03  0.00000000000E+00 0. -1.
</event>
<event>
 7    1  0.6508013E-006  0.1563614E+03  0.7818608E-02  0.1303599E+00
          2   -1    0    0  502    0  0.00000000000E+00  0.00000000000E+00  0.37350705037E+03  0.37350705037E+03  0.00000000000E+00 0. -1.
          1   -1    0    0  501    0 -0.00000000000E+00 -0.00000000000E+00 -0.27238802446E+03  0.27238802446E+03  0.00000000000E+00 0. -1.
         25    2    1    2    0    0 -0.10741986737E+03 -0.77976525827E+02 -0.13845322062E+02  0.18284387080E+03  0.12498328553E+03 0.  0.
          2    1    1    2  501    0 -0.46043025439E+02  0.22957706561E+02 -0.14630678299E+03  0.15508930083E+03  0.00000000000E+00 0. -1.
          1    1    1    2  502    0  0.15346289281E+03  0.55018819266E+02  0.26127113097E+03  0.30796190319E+03  0.00000000000E+00 0. -1.
         22    1    3    3    0    0 -0.27445445838E+02  0.34359439012E+02 -0.88535915194E+01  0.44857659650E+02  0.00000000000E+00 0. -1.
         22    1    3    3    0    0 -0.79974421529E+02 -0.11233596484E+03 -0.49917305425E+01  0.13798621115E+03  0.00000000000E+00 0. -1.
</event>
<event>
 7    1  0.6508013E-006  0.6971417E+02  0.7818608E-02  0.1438104E+00
          2   -1    0    0  502    0  0.00000000000E+00  0.00000000000E+00  0.11557101262E+04  0.11557101262E+04  0.00000000000E+00 0. -1.
          1   -1    0    0  501    0 -0.00000000000E+00 -0.00000000000E+00 -0.75976819653E+03  0.75976819653E+03  0.00000000000E+00 0. -1.
         25    2    1    2    0    0 -0.10069395458E+02 -0.94295568736E+02  0.32289088677E+03  0.35899315083E+03  0.12499804228E+03 0.  0.
          2    1    1    2  501    0 -0.16739614591E+02  0.67578623722E+02 -0.73964192445E+03  0.74291134160E+03  0.00000000000E+00 0. -1.
          1    1    1    2  502    0  0.26809010050E+02  0.26716945014E+02  0.81269296733E+03  0.81357383028E+03  0.00000000000E+00 0. -1.
         22    1    3    3    0    0 -0.70196920392E+01  0.99115214795E+01  0.18857712093E+03  0.18896784084E+03  0.00000000000E+00 0. -1.
         22    1    3    3    0    0 -0.30497034189E+01 -0.10420709022E+03  0.13431376585E+03  0.17002530999E+03  0.00000000000E+00 0. -1.
</event>
<event>
 7    1  0.6508013E-006  0.1031246E+03  0.7818608E-02  0.1401504E+00
          2   -1    0    0  502    0  0.00000000000E+00  0.00000000000E+00  0.77548661861E+03  0.77548661861E+03  0.00000000000E+00 0. -1.
          1   -1    0    0  501    0 -0.00000000000E+00 -0.00000000000E+00 -0.41504468466E+03  0.41504468466E+03  0.00000000000E+00 0. -1.
         25    2    1    2    0    0 -0.12364984261E+03 -0.15527196452E+02  0.21895128410E+03  0.28123821350E+03  0.12499956207E+03 0.  0.
          2    1    1    2  501    0  0.29060904815E+02 -0.17471287037E+02 -0.37836065740E+03  0.37987704475E+03  0.00000000000E+00 0. -1.
          1    1    1    2  502    0  0.94588937793E+02  0.32998483489E+02  0.51985130725E+03  0.52941604501E+03  0.00000000000E+00 0. -1.
         22    1    3    3    0    0 -0.21480241911E+02 -0.41882615460E+02  0.14484293624E+03  0.15229914789E+03  0.00000000000E+00 0.  1.
         22    1    3    3    0    0 -0.10216960070E+03  0.26355419008E+02  0.74108347856E+02  0.12893906561E+03  0.00000000000E+00 0.  1.
</event>
<event>
 7    1  0.6508013E-006  0.1402304E+03  0.7818608E-02  0.1384085E+00
          2   -1    0    0  502    0  0.00000000000E+00  0.00000000000E+00  0.26718728979E+03  0.26718728979E+03  0.00000000000E+00 0. -1.
          1   -1    0    0  501    0 -0.00000000000E+00 -0.00000000000E+00 -0.70272201186E+03  0.70272201186E+03  0.00000000000E+00 0. -1.
         25    2    1    2    0    0  0.75686622653E+02  0.10066481233E+03  0.82298260949E+02  0.19560135278E+03  0.12500006466E+03 0.  0.
          2    1    1    2  501    0  0.25986654553E+02  0.12100380234E+02 -0.60066566718E+03  0.60134929047E+03  0.00000000000E+00 0. -1.
          1    1    1    2  502    0 -0.10167327721E+03 -0.11276519256E+03  0.82832684167E+02  0.17295865841E+03  0.00000000000E+00 0. -1.
         22    1    3    3    0    0  0.15911785310E+02  0.11045813773E+03  0.75300468505E+02  0.13462669000E+03  0.00000000000E+00 0.  1.
         22    1    3    3    0    0  0.59774837343E+02 -0.97933254053E+01  0.69977924439E+01  0.60974662779E+02  0.00000000000E+00 0.  1.
</event>
<event>
 7    1  0.1158246E-005  0.9699155E+02  0.7818608E-02  0.1352394E+00
          2   -1    0    0  502    0  0.00000000000E+00  0.00000000000E+00  0.19435288048E+04  0.19435288048E+04  0.00000000000E+00 0. -1.
          1   -1    0    0  501    0 -0.00000000000E+00 -0.00000000000E+00 -0.84465362557E+03  0.84465362557E+03  0.00000000000E+00 0. -1.
         25    2    1    2    0    0 -0.84012559769E+02 -0.66876124789E+02 -0.88971250741E+02  0.18727316390E+03  0.12499931277E+03 0.  0.
          2    1    1    2  501    0  0.96137575992E+02  0.14340918436E+02 -0.70280216336E+03  0.70949205512E+03  0.00000000000E+00 0. -1.
          1    1    1    2  502    0 -0.12125016223E+02  0.52535206354E+02  0.18906485933E+04  0.18914172113E+04  0.00000000000E+00 0. -1.
         22    1    3    3    0    0 -0.41508391256E+02 -0.17920210007E+02  0.28254123372E+02  0.53313937755E+02  0.00000000000E+00 0. -1.
         22    1    3    3    0    0 -0.42504168513E+02 -0.48955914782E+02 -0.11722537411E+03  0.13395922614E+03  0.00000000000E+00 0. -1.
</event>
<event>
 7    1  0.6508013E-006  0.1223802E+03  0.7818608E-02  0.1289756E+00
          2   -1    0    0  502    0  0.00000000000E+00  0.00000000000E+00  0.42944634985E+03  0.42944634985E+03  0.00000000000E+00 0. -1.
          1   -1    0    0  501    0 -0.00000000000E+00 -0.00000000000E+00 -0.22575966971E+03  0.22575966971E+03  0.00000000000E+00 0. -1.
         25    2    1    2    0    0 -0.14297063710E+03  0.57018410290E+02  0.21171050720E+03  0.29006516757E+03  0.12499904156E+03 0.  0.
          2    1    1    2  501    0  0.77538890687E+02 -0.93123587113E+02 -0.15708597870E+03  0.19839427096E+03  0.00000000000E+00 0. -1.
          1    1    1    2  502    0  0.65431746417E+02  0.36105176823E+02  0.14906215164E+03  0.16674658103E+03  0.00000000000E+00 0. -1.
         22    1    3    3    0    0 -0.12493720339E+03  0.15505211583E+02  0.20990918020E+03  0.24476842180E+03  0.00000000000E+00 0. -1.
         22    1    3    3    0    0 -0.18033433712E+02  0.41513198707E+02  0.18013270038E+01  0.45296745770E+02  0.00000000000E+00 0. -1.
</event>
<event>
 7    1  0.6508013E-006  0.1057986E+03  0.7818608E-02  0.1428633E+00
          2   -1    0    0  502    0  0.00000000000E+00  0.00000000000E+00  0.19502753080E+04  0.19502753080E+04  0.00000000000E+00 0. -1.
          1   -1    0    0  501    0 -0.00000000000E+00 -0.00000000000E+00 -0.93293894486E+03  0.93293894486E+03  0.00000000000E+00 0. -1.
         25    2    1    2    0    0 -0.15312073182E+02  0.78001514863E+02  0.83236607499E+03  0.84544461779E+03  0.12499849219E+03 0.  0.
          2    1    1    2  501    0  0.25484964225E+02 -0.10278144476E+03 -0.92321119761E+03  0.92926445331E+03  0.00000000000E+00 0. -1.
          1    1    1    2  502    0 -0.10172891043E+02  0.24779929897E+02  0.11081814858E+04  0.11085051818E+04  0.00000000000E+00 0. -1.
         22    1    3    3    0    0  0.46766989611E+02  0.22802273011E+02  0.16711967989E+03  0.17503166107E+03  0.00000000000E+00 0. -1.
         22    1    3    3    0    0 -0.62079062794E+02  0.55199241851E+02  0.66524639510E+03  0.67041295672E+03  0.00000000000E+00 0. -1.
</event>
<event>
 7    1  0.6508013E-006  0.1200050E+03  0.7818608E-02  0.1326289E+00
          2   -1    0    0  502    0  0.00000000000E+00  0.00000000000E+00  0.14047041115E+03  0.14047041115E+03  0.00000000000E+00 0. -1.
          1   -1    0    0  501    0 -0.00000000000E+00 -0.00000000000E+00 -0.55976462304E+03  0.55976462304E+03  0.00000000000E+00 0. -1.
         25    2    1    2    0    0  0.14208930739E+03 -0.68046207133E+02 -0.13767267618E+03  0.24371710725E+03  0.12499842007E+03 0.  0.
          2    1    1    2  501    0 -0.31188619728E+02  0.44873785142E+02 -0.32915075417E+03  0.33365641844E+03  0.00000000000E+00 0. -1.
          1    1    1    2  502    0 -0.11090068766E+03  0.23172421991E+02  0.47529218460E+02  0.12286150850E+03  0.00000000000E+00 0. -1.
         22    1    3    3    0    0  0.98074430615E+02 -0.47800275765E+02 -0.15730915544E+03  0.19144093263E+03  0.00000000000E+00 0. -1.
         22    1    3    3    0    0  0.44014876774E+02 -0.20245931369E+02  0.19636479262E+02  0.52276174614E+02  0.00000000000E+00 0. -1.
</event>
<event>
 7    1  0.6508013E-006  0.1295970E+03  0.7818608E-02  0.1399272E+00
          2   -1    0    0  502    0  0.00000000000E+00  0.00000000000E+00  0.64084074822E+02  0.64084074822E+02  0.00000000000E+00 0. -1.
          1   -1    0    0  501    0 -0.00000000000E+00 -0.00000000000E+00 -0.13854182051E+04  0.13854182051E+04  0.00000000000E+00 0. -1.
         25    2    1    2    0    0 -0.14552372310E+02  0.12856644308E+03 -0.53456597504E+03  0.56402826697E+03  0.12500400974E+03 0.  0.
          2    1    1    2  501    0 -0.26938523156E+02 -0.53407560315E+01 -0.74979264044E+03  0.75029541606E+03  0.00000000000E+00 0. -1.
          1    1    1    2  502    0  0.41490895466E+02 -0.12322568705E+03 -0.36975514772E+02  0.13517859686E+03  0.00000000000E+00 0. -1.
         22    1    3    3    0    0 -0.38078334487E+02  0.98532342273E+02 -0.19028195838E+03  0.21763686663E+03  0.00000000000E+00 0. -1.
         22    1    3    3    0    0  0.23525962178E+02  0.30034100811E+02 -0.34428401666E+03  0.34639140035E+03  0.00000000000E+00 0. -1.
</event>
<event>
 7    1  0.6508013E-006  0.3352622E+03  0.7818608E-02  0.1109794E+00
          2   -1    0    0  502    0  0.00000000000E+00  0.00000000000E+00  0.14269829125E+04  0.14269829125E+04  0.00000000000E+00 0. -1.
          1   -1    0    0  501    0 -0.00000000000E+00 -0.00000000000E+00 -0.13584707611E+04  0.13584707611E+04  0.00000000000E+00 0. -1.
         25    2    1    2    0    0  0.32963222853E+03 -0.34416552381E+01 -0.20444019977E+03  0.40753855570E+03  0.12499051173E+03 0.  0.
          2    1    1    2  501    0 -0.49688070429E+02 -0.18848148105E+03 -0.10213833657E+04  0.10398164034E+04  0.00000000000E+00 0. -1.
          1    1    1    2  502    0 -0.27994415810E+03  0.19192313629E+03  0.12943357169E+04  0.13380987145E+04  0.00000000000E+00 0. -1.
         22    1    3    3    0    0  0.14200646872E+03 -0.43753828744E+02 -0.14250757022E+03  0.20588502194E+03  0.00000000000E+00 0. -1.
         22    1    3    3    0    0  0.18762575981E+03  0.40312173506E+02 -0.61932629556E+02  0.20165353376E+03  0.00000000000E+00 0. -1.
</event>
<event>
 7    1  0.6508013E-006  0.7295063E+02  0.7818608E-02  0.1504700E+00
          2   -1    0    0  502    0  0.00000000000E+00  0.00000000000E+00  0.10326565982E+04  0.10326565982E+04  0.00000000000E+00 0. -1.
          1   -1    0    0  501    0 -0.00000000000E+00 -0.00000000000E+00 -0.23026463983E+03  0.23026463983E+03  0.00000000000E+00 0. -1.
         25    2    1    2    0    0 -0.46180721672E+02  0.80019096365E+02 -0.32405612609E+02  0.15878074317E+03  0.12500194333E+03 0.  0.
          2    1    1    2  501    0  0.37408004039E+02 -0.59339439855E+02 -0.12539686121E+03  0.14368333476E+03  0.00000000000E+00 0. -1.
          1    1    1    2  502    0  0.87727176335E+01 -0.20679656510E+02  0.96019443215E+03  0.96045716005E+03  0.00000000000E+00 0. -1.
         22    1    3    3    0    0 -0.54224969637E+02 -0.10540330984E+02  0.13597199372E+02  0.56888748801E+02  0.00000000000E+00 0. -1.
         22    1    3    3    0    0  0.80442479653E+01  0.90559427349E+02 -0.46002811980E+02  0.10189199437E+03  0.00000000000E+00 0. -1.
</event>
<event>
 7    1  0.6508013E-006  0.1064751E+03  0.7818608E-02  0.1320295E+00
          2   -1    0    0  502    0  0.00000000000E+00  0.00000000000E+00  0.50315319790E+02  0.50315319790E+02  0.00000000000E+00 0. -1.
          1   -1    0    0  501    0 -0.00000000000E+00 -0.00000000000E+00 -0.10666678549E+04  0.10666678549E+04  0.00000000000E+00 0. -1.
         25    2    1    2    0    0 -0.21845379367E+02  0.13470184245E+03 -0.38681884464E+03  0.42880683244E+03  0.12499869608E+03 0.  0.
          2    1    1    2  501    0  0.53090435211E+02 -0.37436947782E+02 -0.56193189168E+03  0.56567443839E+03  0.00000000000E+00 0. -1.
          1    1    1    2  502    0 -0.31245055844E+02 -0.97264894668E+02 -0.67601798814E+02  0.12250190387E+03  0.00000000000E+00 0. -1.
         22    1    3    3    0    0 -0.34781688054E+02  0.15535727432E+03 -0.35174990988E+03  0.38610056670E+03  0.00000000000E+00 0. -1.
         22    1    3    3    0    0  0.12936308687E+02 -0.20655431871E+02 -0.35068934760E+02  0.42706265739E+02  0.00000000000E+00 0. -1.
</event>
<event>
 7    1  0.6508013E-006  0.6967876E+02  0.7818608E-02  0.1424912E+00
          2   -1    0    0  502    0  0.00000000000E+00  0.00000000000E+00  0.75239336489E+03  0.75239336489E+03  0.00000000000E+00 0. -1.
          1   -1    0    0  501    0 -0.00000000000E+00 -0.00000000000E+00 -0.37974911904E+03  0.37974911904E+03  0.00000000000E+00 0. -1.
         25    2    1    2    0    0  0.69661393207E+02 -0.54458144939E+01 -0.59845571479E+01  0.14332781764E+03  0.12499872714E+03 0.  0.
          2    1    1    2  501    0 -0.60787361358E+02 -0.35443964969E+02 -0.30038310550E+03  0.30851481006E+03  0.00000000000E+00 0. -1.
          1    1    1    2  502    0 -0.88740318490E+01  0.40889779463E+02  0.67901190850E+03  0.68029985623E+03  0.00000000000E+00 0. -1.
         22    1    3    3    0    0 -0.30376309124E+02 -0.51563191639E+01  0.23819304396E+02  0.38944409679E+02  0.00000000000E+00 0.  1.
         22    1    3    3    0    0  0.10003770233E+03 -0.28949533002E+00 -0.29803861544E+02  0.10438340796E+03  0.00000000000E+00 0.  1.
</event>
<event>
 7    1  0.6508013E-006  0.1259419E+03  0.7818608E-02  0.1334750E+00
          2   -1    0    0  502    0  0.00000000000E+00  0.00000000000E+00  0.29819168309E+04  0.29819168309E+04  0.00000000000E+00 0. -1.
          1   -1    0    0  501    0 -0.00000000000E+00 -0.00000000000E+00 -0.34595475599E+03  0.34595475599E+03  0.00000000000E+00 0. -1.
         25    2    1    2    0    0  0.21218891396E+02  0.83859326823E+02  0.50904467005E+03  0.53125213129E+03  0.12497888962E+03 0.  0.
          2    1    1    2  501    0  0.75592231764E+00 -0.12691535210E+03 -0.32257768671E+03  0.34664743181E+03  0.00000000000E+00 0. -1.
          1    1    1    2  502    0 -0.21974813714E+02  0.43056025277E+02  0.24494950916E+04  0.24499720238E+04  0.00000000000E+00 0. -1.
         22    1    3    3    0    0  0.36610026844E+01 -0.33081902935E+02  0.95569892594E+02  0.10119989927E+03  0.00000000000E+00 0.  1.
         22    1    3    3    0    0  0.17557888712E+02  0.11694122976E+03  0.41347477745E+03  0.43005223202E+03  0.00000000000E+00 0.  1.
</event>
<event>
 7    1  0.6508013E-006  0.8721984E+02  0.7818608E-02  0.1450707E+00
          2   -1    0    0  502    0  0.00000000000E+00  0.00000000000E+00  0.11051691483E+03  0.11051691483E+03  0.00000000000E+00 0. -1.
          1   -1    0    0  501    0 -0.00000000000E+00 -0.00000000000E+00 -0.98481536079E+03  0.98481536079E+03  0.00000000000E+00 0. -1.
         25    2    1    2    0    0  0.50051046766E+02  0.99288340692E+02 -0.12947121829E+03  0.21154439419E+03  0.12499980986E+03 0.  0.
          2    1    1    2  501    0 -0.11453629053E+02 -0.25055519291E+02 -0.78879163629E+03  0.78927258292E+03  0.00000000000E+00 0. -1.
          1    1    1    2  502    0 -0.38597417714E+02 -0.74232821401E+02  0.43964408625E+02  0.94515298513E+02  0.00000000000E+00 0. -1.
         22    1    3    3    0    0  0.26595367326E+02  0.12471526487E+03 -0.12130489185E+03  0.17600024898E+03  0.00000000000E+00 0.  1.
         22    1    3    3    0    0  0.23455679440E+02 -0.25426924175E+02 -0.81663264446E+01  0.35544145208E+02  0.00000000000E+00 0.  1.
</event>
<event>
 7    1  0.6508013E-006  0.7345167E+02  0.7818608E-02  0.1452186E+00
          2   -1    0    0  502    0  0.00000000000E+00  0.00000000000E+00  0.16072648753E+03  0.16072648753E+03  0.00000000000E+00 0. -1.
          1   -1    0    0  501    0 -0.00000000000E+00 -0.00000000000E+00 -0.13786351006E+04  0.13786351006E+04  0.00000000000E+00 0. -1.
         25    2    1    2    0    0 -0.40975810143E+02 -0.10908655691E+02 -0.47572932778E+03  0.49370198803E+03  0.12500097559E+03 0.  0.
          2    1    1    2  501    0 -0.32352198634E+02  0.68649778306E+00 -0.88457491035E+03  0.88516659904E+03  0.00000000000E+00 0. -1.
          1    1    1    2  502    0  0.73328008777E+02  0.10222157908E+02  0.14239562501E+03  0.16049300111E+03  0.00000000000E+00 0. -1.
         22    1    3    3    0    0 -0.37447491967E+02 -0.66248622446E+02 -0.25494449623E+03  0.26605993834E+03  0.00000000000E+00 0.  1.
         22    1    3    3    0    0 -0.35283181758E+01  0.55339966756E+02 -0.22078483155E+03  0.22764204970E+03  0.00000000000E+00 0.  1.
</event>
<event>
 7    1  0.6508013E-006  0.1029428E+03  0.7818608E-02  0.1298855E+00
          2   -1    0    0  502    0  0.00000000000E+00  0.00000000000E+00  0.28747692920E+04  0.28747692920E+04  0.00000000000E+00 0. -1.
          1   -1    0    0  501    0 -0.00000000000E+00 -0.00000000000E+00 -0.64474518097E+03  0.64474518097E+03  0.00000000000E+00 0. -1.
         25    2    1    2    0    0 -0.13077931853E+03 -0.10937987179E+03  0.96619246680E+03  0.98904994417E+03  0.12499889057E+03 0.  0.
          2    1    1    2  501    0  0.96431046514E+02  0.35324179272E+02 -0.62826724821E+03  0.63660543474E+03  0.00000000000E+00 0. -1.
          1    1    1    2  502    0  0.34348272016E+02  0.74055692517E+02  0.18920988925E+04  0.18938590941E+04  0.00000000000E+00 0. -1.
         22    1    3    3    0    0  0.20601558763E+02 -0.41101564737E+01  0.46055081947E+02  0.50620037365E+02  0.00000000000E+00 0. -1.
         22    1    3    3    0    0 -0.15138087729E+03 -0.10526971532E+03  0.92013738486E+03  0.93842990680E+03  0.00000000000E+00 0. -1.
</event>
<event>
 7    1  0.6508013E-006  0.2591268E+03  0.7818608E-02  0.1266465E+00
          2   -1    0    0  502    0  0.00000000000E+00  0.00000000000E+00  0.31428622434E+04  0.31428622434E+04  0.00000000000E+00 0. -1.
          1   -1    0    0  501    0 -0.00000000000E+00 -0.00000000000E+00 -0.11269784116E+04  0.11269784116E+04  0.00000000000E+00 0. -1.
         25    2    1    2    0    0  0.13569412383E+03 -0.17266061865E+03 -0.14130612206E+03  0.28951352709E+03  0.12500431097E+03 0.  0.
          2    1    1    2  501    0  0.98572676644E+01 -0.42965015769E+02 -0.90551786446E+03  0.90659018369E+03  0.00000000000E+00 0. -1.
          1    1    1    2  502    0 -0.14555139150E+03  0.21562563442E+03  0.30627078183E+04  0.30737369442E+04  0.00000000000E+00 0. -1.
         22    1    3    3    0    0  0.70495223658E+02 -0.52400850340E+01 -0.58155332974E+02  0.91537302795E+02  0.00000000000E+00 0.  1.
         22    1    3    3    0    0  0.65198900173E+02 -0.16742053362E+03 -0.83150789084E+02  0.19797622429E+03  0.00000000000E+00 0.  1.
</event>
<event>
 7    1  0.6508013E-006  0.1684083E+03  0.7818608E-02  0.1296409E+00
          2   -1    0    0  502    0  0.00000000000E+00  0.00000000000E+00  0.22885792836E+04  0.22885792836E+04  0.00000000000E+00 0. -1.
          1   -1    0    0  501    0 -0.00000000000E+00 -0.00000000000E+00 -0.43798565547E+02  0.43798565547E+02  0.00000000000E+00 0. -1.
         25    2    1    2    0    0  0.61463534522E+01 -0.20048873687E+03  0.10235745292E+04  0.10505063987E+04  0.12500146207E+03 0.  0.
          2    1    1    2  501    0 -0.24769687437E+02  0.44629161066E+02  0.42883975285E+00  0.51043935356E+02  0.00000000000E+00 0. -1.
          1    1    1    2  502    0  0.18623333984E+02  0.15585957580E+03  0.12207773491E+04  0.12308275151E+04  0.00000000000E+00 0. -1.
         22    1    3    3    0    0  0.53500655961E+02 -0.37725607059E+02  0.23709814557E+03  0.24596965717E+03  0.00000000000E+00 0.  1.
         22    1    3    3    0    0 -0.47354302509E+02 -0.16276312981E+03  0.78647638366E+03  0.80453674152E+03  0.00000000000E+00 0.  1.
</event>
<event>
 7    1  0.6508013E-006  0.1790092E+03  0.7818608E-02  0.1295927E+00
          2   -1    0    0  502    0  0.00000000000E+00  0.00000000000E+00  0.10582370600E+04  0.10582370600E+04  0.00000000000E+00 0. -1.
          1   -1    0    0  501    0 -0.00000000000E+00 -0.00000000000E+00 -0.12149881667E+04  0.12149881667E+04  0.00000000000E+00 0. -1.
         25    2    1    2    0    0 -0.10369599026E+03  0.11217942857E+03 -0.78893644900E+02  0.21256973658E+03  0.12499841245E+03 0.  0.
          2    1    1    2  501    0  0.15095716048E+03 -0.10253781082E+03 -0.10608745625E+04  0.10764557141E+04  0.00000000000E+00 0. -1.
          1    1    1    2  502    0 -0.47261170221E+02 -0.96416177466E+01  0.98301710066E+03  0.98419977606E+03  0.00000000000E+00 0. -1.
         22    1    3    3    0    0 -0.77956030472E+01 -0.26609476887E+02 -0.40810701991E+01  0.28026609160E+02  0.00000000000E+00 0. -1.
         22    1    3    3    0    0 -0.95900387215E+02  0.13878890545E+03 -0.74812574701E+02  0.18454312742E+03  0.00000000000E+00 0. -1.
</event>
<event>
 7    1  0.6508013E-006  0.1814399E+03  0.7818608E-02  0.1228040E+00
          2   -1    0    0  502    0  0.00000000000E+00  0.00000000000E+00  0.44755322806E+03  0.44755322806E+03  0.00000000000E+00 0. -1.
          1   -1    0    0  501    0 -0.00000000000E+00 -0.00000000000E+00 -0.10672164878E+04  0.10672164878E+04  0.00000000000E+00 0. -1.
         25    2    1    2    0    0  0.19795230950E+03 -0.12555535713E+03 -0.15491124280E+03  0.30752814902E+03  0.12500721881E+03 0.  0.
          2    1    1    2  501    0 -0.10661101036E+03  0.14065778783E+03 -0.82069329472E+03  0.83945697020E+03  0.00000000000E+00 0. -1.
          1    1    1    2  502    0 -0.91341299140E+02 -0.15102430699E+02  0.35594127775E+03  0.36778459667E+03  0.00000000000E+00 0. -1.
         22    1    3    3    0    0  0.17281269404E+03 -0.14994583572E+03 -0.14591107305E+03  0.27136326596E+03  0.00000000000E+00 0.  1.
         22    1    3    3    0    0  0.25139615462E+02  0.24390478594E+02 -0.90001697476E+01  0.36164883066E+02  0.00000000000E+00 0.  1.
</event>
<event>
 7    1  0.6508013E-006  0.4242736E+02  0.7818608E-02  0.1512510E+00
          2   -1    0    0  502    0  0.00000000000E+00  0.00000000000E+00  0.69207847862E+02  0.69207847862E+02  0.00000000000E+00 0. -1.
          1   -1    0    0  501    0 -0.00000000000E+00 -0.00000000000E+00 -0.73174932166E+03  0.73174932166E+03  0.00000000000E+00 0. -1.
         25    2    1    2    0    0  0.36840103399E+02  0.26932150724E+02 -0.15789337258E+03  0.20649555790E+03  0.12501025704E+03 0.  0.
          2    1    1    2  501    0 -0.37668521620E+01 -0.42675800197E+02 -0.54109525727E+03  0.54278862418E+03  0.00000000000E+00 0. -1.
          1    1    1    2  502    0 -0.33073251237E+02  0.15743649473E+02  0.36447156060E+02  0.51672987440E+02  0.00000000000E+00 0. -1.
         22    1    3    3    0    0 -0.34459235999E+02 -0.11374255628E+02 -0.95746296365E+01  0.37529803748E+02  0.00000000000E+00 0.  1.
         22    1    3    3    0    0  0.71299339398E+02  0.38306406352E+02 -0.14831874295E+03  0.16896575415E+03  0.00000000000E+00 0.  1.
</event>
<event>
 7    1  0.6508013E-006  0.6011404E+02  0.7818608E-02  0.1463156E+00
          2   -1    0    0  502    0  0.00000000000E+00  0.00000000000E+00  0.31073769864E+03  0.31073769864E+03  0.00000000000E+00 0. -1.
          1   -1    0    0  501    0 -0.00000000000E+00 -0.00000000000E+00 -0.12018905024E+03  0.12018905024E+03  0.00000000000E+00 0. -1.
         25    2    1    2    0    0  0.15627747405E+02  0.89058816449E+02  0.53466625161E+02  0.16327620777E+03  0.12499896297E+03 0.  0.
          2    1    1    2  501    0 -0.20550067410E+02 -0.52891176317E+02 -0.50857741121E+02  0.76199026468E+02  0.00000000000E+00 0. -1.
          1    1    1    2  502    0  0.49223200053E+01 -0.36167640133E+02  0.18793976436E+03  0.19145151463E+03  0.00000000000E+00 0. -1.
         22    1    3    3    0    0  0.65162628073E+02  0.20741936320E+02  0.12676094023E+02  0.69549114872E+02  0.00000000000E+00 0. -1.
         22    1    3    3    0    0 -0.49534880669E+02  0.68316880129E+02  0.40790531139E+02  0.93727092903E+02  0.00000000000E+00 0. -1.
</event>
<event>
 7    1  0.6508013E-006  0.1370179E+03  0.7818608E-02  0.1235469E+00
          2   -1    0    0  502    0  0.00000000000E+00  0.00000000000E+00  0.46504309654E+03  0.46504309654E+03  0.00000000000E+00 0. -1.
          1   -1    0    0  501    0 -0.00000000000E+00 -0.00000000000E+00 -0.17576255270E+03  0.17576255270E+03  0.00000000000E+00 0. -1.
         25    2    1    2    0    0  0.38835368843E+02 -0.49219655018E+02 -0.10083221666E+02  0.14020565836E+03  0.12500077985E+03 0.  0.
          2    1    1    2  501    0  0.11300585263E+03  0.11306789354E+02 -0.45141492385E+02  0.12221260389E+03  0.00000000000E+00 0. -1.
          1    1    1    2  502    0 -0.15184122147E+03  0.37912865664E+02  0.34450525789E+03  0.37838738699E+03  0.00000000000E+00 0. -1.
         22    1    3    3    0    0 -0.14797923725E+02  0.33547703190E+02  0.13021684306E+02  0.38910039811E+02  0.00000000000E+00 0.  1.
         22    1    3    3    0    0  0.53633292569E+02 -0.82767358208E+02 -0.23104905972E+02  0.10129561855E+03  0.00000000000E+00 0.  1.
</event>
<event>
 7    1  0.6508013E-006  0.1493254E+03  0.7818608E-02  0.1368643E+00
          2   -1    0    0  502    0  0.00000000000E+00  0.00000000000E+00  0.16864088165E+04  0.16864088165E+04  0.00000000000E+00 0. -1.
          1   -1    0    0  501    0 -0.00000000000E+00 -0.00000000000E+00 -0.17218253329E+03  0.17218253329E+03  0.00000000000E+00 0. -1.
         25    2    1    2    0    0  0.10349277852E+03  0.62623049551E+02  0.68718212796E+02  0.18702751378E+03  0.12499878640E+03 0.  0.
          2    1    1    2  501    0  0.22727215764E+02  0.20420526784E+02 -0.10722709650E+03  0.11149517691E+03  0.00000000000E+00 0. -1.
          1    1    1    2  502    0 -0.12621999428E+03 -0.83043576335E+02  0.15527351669E+04  0.15600686591E+04  0.00000000000E+00 0. -1.
         22    1    3    3    0    0  0.10280994278E+03 -0.81784915533E+01  0.39974526301E+02  0.11061073551E+03  0.00000000000E+00 0. -1.
         22    1    3    3    0    0  0.68283573917E+00  0.70801541104E+02  0.28743686495E+02  0.76416778267E+02  0.00000000000E+00 0. -1.
</event>
<event>
 7    1  0.6508013E-006  0.7827125E+02  0.7818608E-02  0.1339971E+00
          2   -1    0    0  502    0  0.00000000000E+00  0.00000000000E+00  0.95955775807E+03  0.95955775807E+03  0.00000000000E+00 0. -1.
          1   -1    0    0  501    0 -0.00000000000E+00 -0.00000000000E+00 -0.29343311378E+03  0.29343311378E+03  0.00000000000E+00 0. -1.
         25    2    1    2    0    0 -0.13486971683E+02 -0.26633483184E+02  0.38621611784E+03  0.40703218138E+03  0.12498426366E+03 0.  0.
          2    1    1    2  501    0  0.10136042206E+02 -0.73633321247E+02 -0.27355664778E+03  0.28347459303E+03  0.00000000000E+00 0. -1.
          1    1    1    2  502    0  0.33509294775E+01  0.10026680443E+03  0.55346517422E+03  0.56248409744E+03  0.00000000000E+00 0. -1.
         22    1    3    3    0    0  0.12612311869E+02  0.92588489865E+01 -0.24535256012E+01  0.15837186717E+02  0.00000000000E+00 0.  1.
         22    1    3    3    0    0 -0.26099283553E+02 -0.35892332171E+02  0.38866964345E+03  0.39119499466E+03  0.00000000000E+00 0.  1.
</event>
<event>
 7    1  0.6508013E-006  0.1815631E+03  0.7818608E-02  0.1167978E+00
          2   -1    0    0  502    0  0.00000000000E+00  0.00000000000E+00  0.11093876246E+04  0.11093876246E+04  0.00000000000E+00 0. -1.
          1   -1    0    0  501    0 -0.00000000000E+00 -0.00000000000E+00 -0.10325039520E+04  0.10325039520E+04  0.00000000000E+00 0. -1.
         25    2    1    2    0    0 -0.13959350832E+01 -0.29017498970E+02  0.22006025075E+03  0.25474816018E+03  0.12500458902E+03 0.  0.
          2    1    1    2  501    0  0.18284734763E+03  0.22649879582E+02 -0.99717728836E+03  0.10140555774E+04  0.00000000000E+00 0. -1.
          1    1    1    2  502    0 -0.18145141255E+03  0.63676193884E+01  0.85400071021E+03  0.87308783907E+03  0.00000000000E+00 0. -1.
         22    1    3    3    0    0  0.14333921361E+02 -0.18975540136E+02  0.23159263860E+03  0.23281040071E+03  0.00000000000E+00 0. -1.
         22    1    3    3    0    0 -0.15729856444E+02 -0.10041958834E+02 -0.11532387852E+02  0.21937759470E+02  0.00000000000E+00 0. -1.
</event>
<event>
 7    1  0.6508013E-006  0.7348623E+02  0.7818608E-02  0.1481552E+00
          2   -1    0    0  502    0  0.00000000000E+00  0.00000000000E+00  0.10092966031E+03  0.10092966031E+03  0.00000000000E+00 0. -1.
          1   -1    0    0  501    0 -0.00000000000E+00 -0.00000000000E+00 -0.47016316772E+03  0.47016316772E+03  0.00000000000E+00 0. -1.
         25    2    1    2    0    0  0.52310433309E+02  0.76643522684E+02 -0.16546984906E+03  0.22718917021E+03  0.12499614837E+03 0.  0.
          2    1    1    2  501    0 -0.23897904683E+02 -0.10700358149E+02 -0.25458911610E+03  0.25593207214E+03  0.00000000000E+00 0. -1.
          1    1    1    2  502    0 -0.28412528626E+02 -0.65943164535E+02  0.50825457758E+02  0.87971585686E+02  0.00000000000E+00 0. -1.
         22    1    3    3    0    0  0.25187276535E+02 -0.46450180898E+01 -0.13316886430E+03  0.13560944477E+03  0.00000000000E+00 0.  1.
         22    1    3    3    0    0  0.27123156774E+02  0.81288540774E+02 -0.32300984766E+02  0.91579725438E+02  0.00000000000E+00 0.  1.
</event>
<event>
 7    1  0.6508013E-006  0.1188046E+03  0.7818608E-02  0.1392418E+00
          2   -1    0    0  502    0  0.00000000000E+00  0.00000000000E+00  0.12145283190E+03  0.12145283190E+03  0.00000000000E+00 0. -1.
          1   -1    0    0  501    0 -0.00000000000E+00 -0.00000000000E+00 -0.14594311618E+04  0.14594311618E+04  0.00000000000E+00 0. -1.
         25    2    1    2    0    0 -0.64823575702E+02 -0.75686602924E+02 -0.13462448375E+03  0.20899671189E+03  0.12500126451E+03 0.  0.
          2    1    1    2  501    0  0.56674579391E+02  0.10625780800E+03 -0.12817253571E+04  0.12873704287E+04  0.00000000000E+00 0. -1.
          1    1    1    2  502    0  0.81489963103E+01 -0.30571205079E+02  0.78371510968E+02  0.84516853067E+02  0.00000000000E+00 0. -1.
         22    1    3    3    0    0 -0.19791500064E+02  0.27554240695E+02 -0.73252567073E+02  0.80727184008E+02  0.00000000000E+00 0.  1.
         22    1    3    3    0    0 -0.45032075637E+02 -0.10324084362E+03 -0.61371916673E+02  0.12826952788E+03  0.00000000000E+00 0.  1.
</event>
<event>
 7    1  0.6508013E-006  0.1104655E+03  0.7818608E-02  0.1402750E+00
          2   -1    0    0  502    0  0.00000000000E+00  0.00000000000E+00  0.28172852506E+04  0.28172852506E+04  0.00000000000E+00 0. -1.
          1   -1    0    0  501    0 -0.00000000000E+00 -0.00000000000E+00 -0.39156529685E+03  0.39156529685E+03  0.00000000000E+00 0. -1.
         25    2    1    2    0    0  0.10048509846E+03  0.65194012304E+02  0.33796567161E+03  0.37972823364E+03  0.12500088793E+03 0.  0.
          2    1    1    2  501    0 -0.26637927370E+02  0.16520730441E+02 -0.36878525519E+03  0.37011495263E+03  0.00000000000E+00 0. -1.
          1    1    1    2  502    0 -0.73847171094E+02 -0.81714742745E+02  0.24565395374E+04  0.24590073612E+04  0.00000000000E+00 0. -1.
         22    1    3    3    0    0  0.10225138375E+03  0.70910127525E+02  0.34714427511E+03  0.36877193413E+03  0.00000000000E+00 0.  1.
         22    1    3    3    0    0 -0.17662852907E+01 -0.57161152214E+01 -0.91786034915E+01  0.10956299512E+02  0.00000000000E+00 0.  1.
</event>
<event>
 7    1  0.6508013E-006  0.1013029E+03  0.7818608E-02  0.1311001E+00
          2   -1    0    0  502    0  0.00000000000E+00  0.00000000000E+00  0.76967195653E+03  0.76967195653E+03  0.00000000000E+00 0. -1.
          1   -1    0    0  501    0 -0.00000000000E+00 -0.00000000000E+00 -0.28793231456E+03  0.28793231456E+03  0.00000000000E+00 0. -1.
         25    2    1    2    0    0  0.81206121126E+02  0.71478009009E+02 -0.83659881843E+02  0.18527036691E+03  0.12499037221E+03 0.  0.
          2    1    1    2  501    0 -0.68116483919E+02  0.29504701183E+02 -0.14061915424E+03  0.15900984030E+03  0.00000000000E+00 0. -1.
          1    1    1    2  502    0 -0.13089637207E+02 -0.10098271019E+03  0.70601867805E+03  0.71332406388E+03  0.00000000000E+00 0. -1.
         22    1    3    3    0    0  0.90889903724E+02  0.30664022076E+02 -0.49140879589E+01  0.96048972453E+02  0.00000000000E+00 0. -1.
         22    1    3    3    0    0 -0.96837825974E+01  0.40813986933E+02 -0.78745793884E+02  0.89221394459E+02  0.00000000000E+00 0. -1.
</event>
<event>
 7    1  0.6508013E-006  0.8313711E+02  0.7818608E-02  0.1361137E+00
          2   -1    0    0  502    0  0.00000000000E+00  0.00000000000E+00  0.79607521644E+03  0.79607521644E+03  0.00000000000E+00 0. -1.
          1   -1    0    0  501    0 -0.00000000000E+00 -0.00000000000E+00 -0.32165760919E+03  0.32165760919E+03  0.00000000000E+00 0. -1.
         25    2    1    2    0    0  0.10044784997E+03  0.65455400465E+02  0.57114857130E+03  0.59683326692E+03  0.12500031198E+03 0.  0.
          2    1    1    2  501    0 -0.82304112997E+02 -0.99196885641E+01 -0.29904273611E+03  0.31032068133E+03  0.00000000000E+00 0. -1.
          1    1    1    2  502    0 -0.18143736970E+02 -0.55535711901E+02  0.20231177206E+03  0.21057887739E+03  0.00000000000E+00 0. -1.
         22    1    3    3    0    0  0.90887946669E+02  0.98696072882E+02  0.39058866690E+03  0.41299036353E+03  0.00000000000E+00 0.  1.
         22    1    3    3    0    0  0.95599032977E+01 -0.33240672418E+02  0.18055990440E+03  0.18384290340E+03  0.00000000000E+00 0.  1.
</event>
<event>
 7    1  0.6508013E-006  0.1580828E+03  0.7818608E-02  0.1227832E+00
          2   -1    0    0  502    0  0.00000000000E+00  0.00000000000E+00  0.63311663201E+03  0.63311663201E+03  0.00000000000E+00 0. -1.
          1   -1    0    0  501    0 -0.00000000000E+00 -0.00000000000E+00 -0.14031362660E+04  0.14031362660E+04  0.00000000000E+00 0. -1.
         25    2    1    2    0    0  0.19313401209E+03 -0.91286035934E+01 -0.59430624456E+03  0.63734500157E+03  0.12499864268E+03 0.  0.
          2    1    1    2  501    0 -0.13219551174E+03 -0.78201329432E+02 -0.77508144077E+03  0.79015336554E+03  0.00000000000E+00 0. -1.
          1    1    1    2  502    0 -0.60938500353E+02  0.87329933025E+02  0.59936805130E+03  0.60875453094E+03  0.00000000000E+00 0. -1.
         22    1    3    3    0    0  0.49318560795E+02 -0.20713154447E+02 -0.34643002409E+03  0.35053547152E+03  0.00000000000E+00 0.  1.
         22    1    3    3    0    0  0.14381545130E+03  0.11584550854E+02 -0.24787622047E+03  0.28680953005E+03  0.00000000000E+00 0.  1.
</event>
<event>
 7    1  0.6508013E-006  0.1081772E+03  0.7818608E-02  0.1403044E+00
          2   -1    0    0  502    0  0.00000000000E+00  0.00000000000E+00  0.33739936366E+03  0.33739936366E+03  0.00000000000E+00 0. -1.
          1   -1    0    0  501    0 -0.00000000000E+00 -0.00000000000E+00 -0.32557971101E+03  0.32557971101E+03  0.00000000000E+00 0. -1.
         25    2    1    2    0    0  0.12568810236E+03 -0.31563112296E+02 -0.89411180828E+01  0.18027304935E+03  0.12499879838E+03 0.  0.
          2    1    1    2  501    0 -0.20030542008E+02  0.24870948098E+02 -0.21863001674E+03  0.22094992847E+03  0.00000000000E+00 0. -1.
          1    1    1    2  502    0 -0.10565756035E+03  0.66921641978E+01  0.23939078747E+03  0.26175609686E+03  0.00000000000E+00 0. -1.
         22    1    3    3    0    0  0.91694617948E+02 -0.57970736973E+02 -0.51193813133E+02  0.11995547428E+03  0.00000000000E+00 0. -1.
         22    1    3    3    0    0  0.33993484410E+02  0.26407624678E+02  0.42252695050E+02  0.60317575071E+02  0.00000000000E+00 0. -1.
</event>
<event>
 7    1  0.6508013E-006  0.1005302E+03  0.7818608E-02  0.1358831E+00
          2   -1    0    0  502    0  0.00000000000E+00  0.00000000000E+00  0.35908034691E+02  0.35908034691E+02  0.00000000000E+00 0. -1.
          1   -1    0    0  501    0 -0.00000000000E+00 -0.00000000000E+00 -0.84703096380E+03  0.84703096380E+03  0.00000000000E+00 0. -1.
         25    2    1    2    0    0 -0.12367468871E+03  0.96556834907E+01 -0.25632929996E+03  0.31099458235E+03  0.12499703749E+03 0.  0.
          2    1    1    2  501    0  0.46556631823E+02  0.16099583479E+02 -0.31285427185E+03  0.31670887573E+03  0.00000000000E+00 0. -1.
          1    1    1    2  502    0  0.77118056890E+02 -0.25755266969E+02 -0.24193935730E+03  0.25523554041E+03  0.00000000000E+00 0. -1.
         22    1    3    3    0    0 -0.43937927327E+02 -0.56330975948E+02 -0.87430254273E+02  0.11290602141E+03  0.00000000000E+00 0.  1.
         22    1    3    3    0    0 -0.79736761386E+02  0.65986659439E+02 -0.16889904569E+03  0.19808856094E+03  0.00000000000E+00 0.  1.
</event>
<event>
 7    1  0.6508013E-006  0.5770085E+02  0.7818608E-02  0.1427893E+00
          2   -1    0    0  502    0  0.00000000000E+00  0.00000000000E+00  0.16446398059E+04  0.16446398059E+04  0.00000000000E+00 0. -1.
          1   -1    0    0  501    0 -0.00000000000E+00 -0.00000000000E+00 -0.54286453479E+02  0.54286453479E+02  0.00000000000E+00 0. -1.
         25    2    1    2    0    0  0.10179490678E+02 -0.98207580551E+02  0.57766168620E+03  0.59922169270E+03  0.12500104956E+03 0.  0.
          2    1    1    2  501    0 -0.21931320835E+02  0.44256445874E+02 -0.28516475846E+02  0.57033369439E+02  0.00000000000E+00 0. -1.
          1    1    1    2  502    0  0.11751830157E+02  0.53951134677E+02  0.10412081421E+04  0.10426711972E+04  0.00000000000E+00 0. -1.
         22    1    3    3    0    0 -0.56529628657E+02 -0.53900833586E+02  0.32042772953E+03  0.32981029188E+03  0.00000000000E+00 0. -1.
         22    1    3    3    0    0  0.66709119335E+02 -0.44306746965E+02  0.25723395667E+03  0.26941140082E+03  0.00000000000E+00 0. -1.
</event>
<event>
 7    1  0.6508013E-006  0.1816673E+03  0.7818608E-02  0.1237922E+00
          2   -1    0    0  502    0  0.00000000000E+00  0.00000000000E+00  0.91727036862E+03  0.91727036862E+03  0.00000000000E+00 0. -1.
          1   -1    0    0  501    0 -0.00000000000E+00 -0.00000000000E+00 -0.11362459882E+03  0.11362459882E+03  0.00000000000E+00 0. -1.
         25    2    1    2    0    0 -0.78462357679E+02  0.13221608194E+03  0.25043588676E+03  0.31934886480E+03  0.12501252007E+03 0.  0.
          2    1    1    2  501    0  0.52067298968E+02  0.65327685253E+02 -0.34936488812E+02  0.90549811335E+02  0.00000000000E+00 0. -1.
          1    1    1    2  502    0  0.26395058712E+02 -0.19754376720E+03  0.58814637185E+03  0.62099629130E+03  0.00000000000E+00 0. -1.
         22    1    3    3    0    0 -0.69572468985E+02  0.15003310866E+03  0.24960354250E+03  0.29941975647E+03  0.00000000000E+00 0. -1.
         22    1    3    3    0    0 -0.88898886944E+01 -0.17817026719E+02  0.83234426694E+00  0.19929108336E+02  0.00000000000E+00 0. -1.
</event>
<event>
 7    1  0.6508013E-006  0.1914373E+03  0.7818608E-02  0.1190523E+00
          2   -1    0    0  502    0  0.00000000000E+00  0.00000000000E+00  0.17430097243E+04  0.17430097243E+04  0.00000000000E+00 0. -1.
          1   -1    0    0  501    0 -0.00000000000E+00 -0.00000000000E+00 -0.46259595070E+03  0.46259595070E+03  0.00000000000E+00 0. -1.
         25    2    1    2    0    0 -0.13901870507E+03 -0.25514431326E+03  0.52966185087E+02  0.32071001088E+03  0.12499869345E+03 0.  0.
          2    1    1    2  501    0 -0.20750065976E+01  0.13103613712E+03 -0.30970948025E+03  0.33629560960E+03  0.00000000000E+00 0. -1.
          1    1    1    2  502    0  0.14109371167E+03  0.12410817615E+03  0.15371570688E+04  0.15486000545E+04  0.00000000000E+00 0. -1.
         22    1    3    3    0    0 -0.28230280170E+02 -0.99256376360E+02 -0.36650342524E+02  0.10950810278E+03  0.00000000000E+00 0.  1.
         22    1    3    3    0    0 -0.11078842490E+03 -0.15588793690E+03  0.89616527611E+02  0.21120190810E+03  0.00000000000E+00 0.  1.
</event>
<event>
 7    1  0.6508013E-006  0.1266751E+03  0.7818608E-02  0.1313304E+00
          2   -1    0    0  502    0  0.00000000000E+00  0.00000000000E+00  0.22434788776E+04  0.22434788776E+04  0.00000000000E+00 0. -1.
          1   -1    0    0  501    0 -0.00000000000E+00 -0.00000000000E+00 -0.75704543948E+02  0.75704543948E+02  0.00000000000E+00 0. -1.
         25    2    1    2    0    0 -0.79535815268E+02  0.11630932475E+03  0.54564589498E+03  0.57724129627E+03  0.12499706585E+03 0.  0.
          2    1    1    2  501    0  0.21958260440E+02 -0.12437900381E+03  0.77743909828E+01  0.12654146729E+03  0.00000000000E+00 0. -1.
          1    1    1    2  502    0  0.57577554828E+02  0.80696790597E+01  0.16143540477E+04  0.16154006580E+04  0.00000000000E+00 0. -1.
         22    1    3    3    0    0 -0.10715826252E+03  0.58885253235E+02  0.39987485282E+03  0.41815100644E+03  0.00000000000E+00 0. -1.
         22    1    3    3    0    0  0.27622447256E+02  0.57424071513E+02  0.14577104217E+03  0.15909028982E+03  0.00000000000E+00 0. -1.
</event>
<event>
 7    1  0.6508013E-006  0.1553000E+03  0.7818608E-02  0.1266213E+00
          2   -1    0    0  502    0  0.00000000000E+00  0.00000000000E+00  0.21351216158E+03  0.21351216158E+03  0.00000000000E+00 0. -1.
          1   -1    0    0  501    0 -0.00000000000E+00 -0.00000000000E+00 -0.34885903246E+03  0.34885903246E+03  0.00000000000E+00 0. -1.
         25    2    1    2    0    0  0.10304833920E+02 -0.97859300078E+02 -0.18258827297E+03  0.24216475625E+03  0.12499063776E+03 0.  0.
          2    1    1    2  501    0  0.42540384515E+02 -0.60223675558E+02 -0.81271641887E+02  0.10973447584E+03  0.00000000000E+00 0. -1.
          1    1    1    2  502    0 -0.52845218435E+02  0.15808297564E+03  0.12851304398E+03  0.21047196196E+03  0.00000000000E+00 0. -1.
         22    1    3    3    0    0 -0.21041008032E+02 -0.31900589932E+02  0.71319538223E+01  0.38874624401E+02  0.00000000000E+00 0. -1.
         22    1    3    3    0    0  0.31345841952E+02 -0.65958710146E+02 -0.18972022679E+03  0.20329013185E+03  0.00000000000E+00 0. -1.
</event>
<event>
 7    1  0.6508013E-006  0.5324399E+02  0.7818608E-02  0.1526766E+00
          2   -1    0    0  502    0  0.00000000000E+00  0.00000000000E+00  0.16481099450E+04  0.16481099450E+04  0.00000000000E+00 0. -1.
          1   -1    0    0  501    0 -0.00000000000E+00 -0.00000000000E+00 -0.20899657119E+03  0.20899657119E+03  0.00000000000E+00 0. -1.
         25    2    1    2    0    0 -0.29541283340E+02 -0.54083929492E+02 -0.13421803495E+03  0.19348661824E+03  0.12499932672E+03 0.  0.
          2    1    1    2  501    0  0.26516343507E+02  0.93250862248E+00 -0.40768577078E+02  0.48642192819E+02  0.00000000000E+00 0. -1.
          1    1    1    2  502    0  0.30249398328E+01  0.53151420869E+02  0.16140999858E+04  0.16149777051E+04  0.00000000000E+00 0. -1.
         22    1    3    3    0    0 -0.39495748876E+02  0.12999969786E+02 -0.11605388450E+03  0.12327780620E+03  0.00000000000E+00 0.  1.
         22    1    3    3    0    0  0.99544655370E+01 -0.67083899278E+02 -0.18164150449E+02  0.70208812039E+02  0.00000000000E+00 0.  1.
</event>
<event>
 7    1  0.6508013E-006  0.3109165E+02  0.7818608E-02  0.1601038E+00
          2   -1    0    0  502    0  0.00000000000E+00  0.00000000000E+00  0.10074535284E+03  0.10074535284E+03  0.00000000000E+00 0. -1.
          1   -1    0    0  501    0 -0.00000000000E+00 -0.00000000000E+00 -0.45139825825E+03  0.45139825825E+03  0.00000000000E+00 0. -1.
         25    2    1    2    0    0  0.33988625610E+01  0.22712429064E+02  0.35935327090E+02  0.13207378945E+03  0.12499892570E+03 0.  0.
          2    1    1    2  501    0 -0.31013602953E+02 -0.22016540080E+01 -0.38434241688E+03  0.38559795677E+03  0.00000000000E+00 0. -1.
          1    1    1    2  502    0  0.27614740392E+02 -0.20510775056E+02 -0.22458156169E+01  0.34471864877E+02  0.00000000000E+00 0. -1.
         22    1    3    3    0    0 -0.54715605867E+02 -0.15950741222E+02  0.11670597801E+02  0.58175824222E+02  0.00000000000E+00 0.  1.
         22    1    3    3    0    0  0.58114468428E+02  0.38663170286E+02  0.24264729290E+02  0.73897965227E+02  0.00000000000E+00 0.  1.
</event>
<event>
 7    1  0.6508013E-006  0.8011936E+02  0.7818608E-02  0.1331923E+00
          2   -1    0    0  502    0  0.00000000000E+00  0.00000000000E+00  0.19633293759E+03  0.19633293759E+03  0.00000000000E+00 0. -1.
          1   -1    0    0  501    0 -0.00000000000E+00 -0.00000000000E+00 -0.79895651835E+03  0.79895651835E+03  0.00000000000E+00 0. -1.
         25    2    1    2    0    0 -0.81148322344E+01 -0.38474173116E+02 -0.15109414446E+03  0.20000100610E+03  0.12499939780E+03 0.  0.
          2    1    1    2  501    0  0.80119341344E+02  0.53781527976E-01 -0.61095562256E+03  0.61618656630E+03  0.00000000000E+00 0. -1.
          1    1    1    2  502    0 -0.72004509110E+02  0.38420391588E+02  0.15942618627E+03  0.17910188355E+03  0.00000000000E+00 0. -1.
         22    1    3    3    0    0 -0.63476297810E+02 -0.36781424235E+02 -0.10415836071E+03  0.12740124669E+03  0.00000000000E+00 0.  1.
         22    1    3    3    0    0  0.55361465575E+02 -0.16927488815E+01 -0.46935783749E+02  0.72599759404E+02  0.00000000000E+00 0.  1.
</event>
<event>
 7    1  0.6508013E-006  0.2785730E+02  0.7818608E-02  0.1644826E+00
          2   -1    0    0  502    0  0.00000000000E+00  0.00000000000E+00  0.85957283221E+03  0.85957283221E+03  0.00000000000E+00 0. -1.
          1   -1    0    0  501    0 -0.00000000000E+00 -0.00000000000E+00 -0.80715917584E+02  0.80715917584E+02  0.00000000000E+00 0. -1.
         25    2    1    2    0    0 -0.13278541213E+01 -0.56633321320E+01  0.21918802788E+03  0.25239250986E+03  0.12499900376E+03 0.  0.
          2    1    1    2  501    0  0.16357289476E+02 -0.18338321290E+02 -0.61424506090E+02  0.66157576249E+02  0.00000000000E+00 0. -1.
          1    1    1    2  502    0 -0.15029435354E+02  0.24001653422E+02  0.62109339283E+03  0.62173866368E+03  0.00000000000E+00 0. -1.
         22    1    3    3    0    0 -0.12311908365E+02 -0.43640784101E+02  0.20567309036E+03  0.21061225326E+03  0.00000000000E+00 0. -1.
         22    1    3    3    0    0  0.10984054244E+02  0.37977451970E+02  0.13514937522E+02  0.41780256605E+02  0.00000000000E+00 0. -1.
</event>
<event>
 7    1  0.6508013E-006  0.1001789E+03  0.7818608E-02  0.1387763E+00
          2   -1    0    0  502    0  0.00000000000E+00  0.00000000000E+00  0.20564831946E+04  0.20564831946E+04  0.00000000000E+00 0. -1.
          1   -1    0    0  501    0 -0.00000000000E+00 -0.00000000000E+00 -0.27547237470E+02  0.27547237470E+02  0.00000000000E+00 0. -1.
         25    2    1    2    0    0  0.78233940968E+02  0.40551387944E+02  0.34558555150E+03  0.37791440760E+03  0.12499984593E+03 0.  0.
          2    1    1    2  501    0 -0.11011978979E+03 -0.18180243796E+02  0.26907557976E+03  0.29130492099E+03  0.00000000000E+00 0. -1.
          1    1    1    2  502    0  0.31885848826E+02 -0.22371144148E+02  0.14142748259E+04  0.14148111035E+04  0.00000000000E+00 0. -1.
         22    1    3    3    0    0  0.52892485761E+02  0.67733484114E+02  0.11087896474E+03  0.14028394328E+03  0.00000000000E+00 0. -1.
         22    1    3    3    0    0  0.25341455207E+02 -0.27182096169E+02  0.23470658676E+03  0.23763046432E+03  0.00000000000E+00 0. -1.
</event>
<event>
 7    1  0.6508013E-006  0.1401868E+03  0.7818608E-02  0.1245825E+00
          2   -1    0    0  502    0  0.00000000000E+00  0.00000000000E+00  0.17579168511E+04  0.17579168511E+04  0.00000000000E+00 0. -1.
          1   -1    0    0  501    0 -0.00000000000E+00 -0.00000000000E+00 -0.80399729945E+03  0.80399729945E+03  0.00000000000E+00 0. -1.
         25    2    1    2    0    0 -0.71149670775E+02  0.50515140141E+02  0.31851325400E+03  0.35311616897E+03  0.12500512301E+03 0.  0.
          2    1    1    2  501    0 -0.85963343979E+02 -0.50961822239E+02 -0.77915531061E+03  0.78553790608E+03  0.00000000000E+00 0. -1.
          1    1    1    2  502    0  0.15711301475E+03  0.44668209870E+00  0.14145616083E+04  0.14232600755E+04  0.00000000000E+00 0. -1.
         22    1    3    3    0    0 -0.19354282668E+02 -0.11341562258E+02  0.23828123197E+03  0.23933483825E+03  0.00000000000E+00 0. -1.
         22    1    3    3    0    0 -0.51795388107E+02  0.61856702398E+02  0.80232022030E+02  0.11378133072E+03  0.00000000000E+00 0. -1.
</event>
<event>
 7    1  0.6508013E-006  0.4036245E+02  0.7818608E-02  0.1516799E+00
          2   -1    0    0  502    0  0.00000000000E+00  0.00000000000E+00  0.24833173523E+03  0.24833173523E+03  0.00000000000E+00 0. -1.
          1   -1    0    0  501    0 -0.00000000000E+00 -0.00000000000E+00 -0.47854875137E+03  0.47854875137E+03  0.00000000000E+00 0. -1.
         25    2    1    2    0    0  0.20988101450E+02 -0.73606724904E+02 -0.11938190633E+03  0.18905562680E+03  0.12502615771E+03 0.  0.
          2    1    1    2  501    0 -0.48217118984E+01  0.37094639071E+02 -0.32136847039E+03  0.32353818154E+03  0.00000000000E+00 0. -1.
          1    1    1    2  502    0 -0.16166389552E+02  0.36512085833E+02  0.21053336058E+03  0.21428667826E+03  0.00000000000E+00 0. -1.
         22    1    3    3    0    0 -0.93763524449E+01 -0.40721457713E+02 -0.13525629485E+03  0.14156418473E+03  0.00000000000E+00 0.  1.
         22    1    3    3    0    0  0.30364453895E+02 -0.32885267191E+02  0.15874388521E+02  0.47491442065E+02  0.00000000000E+00 0.  1.
</event>
<event>
 7    1  0.6508013E-006  0.6142096E+02  0.7818608E-02  0.1418328E+00
          2   -1    0    0  502    0  0.00000000000E+00  0.00000000000E+00  0.48139831059E+03  0.48139831059E+03  0.00000000000E+00 0. -1.
          1   -1    0    0  501    0 -0.00000000000E+00 -0.00000000000E+00 -0.19995260426E+03  0.19995260426E+03  0.00000000000E+00 0. -1.
         25    2    1    2    0    0 -0.39341288242E+02 -0.32453357345E+02  0.23840160322E+01  0.13502549441E+03  0.12500097298E+03 0.  0.
          2    1    1    2  501    0  0.63541931135E+02 -0.11215524023E+02 -0.12421284982E+03  0.13997212955E+03  0.00000000000E+00 0. -1.
          1    1    1    2  502    0 -0.24200642893E+02  0.43668881368E+02  0.40327454011E+03  0.40635329089E+03  0.00000000000E+00 0. -1.
         22    1    3    3    0    0  0.35378828489E+01  0.54428462261E+01  0.56138449478E+02  0.56512535776E+02  0.00000000000E+00 0. -1.
         22    1    3    3    0    0 -0.42879171091E+02 -0.37896203571E+02 -0.53754433446E+02  0.78512958635E+02  0.00000000000E+00 0. -1.
</event>
<event>
 7    1  0.6508013E-006  0.6786525E+02  0.7818608E-02  0.1444868E+00
          2   -1    0    0  502    0  0.00000000000E+00  0.00000000000E+00  0.99993997965E+03  0.99993997965E+03  0.00000000000E+00 0. -1.
          1   -1    0    0  501    0 -0.00000000000E+00 -0.00000000000E+00 -0.24373340136E+03  0.24373340136E+03  0.00000000000E+00 0. -1.
         25    2    1    2    0    0 -0.64942742773E+02 -0.12360957880E+02  0.34577957393E+03  0.37357651251E+03  0.12500217532E+03 0.  0.
          2    1    1    2  501    0  0.63434507008E+02 -0.24575670398E+02 -0.22425134104E+03  0.23434283478E+03  0.00000000000E+00 0. -1.
          1    1    1    2  502    0  0.15082357648E+01  0.36936628278E+02  0.63467834540E+03  0.63575403373E+03  0.00000000000E+00 0. -1.
         22    1    3    3    0    0 -0.26058554519E+02 -0.31122381372E+02  0.32148345611E+03  0.32403589837E+03  0.00000000000E+00 0. -1.
         22    1    3    3    0    0 -0.38884188254E+02  0.18761423492E+02  0.24296117825E+02  0.49540614137E+02  0.00000000000E+00 0. -1.
</event>
<event>
 7    1  0.6508013E-006  0.7905080E+02  0.7818608E-02  0.1447268E+00
          2   -1    0    0  502    0  0.00000000000E+00  0.00000000000E+00  0.14935363729E+04  0.14935363729E+04  0.00000000000E+00 0. -1.
          1   -1    0    0  501    0 -0.00000000000E+00 -0.00000000000E+00 -0.12425213833E+02  0.12425213833E+02  0.00000000000E+00 0. -1.
         25    2    1    2    0    0  0.93183283687E+01 -0.64771537714E+02  0.67719114907E+03  0.69173394084E+03  0.12500323669E+03 0.  0.
          2    1    1    2  501    0  0.11383046859E+02  0.88083969054E+02  0.43391781011E+03  0.44291424146E+03  0.00000000000E+00 0. -1.
          1    1    1    2  502    0 -0.20701375228E+02 -0.23312431341E+02  0.37000219988E+03  0.37131340442E+03  0.00000000000E+00 0. -1.
         22    1    3    3    0    0  0.57784142408E+02 -0.60279947479E+02  0.29961587969E+03  0.31103433017E+03  0.00000000000E+00 0. -1.
         22    1    3    3    0    0 -0.48465814040E+02 -0.44915902348E+01  0.37757526938E+03  0.38069961067E+03  0.00000000000E+00 0. -1.
</event>
<event>
 7    1  0.6508013E-006  0.8206152E+02  0.7818608E-02  0.1461512E+00
          2   -1    0    0  502    0  0.00000000000E+00  0.00000000000E+00  0.31425808559E+04  0.31425808559E+04  0.00000000000E+00 0. -1.
          1   -1    0    0  501    0 -0.00000000000E+00 -0.00000000000E+00 -0.35532275995E+02  0.35532275995E+02  0.00000000000E+00 0. -1.
         25    2    1    2    0    0  0.66323512539E+02 -0.24249436972E+02  0.12705671113E+04  0.12786526231E+04  0.12499961107E+03 0.  0.
          2    1    1    2  501    0  0.20586231231E+01 -0.26980518769E+02 -0.24509592836E+02  0.36508991539E+02  0.00000000000E+00 0. -1.
          1    1    1    2  502    0 -0.68382135662E+02  0.51229955741E+02  0.18609910614E+04  0.18629515173E+04  0.00000000000E+00 0. -1.
         22    1    3    3    0    0  0.60826769677E+02 -0.10746245833E+01  0.12307705550E+04  0.12322731880E+04  0.00000000000E+00 0. -1.
         22    1    3    3    0    0  0.54967428617E+01 -0.23174812388E+02  0.39796556320E+02  0.46379435165E+02  0.00000000000E+00 0. -1.
</event>
<event>
 7    1  0.6508013E-006  0.5649235E+02  0.7818608E-02  0.1460088E+00
          2   -1    0    0  502    0  0.00000000000E+00  0.00000000000E+00  0.43956511872E+03  0.43956511872E+03  0.00000000000E+00 0. -1.
          1   -1    0    0  501    0 -0.00000000000E+00 -0.00000000000E+00 -0.46115817111E+03  0.46115817111E+03  0.00000000000E+00 0. -1.
         25    2    1    2    0    0 -0.48778977966E+01  0.16531111458E+02 -0.29059130725E+03  0.31680868476E+03  0.12500945306E+03 0.  0.
          2    1    1    2  501    0 -0.18148699288E+02  0.35324963862E+02 -0.15302490160E+03  0.15809443022E+03  0.00000000000E+00 0. -1.
          1    1    1    2  502    0  0.23026597085E+02 -0.51856075320E+02  0.42202315646E+03  0.42582017485E+03  0.00000000000E+00 0. -1.
         22    1    3    3    0    0 -0.33586209830E+02  0.47757611728E+02 -0.25450996967E+03  0.26112094445E+03  0.00000000000E+00 0. -1.
         22    1    3    3    0    0  0.28708312033E+02 -0.31226500270E+02 -0.36081337577E+02  0.55687740305E+02  0.00000000000E+00 0. -1.
</event>
<event>
 7    1  0.6508013E-006  0.2045310E+03  0.7818608E-02  0.1325038E+00
          2   -1    0    0  502    0  0.00000000000E+00  0.00000000000E+00  0.37029055352E+03  0.37029055352E+03  0.00000000000E+00 0. -1.
          1   -1    0    0  501    0 -0.00000000000E+00 -0.00000000000E+00 -0.85937273909E+03  0.85937273909E+03  0.00000000000E+00 0. -1.
         25    2    1    2    0    0 -0.12317351810E+02 -0.20966541243E+03 -0.24770964584E+03  0.34799025787E+03  0.12500339437E+03 0.  0.
          2    1    1    2  501    0 -0.30808216640E+02  0.10097275232E+02 -0.52842249260E+03  0.52941612354E+03  0.00000000000E+00 0. -1.
          1    1    1    2  502    0  0.43125568450E+02  0.19956813720E+03  0.28704995287E+03  0.35225691119E+03  0.00000000000E+00 0. -1.
         22    1    3    3    0    0  0.56224501307E+02 -0.10867649527E+03 -0.12432937268E+03  0.17444072942E+03  0.00000000000E+00 0.  1.
         22    1    3    3    0    0 -0.68541853117E+02 -0.10098891716E+03 -0.12338027316E+03  0.17354952845E+03  0.00000000000E+00 0.  1.
</event>
<event>
 7    1  0.6508013E-006  0.1139028E+03  0.7818608E-02  0.1347944E+00
          2   -1    0    0  502    0  0.00000000000E+00  0.00000000000E+00  0.22023984340E+04  0.22023984340E+04  0.00000000000E+00 0. -1.
          1   -1    0    0  501    0 -0.00000000000E+00 -0.00000000000E+00 -0.15719297302E+03  0.15719297302E+03  0.00000000000E+00 0. -1.
         25    2    1    2    0    0  0.15801458577E+02 -0.67826609524E+02  0.30826995800E+03  0.33986322669E+03  0.12500604305E+03 0.  0.
          2    1    1    2  501    0 -0.30455306435E+02  0.11320653078E+03 -0.11673772732E+03  0.16544165522E+03  0.00000000000E+00 0. -1.
          1    1    1    2  502    0  0.14653847857E+02 -0.45379921258E+02  0.18536732303E+04  0.18542865252E+04  0.00000000000E+00 0. -1.
         22    1    3    3    0    0  0.13002568081E+02  0.11719629088E+02  0.22121151007E+03  0.22190301636E+03  0.00000000000E+00 0.  1.
         22    1    3    3    0    0  0.27988904965E+01 -0.79546238612E+02  0.87058447932E+02  0.11796021033E+03  0.00000000000E+00 0.  1.
</event>
<event>
 7    1  0.6508013E-006  0.2471208E+02  0.7818608E-02  0.1675701E+00
          2   -1    0    0  502    0  0.00000000000E+00  0.00000000000E+00  0.89969716445E+03  0.89969716445E+03  0.00000000000E+00 0. -1.
          1   -1    0    0  501    0 -0.00000000000E+00 -0.00000000000E+00 -0.78507614124E+03  0.78507614124E+03  0.00000000000E+00 0. -1.
         25    2    1    2    0    0 -0.30439335354E+02  0.19976842122E+02 -0.59611918134E+02  0.14319221564E+03  0.12499920991E+03 0.  0.
          2    1    1    2  501    0  0.24557127465E+02  0.25895228747E+01 -0.68329253131E+03  0.68373857686E+03  0.00000000000E+00 0. -1.
          1    1    1    2  502    0  0.58822078891E+01 -0.22566364997E+02  0.85752547265E+03  0.85784251320E+03  0.00000000000E+00 0. -1.
         22    1    3    3    0    0 -0.33294258263E+02 -0.33101578334E+02 -0.74438994334E+02  0.88007874641E+02  0.00000000000E+00 0. -1.
         22    1    3    3    0    0  0.28549229092E+01  0.53078420456E+02  0.14827076199E+02  0.55184341000E+02  0.00000000000E+00 0. -1.
</event>
<event>
 7    1  0.6508013E-006  0.4680562E+02  0.7818608E-02  0.1493140E+00
          2   -1    0    0  502    0  0.00000000000E+00  0.00000000000E+00  0.45556160703E+03  0.45556160703E+03  0.00000000000E+00 0. -1.
          1   -1    0    0  501    0 -0.00000000000E+00 -0.00000000000E+00 -0.12462388047E+04  0.12462388047E+04  0.00000000000E+00 0. -1.
         25    2    1    2    0    0 -0.48680607975E+02 -0.31335320702E+02 -0.49316592995E+02  0.14631901185E+03  0.12500169185E+03 0.  0.
          2    1    1    2  501    0  0.22911307115E+01  0.37840824841E+02 -0.11467590839E+04  0.11473855384E+04  0.00000000000E+00 0. -1.
          1    1    1    2  502    0  0.46389477263E+02 -0.65055041397E+01  0.40539847922E+03  0.40809586146E+03  0.00000000000E+00 0. -1.
         22    1    3    3    0    0 -0.80580845269E+02  0.10928735632E+02 -0.13600839467E+02  0.82448121392E+02  0.00000000000E+00 0.  1.
         22    1    3    3    0    0  0.31900237294E+02 -0.42264056334E+02 -0.35715753529E+02  0.63870890453E+02  0.00000000000E+00 0.  1.
</event>
<event>
 7    1  0.6508013E-006  0.6315411E+02  0.7818608E-02  0.1409999E+00
          2   -1    0    0  502    0  0.00000000000E+00  0.00000000000E+00  0.40580105326E+04  0.40580105326E+04  0.00000000000E+00 0. -1.
          1   -1    0    0  501    0 -0.00000000000E+00 -0.00000000000E+00 -0.21823080006E+04  0.21823080006E+04  0.00000000000E+00 0. -1.
         25    2    1    2    0    0  0.53600647075E+01  0.21211514890E+02  0.42486035076E+03  0.44340729467E+03  0.12500021065E+03 0.  0.
          2    1    1    2  501    0  0.36671976536E+02 -0.51479718934E+02 -0.21723897739E+04  0.21733090726E+04  0.00000000000E+00 0. -1.
          1    1    1    2  502    0 -0.42032041244E+02  0.30268204044E+02  0.36232319551E+04  0.36236021659E+04  0.00000000000E+00 0. -1.
         22    1    3    3    0    0  0.49200557326E+02  0.47253142626E+02  0.16420830642E+03  0.17781429140E+03  0.00000000000E+00 0. -1.
         22    1    3    3    0    0 -0.43840492618E+02 -0.26041627735E+02  0.26065204434E+03  0.26559300327E+03  0.00000000000E+00 0. -1.
</event>
<event>
 7    1  0.6508013E-006  0.9561500E+02  0.7818608E-02  0.1460927E+00
          2   -1    0    0  502    0  0.00000000000E+00  0.00000000000E+00  0.26267381993E+04  0.26267381993E+04  0.00000000000E+00 0. -1.
          1   -1    0    0  501    0 -0.00000000000E+00 -0.00000000000E+00 -0.17810672907E+03  0.17810672907E+03  0.00000000000E+00 0. -1.
         25    2    1    2    0    0  0.10353989226E+03 -0.34952139616E+02  0.10351058243E+04  0.10483367127E+04  0.12499453652E+03 0.  0.
          2    1    1    2  501    0 -0.11674902803E+02  0.20189415388E+02 -0.16932584724E+03  0.17092442304E+03  0.00000000000E+00 0. -1.
          1    1    1    2  502    0 -0.91864989454E+02  0.14762724228E+02  0.15828514931E+04  0.15855837926E+04  0.00000000000E+00 0. -1.
         22    1    3    3    0    0  0.95637358307E+02  0.90398081419E+01  0.38896985787E+03  0.40065667692E+03  0.00000000000E+00 0.  1.
         22    1    3    3    0    0  0.79025339497E+01 -0.43991947758E+02  0.64613596647E+03  0.64768003573E+03  0.00000000000E+00 0.  1.
</event>
<event>
 7    1  0.6508013E-006  0.7764915E+02  0.7818608E-02  0.1455500E+00
          2   -1    0    0  502    0  0.00000000000E+00  0.00000000000E+00  0.35921456265E+03  0.35921456265E+03  0.00000000000E+00 0. -1.
          1   -1    0    0  501    0 -0.00000000000E+00 -0.00000000000E+00 -0.14119325849E+03  0.14119325849E+03  0.00000000000E+00 0. -1.
         25    2    1    2    0    0  0.72476595041E+02 -0.10940200444E+02  0.20624617321E+03  0.25206175911E+03  0.12500040651E+03 0.  0.
          2    1    1    2  501    0  0.75842169227E+01  0.28897229035E+02 -0.10300776109E+03  0.10725282764E+03  0.00000000000E+00 0. -1.
          1    1    1    2  502    0 -0.80060811964E+02 -0.17957028591E+02  0.11478289203E+03  0.14109323439E+03  0.00000000000E+00 0. -1.
         22    1    3    3    0    0  0.61008678441E+02 -0.53893570490E+02  0.65569341719E+02  0.10452709868E+03  0.00000000000E+00 0.  1.
         22    1    3    3    0    0  0.11467916600E+02  0.42953370046E+02  0.14067683149E+03  0.14753466043E+03  0.00000000000E+00 0.  1.
</event>
<event>
 7    1  0.6508013E-006  0.8696544E+02  0.7818608E-02  0.1404115E+00
          2   -1    0    0  502    0  0.00000000000E+00  0.00000000000E+00  0.47674639098E+03  0.47674639098E+03  0.00000000000E+00 0. -1.
          1   -1    0    0  501    0 -0.00000000000E+00 -0.00000000000E+00 -0.32465364426E+03  0.32465364426E+03  0.00000000000E+00 0. -1.
         25    2    1    2    0    0 -0.60281511010E+02  0.22312510276E+02 -0.26395736225E+02  0.14301862656E+03  0.12500353583E+03 0.  0.
          2    1    1    2  501    0 -0.28073686715E+02 -0.27629494458E+02 -0.23359804142E+03  0.23689568550E+03  0.00000000000E+00 0. -1.
          1    1    1    2  502    0  0.88355197725E+02  0.53169841817E+01  0.41208652437E+03  0.42148572319E+03  0.00000000000E+00 0. -1.
         22    1    3    3    0    0  0.95889646846E+01 -0.23204356790E+02  0.32397516398E+02  0.40987674812E+02  0.00000000000E+00 0.  1.
         22    1    3    3    0    0 -0.69870475694E+02  0.45516867066E+02 -0.58793252623E+02  0.10203095175E+03  0.00000000000E+00 0.  1.
</event>
<event>
 7    1  0.6508013E-006  0.1410790E+03  0.7818608E-02  0.1371331E+00
          2   -1    0    0  502    0  0.00000000000E+00  0.00000000000E+00  0.25853358291E+04  0.25853358291E+04  0.00000000000E+00 0. -1.
          1   -1    0    0  501    0 -0.00000000000E+00 -0.00000000000E+00 -0.70349049221E+02  0.70349049221E+02  0.00000000000E+00 0. -1.
         25    2    1    2    0    0 -0.53487008658E+01 -0.11868094468E+03  0.11903404160E+04  0.12027673823E+04  0.12500117886E+03 0.  0.
          2    1    1    2  501    0  0.29003279911E+02  0.13967612242E+03  0.15618956455E+02  0.14350805281E+03  0.00000000000E+00 0. -1.
          1    1    1    2  502    0 -0.23654579046E+02 -0.20995177744E+02  0.13090274074E+04  0.13094094432E+04  0.00000000000E+00 0. -1.
         22    1    3    3    0    0 -0.42673755308E+02 -0.57140352844E+02  0.25867652739E+03  0.26832744015E+03  0.00000000000E+00 0. -1.
         22    1    3    3    0    0  0.37325054442E+02 -0.61540591836E+02  0.93166388864E+03  0.93443994218E+03  0.00000000000E+00 0. -1.
</event>
<event>
 7    1  0.6508013E-006  0.1343508E+03  0.7818608E-02  0.1400044E+00
          2   -1    0    0  502    0  0.00000000000E+00  0.00000000000E+00  0.31903991854E+03  0.31903991854E+03  0.00000000000E+00 0. -1.
          1   -1    0    0  501    0 -0.00000000000E+00 -0.00000000000E+00 -0.57855610219E+03  0.57855610219E+03  0.00000000000E+00 0. -1.
         25    2    1    2    0    0  0.65877143347E+02 -0.10255692854E+03  0.46693333991E+01  0.17464030780E+03  0.12497884952E+03 0.  0.
          2    1    1    2  501    0  0.26328187488E+02  0.27438020872E+00 -0.47250322611E+03  0.47323624906E+03  0.00000000000E+00 0. -1.
          1    1    1    2  502    0 -0.92205330835E+02  0.10228254833E+03  0.20831770905E+03  0.24971946386E+03  0.00000000000E+00 0. -1.
         22    1    3    3    0    0  0.97276599194E+01  0.27404665522E+02 -0.13216502834E+02  0.31942432704E+02  0.00000000000E+00 0. -1.
         22    1    3    3    0    0  0.56149483428E+02 -0.12996159406E+03  0.17885836233E+02  0.14269787510E+03  0.00000000000E+00 0. -1.
</event>
<event>
 7    1  0.6508013E-006  0.3138832E+02  0.7818608E-02  0.1588642E+00
          2   -1    0    0  502    0  0.00000000000E+00  0.00000000000E+00  0.14395352493E+04  0.14395352493E+04  0.00000000000E+00 0. -1.
          1   -1    0    0  501    0 -0.00000000000E+00 -0.00000000000E+00 -0.30391930232E+03  0.30391930232E+03  0.00000000000E+00 0. -1.
         25    2    1    2    0    0 -0.41293056132E+01  0.77316788286E+01  0.46622603565E+03  0.48277160257E+03  0.12499949560E+03 0.  0.
          2    1    1    2  501    0  0.30628972818E+02  0.70934324978E+01 -0.29457094160E+03  0.29624397107E+03  0.00000000000E+00 0. -1.
          1    1    1    2  502    0 -0.26499667205E+02 -0.14825111326E+02  0.96396085289E+03  0.96443897795E+03  0.00000000000E+00 0. -1.
         22    1    3    3    0    0 -0.53530846780E+02 -0.10747429353E+02  0.36058566627E+03  0.36469587537E+03  0.00000000000E+00 0. -1.
         22    1    3    3    0    0  0.49401541167E+02  0.18479108182E+02  0.10564036939E+03  0.11807572720E+03  0.00000000000E+00 0. -1.
</event>
<event>
 7    1  0.6508013E-006  0.8627554E+02  0.7818608E-02  0.1491286E+00
          2   -1    0    0  502    0  0.00000000000E+00  0.00000000000E+00  0.77085600697E+03  0.77085600697E+03  0.00000000000E+00 0. -1.
          1   -1    0    0  501    0 -0.00000000000E+00 -0.00000000000E+00 -0.66919862030E+02  0.66919862030E+02  0.00000000000E+00 0. -1.
         25    2    1    2    0    0  0.27015885898E+02  0.97332893963E+02  0.77149495988E+02  0.17827304512E+03  0.12500273416E+03 0.  0.
          2    1    1    2  501    0 -0.16695970390E+02 -0.12460849610E+02 -0.54315709594E+01  0.21529750657E+02  0.00000000000E+00 0. -1.
          1    1    1    2  502    0 -0.10319915508E+02 -0.84872044352E+02  0.63221821992E+03  0.63797307323E+03  0.00000000000E+00 0. -1.
         22    1    3    3    0    0  0.19922839766E+02  0.23643509848E+02  0.96850980528E+02  0.10166635398E+03  0.00000000000E+00 0.  1.
         22    1    3    3    0    0  0.70930461314E+01  0.73689384115E+02 -0.19701484540E+02  0.76606691142E+02  0.00000000000E+00 0.  1.
</event>
