<event>
 7    1  0.7118985E-006  0.1229504E+03  0.7818608E-02  0.1258131E+00
          2   -1    0    0  502    0  0.00000000000E+00  0.00000000000E+00  0.13132917280E+04  0.13132917280E+04  0.00000000000E+00 0. -1.
          1   -1    0    0  501    0 -0.00000000000E+00 -0.00000000000E+00 -0.88740197634E+02  0.88740197634E+02  0.00000000000E+00 0. -1.
         25    2    1    2    0    0  0.96768727769E+02  0.10121286891E+03  0.35163443763E+03  0.39859434585E+03  0.12498977281E+03 0.  0.
          2    1    1    2  501    0  0.29167306457E+02 -0.96491171720E+02 -0.19070541607E+02  0.10259124496E+03  0.00000000000E+00 0. -1.
          1    1    1    2  502    0 -0.12593603423E+03 -0.47216971940E+01  0.89198763436E+03  0.90084633483E+03  0.00000000000E+00 0. -1.
         22    1    3    3    0    0  0.12045499454E+03  0.87632830420E+02  0.23066480209E+03  0.27458180858E+03  0.00000000000E+00 0. -1.
         22    1    3    3    0    0 -0.23686266768E+02  0.13580038494E+02  0.12096963554E+03  0.12401253727E+03  0.00000000000E+00 0. -1.
</event>
<event>
 7    1  0.7118985E-006  0.5805265E+02  0.7818608E-02  0.1428913E+00
          2   -1    0    0  502    0  0.00000000000E+00  0.00000000000E+00  0.32295160317E+04  0.32295160317E+04  0.00000000000E+00 0. -1.
          1   -1    0    0  501    0 -0.00000000000E+00 -0.00000000000E+00 -0.24612499320E+03  0.24612499320E+03  0.00000000000E+00 0. -1.
         25    2    1    2    0    0  0.27153871485E+02  0.18418960039E+02 -0.35896400574E+02  0.13412662620E+03  0.12499923783E+03 0.  0.
          2    1    1    2  501    0 -0.28159799554E+02  0.39750590478E+02 -0.15715869574E+03  0.16453552626E+03  0.00000000000E+00 0. -1.
          1    1    1    2  502    0  0.10059280685E+01 -0.58169550516E+02  0.31764461349E+04  0.31769788725E+04  0.00000000000E+00 0. -1.
         22    1    3    3    0    0  0.68219768088E+01  0.19549016064E+02  0.45623456055E+02  0.50101927498E+02  0.00000000000E+00 0.  1.
         22    1    3    3    0    0  0.20331894676E+02 -0.11300560252E+01 -0.81519856628E+02  0.84024698705E+02  0.00000000000E+00 0.  1.
</event>
<event>
 7    1  0.7118985E-006  0.1128958E+03  0.7818608E-02  0.1426626E+00
          2   -1    0    0  502    0  0.00000000000E+00  0.00000000000E+00  0.43154852283E+02  0.43154852283E+02  0.00000000000E+00 0. -1.
          1   -1    0    0  501    0 -0.00000000000E+00 -0.00000000000E+00 -0.11629247705E+04  0.11629247705E+04  0.00000000000E+00 0. -1.
         25    2    1    2    0    0  0.20896081766E+02  0.94396274693E+02 -0.65410732355E+03  0.67292522227E+03  0.12499864452E+03 0.  0.
          2    1    1    2  501    0 -0.14532569681E+02  0.20940304824E+02 -0.39894669991E+03  0.39976012973E+03  0.00000000000E+00 0. -1.
          1    1    1    2  502    0 -0.63635120851E+01 -0.11533657952E+03 -0.66715894709E+02  0.13339427074E+03  0.00000000000E+00 0. -1.
         22    1    3    3    0    0 -0.43855045264E+02  0.15568444434E+02 -0.11166622458E+03  0.12097515104E+03  0.00000000000E+00 0.  1.
         22    1    3    3    0    0  0.64751127030E+02  0.78827830259E+02 -0.54244109897E+03  0.55195007123E+03  0.00000000000E+00 0.  1.
</event>
<event>
 7    1  0.7118985E-006  0.5202705E+02  0.7818608E-02  0.1541703E+00
          2   -1    0    0  502    0  0.00000000000E+00  0.00000000000E+00  0.28134124361E+04  0.28134124361E+04  0.00000000000E+00 0. -1.
          1   -1    0    0  501    0 -0.00000000000E+00 -0.00000000000E+00 -0.46275280795E+03  0.46275280795E+03  0.00000000000E+00 0. -1.
         25    2    1    2    0    0 -0.40071743946E+02 -0.65243879112E+02 -0.41232444011E+02  0.15227508342E+03  0.12500031267E+03 0.  0.
          2    1    1    2  501    0  0.12234820662E+02  0.21363762961E+02 -0.36533994094E+03  0.36616850445E+03  0.00000000000E+00 0. -1.
          1    1    1    2  502    0  0.27836923283E+02  0.43880116151E+02  0.27572320131E+04  0.27577216561E+04  0.00000000000E+00 0. -1.
         22    1    3    3    0    0  0.44934366794E+02 -0.15636196575E+02 -0.71100567211E+01  0.48105518073E+02  0.00000000000E+00 0.  1.
         22    1    3    3    0    0 -0.85006110740E+02 -0.49607682537E+02 -0.34122387290E+02  0.10416956535E+03  0.00000000000E+00 0.  1.
</event>
<event>
 7    1  0.7118985E-006  0.4816256E+02  0.7818608E-02  0.1516652E+00
          2   -1    0    0  502    0  0.00000000000E+00  0.00000000000E+00  0.17181752209E+04  0.17181752209E+04  0.00000000000E+00 0. -1.
          1   -1    0    0  501    0 -0.00000000000E+00 -0.00000000000E+00 -0.64148750582E+02  0.64148750582E+02  0.00000000000E+00 0. -1.
         25    2    1    2    0    0 -0.14378079177E+02  0.33564677525E+02  0.81437112550E+03  0.82471710859E+03  0.12499864962E+03 0.  0.
          2    1    1    2  501    0 -0.14326975392E+02 -0.46241001094E+02 -0.48717730797E+02  0.68679761940E+02  0.00000000000E+00 0. -1.
          1    1    1    2  502    0  0.28705054569E+02  0.12676323569E+02  0.88837307562E+03  0.88892710096E+03  0.00000000000E+00 0. -1.
         22    1    3    3    0    0 -0.46762151001E+02  0.61417324489E+02  0.35134813779E+03  0.35972809238E+03  0.00000000000E+00 0. -1.
         22    1    3    3    0    0  0.32384071824E+02 -0.27852646964E+02  0.46302298771E+03  0.46498901621E+03  0.00000000000E+00 0. -1.
</event>
<event>
 7    1  0.7118985E-006  0.7930081E+02  0.7818608E-02  0.1365988E+00
          2   -1    0    0  502    0  0.00000000000E+00  0.00000000000E+00  0.24622422191E+04  0.24622422191E+04  0.00000000000E+00 0. -1.
          1   -1    0    0  501    0 -0.00000000000E+00 -0.00000000000E+00 -0.17600471682E+04  0.17600471682E+04  0.00000000000E+00 0. -1.
         25    2    1    2    0    0 -0.57343477977E+01 -0.36340447938E+02  0.14274982110E+04  0.14334328747E+04  0.12500061192E+03 0.  0.
          2    1    1    2  501    0  0.79257482976E+02 -0.26209022540E+01 -0.17545051679E+04  0.17562963878E+04  0.00000000000E+00 0. -1.
          1    1    1    2  502    0 -0.73523135178E+02  0.38961350192E+02  0.10292020078E+04  0.10325601247E+04  0.00000000000E+00 0. -1.
         22    1    3    3    0    0 -0.58213150667E+02 -0.17006940645E+02  0.41686650065E+03  0.42125489470E+03  0.00000000000E+00 0. -1.
         22    1    3    3    0    0  0.52478802869E+02 -0.19333507293E+02  0.10106317104E+04  0.10121779800E+04  0.00000000000E+00 0. -1.
</event>
<event>
 7    1  0.7118985E-006  0.7606585E+02  0.7818608E-02  0.1509217E+00
          2   -1    0    0  502    0  0.00000000000E+00  0.00000000000E+00  0.30845384609E+03  0.30845384609E+03  0.00000000000E+00 0. -1.
          1   -1    0    0  501    0 -0.00000000000E+00 -0.00000000000E+00 -0.47017490000E+03  0.47017490000E+03  0.00000000000E+00 0. -1.
         25    2    1    2    0    0 -0.62390812060E+02 -0.68599949441E+02  0.19330072717E+03  0.24816801129E+03  0.12499449672E+03 0.  0.
          2    1    1    2  501    0  0.42276013468E+02  0.62957130117E+02 -0.43819261875E+03  0.44470623188E+03  0.00000000000E+00 0. -1.
          1    1    1    2  502    0  0.20114798592E+02  0.56428193245E+01  0.83170837670E+02  0.85754502920E+02  0.00000000000E+00 0. -1.
         22    1    3    3    0    0 -0.82551615085E+02 -0.11982558923E+02  0.15746479465E+03  0.17819515264E+03  0.00000000000E+00 0.  1.
         22    1    3    3    0    0  0.20160803025E+02 -0.56617390518E+02  0.35835932517E+02  0.69972858645E+02  0.00000000000E+00 0.  1.
</event>
<event>
 7    1  0.7118985E-006  0.5179469E+02  0.7818608E-02  0.1477810E+00
          2   -1    0    0  502    0  0.00000000000E+00  0.00000000000E+00  0.91675514122E+03  0.91675514122E+03  0.00000000000E+00 0. -1.
          1   -1    0    0  501    0 -0.00000000000E+00 -0.00000000000E+00 -0.23706534291E+04  0.23706534291E+04  0.00000000000E+00 0. -1.
         25    2    1    2    0    0 -0.44988654657E+01 -0.25224868361E+02 -0.99774831440E+02  0.16198299753E+03  0.12500776266E+03 0.  0.
          2    1    1    2  501    0  0.33767357879E+02 -0.17743658701E+02 -0.22388489258E+04  0.22391738620E+04  0.00000000000E+00 0. -1.
          1    1    1    2  502    0 -0.29268492413E+02  0.42968527061E+02  0.88472546928E+03  0.88625171083E+03  0.00000000000E+00 0. -1.
         22    1    3    3    0    0 -0.54598703021E+02 -0.24386133200E+02 -0.12113661618E+02  0.61011823951E+02  0.00000000000E+00 0.  1.
         22    1    3    3    0    0  0.50099837555E+02 -0.83873516079E+00 -0.87661169822E+02  0.10097117358E+03  0.00000000000E+00 0.  1.
</event>
<event>
 7    1  0.7118985E-006  0.8561134E+02  0.7818608E-02  0.1320276E+00
          2   -1    0    0  502    0  0.00000000000E+00  0.00000000000E+00  0.98366807126E+03  0.98366807126E+03  0.00000000000E+00 0. -1.
          1   -1    0    0  501    0 -0.00000000000E+00 -0.00000000000E+00 -0.50317609505E+02  0.50317609505E+02  0.00000000000E+00 0. -1.
         25    2    1    2    0    0  0.13846833740E+02  0.47095156346E+01  0.89241019968E+02  0.15429857964E+03  0.12502070905E+03 0.  0.
          2    1    1    2  501    0  0.28003348571E+02 -0.80901876575E+02  0.10497648345E+03  0.13545982150E+03  0.00000000000E+00 0. -1.
          1    1    1    2  502    0 -0.41850182311E+02  0.76192360941E+02  0.73913295834E+03  0.74422727962E+03  0.00000000000E+00 0. -1.
         22    1    3    3    0    0  0.17279046619E+02  0.61733829393E+02  0.26282603387E+02  0.69284965067E+02  0.00000000000E+00 0. -1.
         22    1    3    3    0    0 -0.34322128786E+01 -0.57024313758E+02  0.62958416581E+02  0.85013614576E+02  0.00000000000E+00 0. -1.
</event>
<event>
 7    1  0.7118985E-006  0.7777535E+02  0.7818608E-02  0.1466257E+00
          2   -1    0    0  502    0  0.00000000000E+00  0.00000000000E+00  0.79440596524E+03  0.79440596524E+03  0.00000000000E+00 0. -1.
          1   -1    0    0  501    0 -0.00000000000E+00 -0.00000000000E+00 -0.91254099462E+03  0.91254099462E+03  0.00000000000E+00 0. -1.
         25    2    1    2    0    0 -0.75614946366E+02  0.23567049772E+02  0.21499319446E+03  0.26099898247E+03  0.12500147694E+03 0.  0.
          2    1    1    2  501    0  0.77699854378E+02  0.39420813450E+01 -0.88749331689E+03  0.89089684863E+03  0.00000000000E+00 0. -1.
          1    1    1    2  502    0 -0.20849080114E+01 -0.27509131117E+02  0.55436509305E+03  0.55505112875E+03  0.00000000000E+00 0. -1.
         22    1    3    3    0    0 -0.25689166711E+02 -0.51398371833E+02  0.73944901609E+02  0.93646005720E+02  0.00000000000E+00 0. -1.
         22    1    3    3    0    0 -0.49925779655E+02  0.74965421605E+02  0.14104829285E+03  0.16735297675E+03  0.00000000000E+00 0. -1.
</event>
<event>
 7    1  0.7118985E-006  0.1679541E+03  0.7818608E-02  0.1190647E+00
          2   -1    0    0  502    0  0.00000000000E+00  0.00000000000E+00  0.18412179548E+04  0.18412179548E+04  0.00000000000E+00 0. -1.
          1   -1    0    0  501    0 -0.00000000000E+00 -0.00000000000E+00 -0.77365794552E+02  0.77365794552E+02  0.00000000000E+00 0. -1.
         25    2    1    2    0    0 -0.85876056767E+02 -0.20661543155E+03  0.59449814477E+03  0.64739348438E+03  0.12500258318E+03 0.  0.
          2    1    1    2  501    0 -0.54414608054E+02  0.15591119026E+03  0.10337011341E+03  0.19481947840E+03  0.00000000000E+00 0. -1.
          1    1    1    2  502    0  0.14029066482E+03  0.50704241292E+02  0.10659839021E+04  0.10763707866E+04  0.00000000000E+00 0. -1.
         22    1    3    3    0    0 -0.15674339986E+02  0.11700579538E+02  0.16591303062E+02  0.25648778388E+02  0.00000000000E+00 0.  1.
         22    1    3    3    0    0 -0.70201716782E+02 -0.21831601109E+03  0.57790684171E+03  0.62174470599E+03  0.00000000000E+00 0.  1.
</event>
<event>
 7    1  0.7118985E-006  0.4493907E+02  0.7818608E-02  0.1505087E+00
          2   -1    0    0  502    0  0.00000000000E+00  0.00000000000E+00  0.32094422718E+04  0.32094422718E+04  0.00000000000E+00 0. -1.
          1   -1    0    0  501    0 -0.00000000000E+00 -0.00000000000E+00 -0.10370972616E+03  0.10370972616E+03  0.00000000000E+00 0. -1.
         25    2    1    2    0    0 -0.74866219912E+02  0.25879493277E+02  0.86038437021E+03  0.87301800184E+03  0.12499787196E+03 0.  0.
          2    1    1    2  501    0  0.38650150562E+02 -0.22543878001E+02 -0.92104838938E+02  0.10239805628E+03  0.00000000000E+00 0. -1.
          1    1    1    2  502    0  0.36216069349E+02 -0.33356152759E+01  0.23374530144E+04  0.23377359399E+04  0.00000000000E+00 0. -1.
         22    1    3    3    0    0  0.28562749308E+02 -0.19034570807E+02  0.16281289387E+03  0.16639165828E+03  0.00000000000E+00 0. -1.
         22    1    3    3    0    0 -0.10342896922E+03  0.44914064084E+02  0.69757147634E+03  0.70662634357E+03  0.00000000000E+00 0. -1.
</event>
<event>
 7    1  0.7118985E-006  0.1044752E+03  0.7818608E-02  0.1415685E+00
          2   -1    0    0  502    0  0.00000000000E+00  0.00000000000E+00  0.61296024594E+03  0.61296024594E+03  0.00000000000E+00 0. -1.
          1   -1    0    0  501    0 -0.00000000000E+00 -0.00000000000E+00 -0.40334353199E+03  0.40334353199E+03  0.00000000000E+00 0. -1.
         25    2    1    2    0    0  0.12790034033E+03 -0.34281343525E+02  0.68223911724E+02  0.19448961811E+03  0.12505199660E+03 0.  0.
          2    1    1    2  501    0 -0.98172156772E+02  0.30585215887E+02 -0.33195672935E+03  0.34751762251E+03  0.00000000000E+00 0. -1.
          1    1    1    2  502    0 -0.29728183558E+02  0.36961276381E+01  0.47334953158E+03  0.47429653731E+03  0.00000000000E+00 0. -1.
         22    1    3    3    0    0  0.12699873214E+02 -0.53386430047E+02 -0.73911581218E+01  0.55371715805E+02  0.00000000000E+00 0. -1.
         22    1    3    3    0    0  0.11520046712E+03  0.19105086522E+02  0.75615069846E+02  0.13911790231E+03  0.00000000000E+00 0. -1.
</event>
<event>
 7    1  0.7118985E-006  0.6831495E+02  0.7818608E-02  0.1490567E+00
          2   -1    0    0  502    0  0.00000000000E+00  0.00000000000E+00  0.82623236326E+03  0.82623236326E+03  0.00000000000E+00 0. -1.
          1   -1    0    0  501    0 -0.00000000000E+00 -0.00000000000E+00 -0.10140135200E+03  0.10140135200E+03  0.00000000000E+00 0. -1.
         25    2    1    2    0    0  0.52191137721E+02 -0.92397345939E+01  0.35400742790E+02  0.14031158224E+03  0.12499935987E+03 0.  0.
          2    1    1    2  501    0  0.15622737353E+02  0.21333977436E+02 -0.43638131078E+02  0.51024454917E+02  0.00000000000E+00 0. -1.
          1    1    1    2  502    0 -0.67813875074E+02 -0.12094242842E+02  0.73306839955E+03  0.73629767810E+03  0.00000000000E+00 0. -1.
         22    1    3    3    0    0 -0.28485239994E+02 -0.72789993563E+01 -0.25731837208E+02  0.39070707381E+02  0.00000000000E+00 0. -1.
         22    1    3    3    0    0  0.80676377716E+02 -0.19607352375E+01  0.61132579998E+02  0.10124087485E+03  0.00000000000E+00 0. -1.
</event>
<event>
 7    1  0.7118985E-006  0.5677404E+02  0.7818608E-02  0.1518646E+00
          2   -1    0    0  502    0  0.00000000000E+00  0.00000000000E+00  0.12091544693E+03  0.12091544693E+03  0.00000000000E+00 0. -1.
          1   -1    0    0  501    0 -0.00000000000E+00 -0.00000000000E+00 -0.63438774700E+03  0.63438774700E+03  0.00000000000E+00 0. -1.
         25    2    1    2    0    0  0.42783163369E+02  0.27139539375E+02 -0.10913246528E+03  0.17349914389E+03  0.12500041714E+03 0.  0.
          2    1    1    2  501    0  0.14506925481E+02 -0.21896553377E+02 -0.48335292826E+03  0.48406607317E+03  0.00000000000E+00 0. -1.
          1    1    1    2  502    0 -0.57290088850E+02 -0.52429859981E+01  0.79013093472E+02  0.97737976870E+02  0.00000000000E+00 0. -1.
         22    1    3    3    0    0  0.29427400530E+02  0.61263594556E+02 -0.11130325995E+02  0.68870052103E+02  0.00000000000E+00 0. -1.
         22    1    3    3    0    0  0.13355762839E+02 -0.34124055182E+02 -0.98002139287E+02  0.10462909179E+03  0.00000000000E+00 0. -1.
</event>
<event>
 7    1  0.7118985E-006  0.1106110E+03  0.7818608E-02  0.1401401E+00
          2   -1    0    0  502    0  0.00000000000E+00  0.00000000000E+00  0.14855128503E+04  0.14855128503E+04  0.00000000000E+00 0. -1.
          1   -1    0    0  501    0 -0.00000000000E+00 -0.00000000000E+00 -0.31852576503E+03  0.31852576503E+03  0.00000000000E+00 0. -1.
         25    2    1    2    0    0  0.29775613976E+01 -0.83654991728E+02 -0.21638991976E+03  0.26354611257E+03  0.12499973025E+03 0.  0.
          2    1    1    2  501    0  0.19526892935E+02 -0.24894283391E+02 -0.73178069302E+02  0.79724868894E+02  0.00000000000E+00 0. -1.
          1    1    1    2  502    0 -0.22504454333E+02  0.10854927512E+03  0.14565550744E+04  0.14607676339E+04  0.00000000000E+00 0. -1.
         22    1    3    3    0    0 -0.79984875801E+01 -0.10625334861E+03 -0.21303962195E+03  0.23820081951E+03  0.00000000000E+00 0. -1.
         22    1    3    3    0    0  0.10976048978E+02  0.22598356878E+02 -0.33502978086E+01  0.25345293057E+02  0.00000000000E+00 0. -1.
</event>
<event>
 7    1  0.7118985E-006  0.1102963E+03  0.7818608E-02  0.1424192E+00
          2   -1    0    0  502    0  0.00000000000E+00  0.00000000000E+00  0.11038038498E+04  0.11038038498E+04  0.00000000000E+00 0. -1.
          1   -1    0    0  501    0 -0.00000000000E+00 -0.00000000000E+00 -0.11709745058E+03  0.11709745058E+03  0.00000000000E+00 0. -1.
         25    2    1    2    0    0 -0.98726268426E+02  0.73590553296E+02  0.46444219786E+03  0.49648144095E+03  0.12499928176E+03 0.  0.
          2    1    1    2  501    0  0.26094349967E+01 -0.26450472264E+02 -0.94637086313E+02  0.98298599888E+02  0.00000000000E+00 0. -1.
          1    1    1    2  502    0  0.96116833429E+02 -0.47140081032E+02  0.61690128764E+03  0.62612125950E+03  0.00000000000E+00 0. -1.
         22    1    3    3    0    0  0.25762039704E+00  0.63119473641E+02  0.27861429476E+03  0.28567474436E+03  0.00000000000E+00 0. -1.
         22    1    3    3    0    0 -0.98983888823E+02  0.10471079655E+02  0.18582790310E+03  0.21080669659E+03  0.00000000000E+00 0. -1.
</event>
<event>
 7    1  0.7118985E-006  0.8153189E+02  0.7818608E-02  0.1488756E+00
          2   -1    0    0  502    0  0.00000000000E+00  0.00000000000E+00  0.10802645460E+04  0.10802645460E+04  0.00000000000E+00 0. -1.
          1   -1    0    0  501    0 -0.00000000000E+00 -0.00000000000E+00 -0.15194470354E+04  0.15194470354E+04  0.00000000000E+00 0. -1.
         25    2    1    2    0    0 -0.78162585570E+02  0.48903773228E+01  0.16051834347E+03  0.21799891502E+03  0.12499633109E+03 0.  0.
          2    1    1    2  501    0  0.79669990088E+02  0.17496417409E+02 -0.14894493920E+04  0.14916812405E+04  0.00000000000E+00 0. -1.
          1    1    1    2  502    0 -0.15074045181E+01 -0.22386794732E+02  0.88974855905E+03  0.89003142595E+03  0.00000000000E+00 0. -1.
         22    1    3    3    0    0 -0.80042000527E+02 -0.29011469298E+02  0.16306186128E+03  0.18394987851E+03  0.00000000000E+00 0. -1.
         22    1    3    3    0    0  0.18794149570E+01  0.33901846621E+02 -0.25435178042E+01  0.34049036516E+02  0.00000000000E+00 0. -1.
</event>
<event>
 7    1  0.7118985E-006  0.1265168E+03  0.7818608E-02  0.1257176E+00
          2   -1    0    0  502    0  0.00000000000E+00  0.00000000000E+00  0.11917392395E+04  0.11917392395E+04  0.00000000000E+00 0. -1.
          1   -1    0    0  501    0 -0.00000000000E+00 -0.00000000000E+00 -0.94414746795E+03  0.94414746795E+03  0.00000000000E+00 0. -1.
         25    2    1    2    0    0  0.12131799488E+03  0.48567500592E+02 -0.42690541178E+03  0.46362659325E+03  0.12499811746E+03 0.  0.
          2    1    1    2  501    0 -0.12753800992E+03  0.50125521824E+02 -0.48733094056E+03  0.50623113055E+03  0.00000000000E+00 0. -1.
          1    1    1    2  502    0  0.62200150490E+01 -0.98693022417E+02  0.11618281239E+04  0.11660289837E+04  0.00000000000E+00 0. -1.
         22    1    3    3    0    0 -0.12687681566E+00 -0.19617785738E+02 -0.63682332431E+01  0.20625906274E+02  0.00000000000E+00 0.  1.
         22    1    3    3    0    0  0.12144487169E+03  0.68185286330E+02 -0.42053717853E+03  0.44300068698E+03  0.00000000000E+00 0.  1.
</event>
<event>
 7    1  0.7118985E-006  0.5609465E+02  0.7818608E-02  0.1417252E+00
          2   -1    0    0  502    0  0.00000000000E+00  0.00000000000E+00  0.12477589085E+04  0.12477589085E+04  0.00000000000E+00 0. -1.
          1   -1    0    0  501    0 -0.00000000000E+00 -0.00000000000E+00 -0.32235947360E+03  0.32235947360E+03  0.00000000000E+00 0. -1.
         25    2    1    2    0    0  0.15913762646E+02  0.80025579205E+02  0.83654258304E+02  0.17111448816E+03  0.12499916782E+03 0.  0.
          2    1    1    2  501    0 -0.44844535237E+02 -0.32054031943E+02 -0.27519420411E+03  0.28066054813E+03  0.00000000000E+00 0. -1.
          1    1    1    2  502    0  0.28930772591E+02 -0.47971547262E+02  0.11169393807E+04  0.11183433458E+04  0.00000000000E+00 0. -1.
         22    1    3    3    0    0  0.25314927733E+02 -0.58645627358E+01  0.80569565947E+02  0.84656326516E+02  0.00000000000E+00 0.  1.
         22    1    3    3    0    0 -0.94011650871E+01  0.85890141941E+02  0.30846923566E+01  0.86458161642E+02  0.00000000000E+00 0.  1.
</event>
<event>
 7    1  0.7118985E-006  0.2206928E+03  0.7818608E-02  0.1252309E+00
          2   -1    0    0  502    0  0.00000000000E+00  0.00000000000E+00  0.32473767933E+04  0.32473767933E+04  0.00000000000E+00 0. -1.
          1   -1    0    0  501    0 -0.00000000000E+00 -0.00000000000E+00 -0.16364637694E+03  0.16364637694E+03  0.00000000000E+00 0. -1.
         25    2    1    2    0    0 -0.39195636340E+02  0.16767453997E+03  0.37937179038E+03  0.43496992531E+03  0.12499932529E+03 0.  0.
          2    1    1    2  501    0  0.76364280763E+01  0.59000196273E+02 -0.12448315376E+03  0.13796881446E+03  0.00000000000E+00 0. -1.
          1    1    1    2  502    0  0.31559208264E+02 -0.22667473625E+03  0.28288417798E+04  0.28380844305E+04  0.00000000000E+00 0. -1.
         22    1    3    3    0    0  0.11722633796E+02  0.15827705941E+03  0.25645824474E+03  0.30159555530E+03  0.00000000000E+00 0. -1.
         22    1    3    3    0    0 -0.50918270136E+02  0.93974805667E+01  0.12291354564E+03  0.13337437001E+03  0.00000000000E+00 0. -1.
</event>
<event>
 7    1  0.1245492E-005  0.6986335E+02  0.7818608E-02  0.1456248E+00
          2   -1    0    0  502    0  0.00000000000E+00  0.00000000000E+00  0.16827725316E+04  0.16827725316E+04  0.00000000000E+00 0. -1.
          1   -1    0    0  501    0 -0.00000000000E+00 -0.00000000000E+00 -0.22739042988E+04  0.22739042988E+04  0.00000000000E+00 0. -1.
         25    2    1    2    0    0  0.77588501515E+01 -0.10166322686E+03 -0.13599631347E+04  0.13694963531E+04  0.12499968819E+03 0.  0.
          2    1    1    2  501    0  0.38882817190E+01  0.32794693375E+02 -0.90814746005E+03  0.90874772068E+03  0.00000000000E+00 0. -1.
          1    1    1    2  502    0 -0.11647131870E+02  0.68868533483E+02  0.16769788275E+04  0.16784327567E+04  0.00000000000E+00 0. -1.
         22    1    3    3    0    0  0.10986065293E+01 -0.10499806736E+03 -0.57568781926E+03  0.58518566826E+03  0.00000000000E+00 0.  1.
         22    1    3    3    0    0  0.66602436221E+01  0.33348404998E+01 -0.78427531539E+03  0.78431068483E+03  0.00000000000E+00 0.  1.
</event>
<event>
 7    1  0.7118985E-006  0.7079469E+02  0.7818608E-02  0.1379612E+00
          2   -1    0    0  502    0  0.00000000000E+00  0.00000000000E+00  0.26165080535E+03  0.26165080535E+03  0.00000000000E+00 0. -1.
          1   -1    0    0  501    0 -0.00000000000E+00 -0.00000000000E+00 -0.13968937516E+04  0.13968937516E+04  0.00000000000E+00 0. -1.
         25    2    1    2    0    0 -0.19481711483E+02  0.15377318550E+01 -0.26624974090E+03  0.29477633431E+03  0.12498904369E+03 0.  0.
          2    1    1    2  501    0 -0.29668435296E+02  0.50864735727E+02 -0.11103677994E+04  0.11119280945E+04  0.00000000000E+00 0. -1.
          1    1    1    2  502    0  0.49150146780E+02 -0.52402467582E+02  0.24137459400E+03  0.25184012819E+03  0.00000000000E+00 0. -1.
         22    1    3    3    0    0 -0.55704448790E+01 -0.50123620400E+02 -0.21447541377E+03  0.22032501058E+03  0.00000000000E+00 0.  1.
         22    1    3    3    0    0 -0.13911266604E+02  0.51661352255E+02 -0.51774327130E+02  0.74451323730E+02  0.00000000000E+00 0.  1.
</event>
<event>
 7    1  0.7118985E-006  0.1101139E+03  0.7818608E-02  0.1358572E+00
          2   -1    0    0  502    0  0.00000000000E+00  0.00000000000E+00  0.21413718088E+04  0.21413718088E+04  0.00000000000E+00 0. -1.
          1   -1    0    0  501    0 -0.00000000000E+00 -0.00000000000E+00 -0.44322126664E+02  0.44322126664E+02  0.00000000000E+00 0. -1.
         25    2    1    2    0    0  0.11462779627E+03  0.19178402126E+02  0.26897234910E+03  0.31855652958E+03  0.12499918067E+03 0.  0.
          2    1    1    2  501    0 -0.21376630874E+02  0.39680722642E+02  0.10579532646E+02  0.46297371502E+02  0.00000000000E+00 0. -1.
          1    1    1    2  502    0 -0.93251165395E+02 -0.58859124768E+02  0.18174978004E+04  0.18208400344E+04  0.00000000000E+00 0. -1.
         22    1    3    3    0    0  0.88787064091E+02  0.69814923137E+02  0.16316597828E+03  0.19844496141E+03  0.00000000000E+00 0.  1.
         22    1    3    3    0    0  0.25840732178E+02 -0.50636521011E+02  0.10580637083E+03  0.12011156816E+03  0.00000000000E+00 0.  1.
</event>
<event>
 7    1  0.7118985E-006  0.7179695E+02  0.7818608E-02  0.1412200E+00
          2   -1    0    0  502    0  0.00000000000E+00  0.00000000000E+00  0.71894620920E+03  0.71894620920E+03  0.00000000000E+00 0. -1.
          1   -1    0    0  501    0 -0.00000000000E+00 -0.00000000000E+00 -0.13645989926E+03  0.13645989926E+03  0.00000000000E+00 0. -1.
         25    2    1    2    0    0 -0.66751671907E+01 -0.50654324991E+02  0.45190443372E+03  0.47164965536E+03  0.12500144674E+03 0.  0.
          2    1    1    2  501    0  0.24036815699E+02 -0.37789944867E+02 -0.11432820019E+03  0.12278756371E+03  0.00000000000E+00 0. -1.
          1    1    1    2  502    0 -0.17361648508E+02  0.88444269858E+02  0.24491007641E+03  0.26096888940E+03  0.00000000000E+00 0. -1.
         22    1    3    3    0    0  0.13639928856E+02 -0.45592491578E+02  0.49373130522E+02  0.68574258764E+02  0.00000000000E+00 0. -1.
         22    1    3    3    0    0 -0.20315096047E+02 -0.50618334126E+01  0.40253130320E+03  0.40307539660E+03  0.00000000000E+00 0. -1.
</event>
<event>
 7    1  0.7118985E-006  0.6183534E+02  0.7818608E-02  0.1451650E+00
          2   -1    0    0  502    0  0.00000000000E+00  0.00000000000E+00  0.70255447116E+03  0.70255447116E+03  0.00000000000E+00 0. -1.
          1   -1    0    0  501    0 -0.00000000000E+00 -0.00000000000E+00 -0.13879914050E+03  0.13879914050E+03  0.00000000000E+00 0. -1.
         25    2    1    2    0    0 -0.90359235870E+02 -0.49455572394E+01  0.33060815980E+02  0.15781663422E+03  0.12499528967E+03 0.  0.
          2    1    1    2  501    0  0.57016128501E+02 -0.14482258672E+02 -0.64382183667E+02  0.87210322206E+02  0.00000000000E+00 0. -1.
          1    1    1    2  502    0  0.33343107369E+02  0.19427815911E+02  0.59507669834E+03  0.59632665524E+03  0.00000000000E+00 0. -1.
         22    1    3    3    0    0 -0.81267396203E+02  0.51973304440E+02  0.24655403816E+02  0.99566575704E+02  0.00000000000E+00 0.  1.
         22    1    3    3    0    0 -0.90918396668E+01 -0.56918861679E+02  0.84054121635E+01  0.58250058515E+02  0.00000000000E+00 0.  1.
</event>
<event>
 7    1  0.7118985E-006  0.1478654E+03  0.7818608E-02  0.1212839E+00
          2   -1    0    0  502    0  0.00000000000E+00  0.00000000000E+00  0.75061738775E+03  0.75061738775E+03  0.00000000000E+00 0. -1.
          1   -1    0    0  501    0 -0.00000000000E+00 -0.00000000000E+00 -0.14765609808E+04  0.14765609808E+04  0.00000000000E+00 0. -1.
         25    2    1    2    0    0  0.49022419154E+02  0.11247426641E+03 -0.25915605111E+02  0.17705702790E+03  0.12499565736E+03 0.  0.
          2    1    1    2  501    0 -0.15010039932E+03 -0.25656194083E+02 -0.13642217680E+04  0.13726942130E+04  0.00000000000E+00 0. -1.
          1    1    1    2  502    0  0.10107798017E+03 -0.86818072324E+02  0.66419378007E+03  0.67742712762E+03  0.00000000000E+00 0. -1.
         22    1    3    3    0    0  0.29472080465E+02  0.40360258144E+02  0.49892109834E+02  0.70617112572E+02  0.00000000000E+00 0. -1.
         22    1    3    3    0    0  0.19550338689E+02  0.72114008263E+02 -0.75807714945E+02  0.10643991533E+03  0.00000000000E+00 0. -1.
</event>
<event>
 7    1  0.7118985E-006  0.1141805E+03  0.7818608E-02  0.1418961E+00
          2   -1    0    0  502    0  0.00000000000E+00  0.00000000000E+00  0.10913503152E+04  0.10913503152E+04  0.00000000000E+00 0. -1.
          1   -1    0    0  501    0 -0.00000000000E+00 -0.00000000000E+00 -0.25660614087E+03  0.25660614087E+03  0.00000000000E+00 0. -1.
         25    2    1    2    0    0 -0.11800152093E+03 -0.54440372479E+02  0.15852851207E+03  0.24008775219E+03  0.12499090574E+03 0.  0.
          2    1    1    2  501    0  0.10931274155E+03  0.29166016894E+02 -0.20078230882E+03  0.23046359266E+03  0.00000000000E+00 0. -1.
          1    1    1    2  502    0  0.86887793772E+01  0.25274355586E+02  0.87699797107E+03  0.87740511122E+03  0.00000000000E+00 0. -1.
         22    1    3    3    0    0 -0.54628001945E+02  0.89682488650E+01 -0.29016230901E+01  0.55435255034E+02  0.00000000000E+00 0. -1.
         22    1    3    3    0    0 -0.63373518985E+02 -0.63408621344E+02  0.16143013516E+03  0.18465249716E+03  0.00000000000E+00 0. -1.
</event>
<event>
 7    1  0.7118985E-006  0.1798073E+03  0.7818608E-02  0.1233309E+00
          2   -1    0    0  502    0  0.00000000000E+00  0.00000000000E+00  0.18261446897E+04  0.18261446897E+04  0.00000000000E+00 0. -1.
          1   -1    0    0  501    0 -0.00000000000E+00 -0.00000000000E+00 -0.11685359995E+03  0.11685359995E+03  0.00000000000E+00 0. -1.
         25    2    1    2    0    0 -0.64168447637E+02 -0.10582602617E+03  0.29155273506E+03  0.34050937688E+03  0.12500760350E+03 0.  0.
          2    1    1    2  501    0  0.22010576761E+02 -0.85699997453E+02 -0.63128534493E+02  0.10869299389E+03  0.00000000000E+00 0. -1.
          1    1    1    2  502    0  0.42157870876E+02  0.19152602363E+03  0.14808668892E+04  0.14937959189E+04  0.00000000000E+00 0. -1.
         22    1    3    3    0    0 -0.70678451515E+02 -0.56320414790E+02  0.72565169810E+02  0.11590140853E+03  0.00000000000E+00 0. -1.
         22    1    3    3    0    0  0.65100038777E+01 -0.49505611382E+02  0.21898756525E+03  0.22460796835E+03  0.00000000000E+00 0. -1.
</event>
<event>
 7    1  0.7118985E-006  0.1063711E+03  0.7818608E-02  0.1306882E+00
          2   -1    0    0  502    0  0.00000000000E+00  0.00000000000E+00  0.94649686660E+03  0.94649686660E+03  0.00000000000E+00 0. -1.
          1   -1    0    0  501    0 -0.00000000000E+00 -0.00000000000E+00 -0.32852088614E+03  0.32852088614E+03  0.00000000000E+00 0. -1.
         25    2    1    2    0    0 -0.17032564776E+03  0.51067888253E+02 -0.61829496219E+02  0.22598130702E+03  0.12500363604E+03 0.  0.
          2    1    1    2  501    0  0.71700304750E+02 -0.15667287687E+02 -0.17398953348E+03  0.18883525985E+03  0.00000000000E+00 0. -1.
          1    1    1    2  502    0  0.98625343008E+02 -0.35400600566E+02  0.85379501016E+03  0.86020118587E+03  0.00000000000E+00 0. -1.
         22    1    3    3    0    0  0.16564165875E+02 -0.33275695140E+01  0.86355093472E+01  0.18974096334E+02  0.00000000000E+00 0. -1.
         22    1    3    3    0    0 -0.18688981363E+03  0.54395457767E+02 -0.70465005566E+02  0.20700721068E+03  0.00000000000E+00 0. -1.
</event>
<event>
 7    1  0.7118985E-006  0.7529999E+02  0.7818608E-02  0.1481641E+00
          2   -1    0    0  502    0  0.00000000000E+00  0.00000000000E+00  0.33110344721E+03  0.33110344721E+03  0.00000000000E+00 0. -1.
          1   -1    0    0  501    0 -0.00000000000E+00 -0.00000000000E+00 -0.10527046367E+03  0.10527046367E+03  0.00000000000E+00 0. -1.
         25    2    1    2    0    0  0.58145810308E+02  0.66647332865E+02  0.16039776592E+03  0.22175484269E+03  0.12499985884E+03 0.  0.
          2    1    1    2  501    0 -0.32608558544E+02 -0.66731883960E+02 -0.54418335635E+02  0.92075065465E+02  0.00000000000E+00 0. -1.
          1    1    1    2  502    0 -0.25537251764E+02  0.84551095001E-01  0.11985355326E+03  0.12254400273E+03  0.00000000000E+00 0. -1.
         22    1    3    3    0    0 -0.30685877050E+02  0.35755593371E+02  0.16648913478E+02  0.49972710829E+02  0.00000000000E+00 0.  1.
         22    1    3    3    0    0  0.88831687358E+02  0.30891739494E+02  0.14374885244E+03  0.17178213186E+03  0.00000000000E+00 0.  1.
</event>
<event>
 7    1  0.7118985E-006  0.5496846E+02  0.7818608E-02  0.1523786E+00
          2   -1    0    0  502    0  0.00000000000E+00  0.00000000000E+00  0.16935516623E+04  0.16935516623E+04  0.00000000000E+00 0. -1.
          1   -1    0    0  501    0 -0.00000000000E+00 -0.00000000000E+00 -0.15338926815E+02  0.15338926815E+02  0.00000000000E+00 0. -1.
         25    2    1    2    0    0  0.31478924754E+01 -0.55365998876E+02  0.88319989899E+03  0.89372597231E+03  0.12501499489E+03 0.  0.
          2    1    1    2  501    0 -0.28218168361E+02  0.47707868328E+02  0.68220141132E+02  0.87899336642E+02  0.00000000000E+00 0. -1.
          1    1    1    2  502    0  0.25070275885E+02  0.76581305484E+01  0.72679269535E+03  0.72726528015E+03  0.00000000000E+00 0. -1.
         22    1    3    3    0    0 -0.42195726305E+02 -0.75478201169E+02  0.60311661629E+03  0.60928408072E+03  0.00000000000E+00 0.  1.
         22    1    3    3    0    0  0.45343618780E+02  0.20112202292E+02  0.28008328270E+03  0.28444189160E+03  0.00000000000E+00 0.  1.
</event>
<event>
 7    1  0.7118985E-006  0.1173926E+03  0.7818608E-02  0.1256408E+00
          2   -1    0    0  502    0  0.00000000000E+00  0.00000000000E+00  0.99659276956E+03  0.99659276956E+03  0.00000000000E+00 0. -1.
          1   -1    0    0  501    0 -0.00000000000E+00 -0.00000000000E+00 -0.16455970573E+03  0.16455970573E+03  0.00000000000E+00 0. -1.
         25    2    1    2    0    0 -0.23347227612E+02  0.94041037421E+01  0.97020890014E+02  0.16022503662E+03  0.12500191622E+03 0.  0.
          2    1    1    2  501    0 -0.99883951982E+02  0.39434351398E+02 -0.10519634323E+03  0.15032678591E+03  0.00000000000E+00 0. -1.
          1    1    1    2  502    0  0.12323117959E+03 -0.48838455140E+02  0.84020851706E+03  0.85060065275E+03  0.00000000000E+00 0. -1.
         22    1    3    3    0    0 -0.36461952750E+01  0.66479311525E+02  0.58295462748E+02  0.88493810957E+02  0.00000000000E+00 0.  1.
         22    1    3    3    0    0 -0.19701032337E+02 -0.57075207783E+02  0.38725427267E+02  0.71731225666E+02  0.00000000000E+00 0.  1.
</event>
<event>
 7    1  0.7118985E-006  0.1076951E+03  0.7818608E-02  0.1332181E+00
          2   -1    0    0  502    0  0.00000000000E+00  0.00000000000E+00  0.54843858179E+03  0.54843858179E+03  0.00000000000E+00 0. -1.
          1   -1    0    0  501    0 -0.00000000000E+00 -0.00000000000E+00 -0.77147368749E+03  0.77147368749E+03  0.00000000000E+00 0. -1.
         25    2    1    2    0    0  0.71035882838E+02 -0.13715205497E+03  0.20257324385E+03  0.28375698477E+03  0.12500129778E+03 0.  0.
          2    1    1    2  501    0 -0.15296895723E+02  0.55754281124E+02 -0.72172528770E+03  0.72403724061E+03  0.00000000000E+00 0. -1.
          1    1    1    2  502    0 -0.55738987115E+02  0.81397773847E+02  0.29611693815E+03  0.31211804390E+03  0.00000000000E+00 0. -1.
         22    1    3    3    0    0  0.46346693833E+02 -0.15806920315E+03  0.15473007259E+03  0.22599841676E+03  0.00000000000E+00 0.  1.
         22    1    3    3    0    0  0.24689189005E+02  0.20917148181E+02  0.47843171259E+02  0.57758568004E+02  0.00000000000E+00 0.  1.
</event>
<event>
 7    1  0.7118985E-006  0.7535171E+02  0.7818608E-02  0.1409643E+00
          2   -1    0    0  502    0  0.00000000000E+00  0.00000000000E+00  0.14505334950E+03  0.14505334950E+03  0.00000000000E+00 0. -1.
          1   -1    0    0  501    0 -0.00000000000E+00 -0.00000000000E+00 -0.12745932844E+04  0.12745932844E+04  0.00000000000E+00 0. -1.
         25    2    1    2    0    0 -0.81212179622E+02  0.36149756326E+02 -0.26471054106E+03  0.30593516516E+03  0.12498972650E+03 0.  0.
          2    1    1    2  501    0  0.74824248409E+02  0.69117681280E+01 -0.98398637074E+03  0.98685136596E+03  0.00000000000E+00 0. -1.
          1    1    1    2  502    0  0.63879312128E+01 -0.43061524454E+02  0.11915697686E+03  0.12686010282E+03  0.00000000000E+00 0. -1.
         22    1    3    3    0    0 -0.67192503682E+01  0.69200451915E+02 -0.14881117290E+03  0.16425168507E+03  0.00000000000E+00 0.  1.
         22    1    3    3    0    0 -0.74492929254E+02 -0.33050695589E+02 -0.11589936816E+03  0.14168348008E+03  0.00000000000E+00 0.  1.
</event>
<event>
 7    1  0.7118985E-006  0.7936606E+02  0.7818608E-02  0.1401437E+00
          2   -1    0    0  502    0  0.00000000000E+00  0.00000000000E+00  0.12173699506E+03  0.12173699506E+03  0.00000000000E+00 0. -1.
          1   -1    0    0  501    0 -0.00000000000E+00 -0.00000000000E+00 -0.15170005391E+04  0.15170005391E+04  0.00000000000E+00 0. -1.
         25    2    1    2    0    0  0.10925157889E+03  0.40552876177E+02 -0.77008438372E+01  0.17105588856E+03  0.12498148166E+03 0.  0.
          2    1    1    2  501    0 -0.78385467678E+02 -0.90801310728E+01 -0.14140524670E+04  0.14162524880E+04  0.00000000000E+00 0. -1.
          1    1    1    2  502    0 -0.30866111208E+02 -0.31472745104E+02  0.26489766809E+02  0.51429157597E+02  0.00000000000E+00 0. -1.
         22    1    3    3    0    0  0.10419748346E+03  0.13031305493E+02  0.42739680893E+02  0.11337376595E+03  0.00000000000E+00 0. -1.
         22    1    3    3    0    0  0.50540954234E+01  0.27521570684E+02 -0.50440524730E+02  0.57682122608E+02  0.00000000000E+00 0. -1.
</event>
<event>
 7    1  0.7118985E-006  0.1011637E+03  0.7818608E-02  0.1383847E+00
          2   -1    0    0  502    0  0.00000000000E+00  0.00000000000E+00  0.86403179241E+03  0.86403179241E+03  0.00000000000E+00 0. -1.
          1   -1    0    0  501    0 -0.00000000000E+00 -0.00000000000E+00 -0.17449904064E+03  0.17449904064E+03  0.00000000000E+00 0. -1.
         25    2    1    2    0    0 -0.11073880798E+03  0.62707382616E+02  0.37816620765E+03  0.41812930088E+03  0.12500852857E+03 0.  0.
          2    1    1    2  501    0  0.19662979060E+02 -0.34618039974E+02 -0.14696658689E+03  0.15226364996E+03  0.00000000000E+00 0. -1.
          1    1    1    2  502    0  0.91075828918E+02 -0.28089342641E+02  0.45833313100E+03  0.46813788221E+03  0.00000000000E+00 0. -1.
         22    1    3    3    0    0 -0.12000653598E+03  0.89259873731E+02  0.33087484289E+03  0.36310749840E+03  0.00000000000E+00 0. -1.
         22    1    3    3    0    0  0.92677280053E+01 -0.26552491115E+02  0.47291364766E+02  0.55021802480E+02  0.00000000000E+00 0. -1.
</event>
<event>
 7    1  0.7118985E-006  0.5988412E+02  0.7818608E-02  0.1484056E+00
          2   -1    0    0  502    0  0.00000000000E+00  0.00000000000E+00  0.92836993693E+02  0.92836993693E+02  0.00000000000E+00 0. -1.
          1   -1    0    0  501    0 -0.00000000000E+00 -0.00000000000E+00 -0.10131648185E+04  0.10131648185E+04  0.00000000000E+00 0. -1.
         25    2    1    2    0    0 -0.40634294162E+00 -0.35604894876E+02 -0.43258890261E+02  0.13698254835E+03  0.12500005325E+03 0.  0.
          2    1    1    2  501    0 -0.93811418326E+01 -0.30144243509E+02 -0.89859325624E+03  0.89914766385E+03  0.00000000000E+00 0. -1.
          1    1    1    2  502    0  0.97874847742E+01  0.65749138385E+02  0.21524321724E+02  0.69871599969E+02  0.00000000000E+00 0. -1.
         22    1    3    3    0    0 -0.18400261935E+01 -0.66237435770E+01  0.44253889776E+02  0.44784667418E+02  0.00000000000E+00 0. -1.
         22    1    3    3    0    0  0.14336832519E+01 -0.28981151299E+02 -0.87512780038E+02  0.92197880931E+02  0.00000000000E+00 0. -1.
</event>
<event>
 7    1  0.8862743E-006  0.5539793E+02  0.7818608E-02  0.1433168E+00
          2   -1    0    0  502    0  0.00000000000E+00  0.00000000000E+00  0.74677521842E+03  0.74677521842E+03  0.00000000000E+00 0. -1.
          1   -1    0    0  501    0 -0.00000000000E+00 -0.00000000000E+00 -0.14288458296E+04  0.14288458296E+04  0.00000000000E+00 0. -1.
         25    2    1    2    0    0 -0.41582059900E+01  0.57433240740E+01 -0.28774828720E+03  0.31380670131E+03  0.12500117019E+03 0.  0.
          2    1    1    2  501    0 -0.45806799506E+02  0.18577867750E+02 -0.11264734081E+04  0.11275574217E+04  0.00000000000E+00 0. -1.
          1    1    1    2  502    0  0.49965005496E+02 -0.24321191824E+02  0.73215108406E+03  0.73425692508E+03  0.00000000000E+00 0. -1.
         22    1    3    3    0    0 -0.41224778139E+02 -0.86862048466E+00 -0.26825989285E+03  0.27141040316E+03  0.00000000000E+00 0.  1.
         22    1    3    3    0    0  0.37066572149E+02  0.66119445587E+01 -0.19488394352E+02  0.42396298142E+02  0.00000000000E+00 0.  1.
</event>
<event>
 7    1  0.7118985E-006  0.8072228E+02  0.7818608E-02  0.1430030E+00
          2   -1    0    0  502    0  0.00000000000E+00  0.00000000000E+00  0.15136398599E+04  0.15136398599E+04  0.00000000000E+00 0. -1.
          1   -1    0    0  501    0 -0.00000000000E+00 -0.00000000000E+00 -0.52700987430E+02  0.52700987430E+02  0.00000000000E+00 0. -1.
         25    2    1    2    0    0  0.62641972161E+02 -0.73789535972E+02  0.67677993940E+03  0.69499965720E+03  0.12499809932E+03 0.  0.
          2    1    1    2  501    0 -0.27929661158E+02  0.75123003183E+02 -0.60445262816E+01  0.80374547449E+02  0.00000000000E+00 0. -1.
          1    1    1    2  502    0 -0.34712311003E+02 -0.13334672113E+01  0.79020345932E+03  0.79096664265E+03  0.00000000000E+00 0. -1.
         22    1    3    3    0    0  0.32246338952E+02 -0.10009929792E+03  0.34171159008E+03  0.35752832981E+03  0.00000000000E+00 0. -1.
         22    1    3    3    0    0  0.30395633209E+02  0.26309761952E+02  0.33506834933E+03  0.33747132739E+03  0.00000000000E+00 0. -1.
</event>
<event>
 7    1  0.7118985E-006  0.4534567E+02  0.7818608E-02  0.1482702E+00
          2   -1    0    0  502    0  0.00000000000E+00  0.00000000000E+00  0.10695274680E+04  0.10695274680E+04  0.00000000000E+00 0. -1.
          1   -1    0    0  501    0 -0.00000000000E+00 -0.00000000000E+00 -0.10239106463E+03  0.10239106463E+03  0.00000000000E+00 0. -1.
         25    2    1    2    0    0 -0.67693920988E+02  0.43814535058E+02  0.42675653557E+03  0.45193796326E+03  0.12499840622E+03 0.  0.
          2    1    1    2  501    0  0.26241907714E+02 -0.36507172298E+02 -0.83418811619E+02  0.94763439583E+02  0.00000000000E+00 0. -1.
          1    1    1    2  502    0  0.41452013274E+02 -0.73073627597E+01  0.62379867944E+03  0.62521712982E+03  0.00000000000E+00 0. -1.
         22    1    3    3    0    0  0.51790997873E+01  0.66092794578E+02  0.13508000727E+03  0.15047155523E+03  0.00000000000E+00 0. -1.
         22    1    3    3    0    0 -0.72873020775E+02 -0.22278259520E+02  0.29167652831E+03  0.30146640803E+03  0.00000000000E+00 0. -1.
</event>
<event>
 7    1  0.7118985E-006  0.1016162E+03  0.7818608E-02  0.1357292E+00
          2   -1    0    0  502    0  0.00000000000E+00  0.00000000000E+00  0.18221175614E+03  0.18221175614E+03  0.00000000000E+00 0. -1.
          1   -1    0    0  501    0 -0.00000000000E+00 -0.00000000000E+00 -0.32593456317E+03  0.32593456317E+03  0.00000000000E+00 0. -1.
         25    2    1    2    0    0 -0.82039918900E+02 -0.36540318075E+02 -0.97078912415E+02  0.18197832168E+03  0.12500420468E+03 0.  0.
          2    1    1    2  501    0  0.69169901114E+02  0.84204902993E+02 -0.16510815863E+03  0.19782731094E+03  0.00000000000E+00 0. -1.
          1    1    1    2  502    0  0.12870017786E+02 -0.47664584918E+02  0.11846426401E+03  0.12834068669E+03  0.00000000000E+00 0. -1.
         22    1    3    3    0    0 -0.24233491382E+02  0.37113901871E+02  0.36246358709E+01  0.44472933362E+02  0.00000000000E+00 0.  1.
         22    1    3    3    0    0 -0.57806427518E+02 -0.73654219946E+02 -0.10070354829E+03  0.13750538831E+03  0.00000000000E+00 0.  1.
</event>
<event>
 7    1  0.7118985E-006  0.1013936E+03  0.7818608E-02  0.1408261E+00
          2   -1    0    0  502    0  0.00000000000E+00  0.00000000000E+00  0.10655085815E+04  0.10655085815E+04  0.00000000000E+00 0. -1.
          1   -1    0    0  501    0 -0.00000000000E+00 -0.00000000000E+00 -0.27646746579E+02  0.27646746579E+02  0.00000000000E+00 0. -1.
         25    2    1    2    0    0  0.94520114110E+02  0.11896788422E+02  0.43389006146E+03  0.46147763159E+03  0.12500173391E+03 0.  0.
          2    1    1    2  501    0  0.17818726298E+00  0.32702629512E+02  0.19860375577E+02  0.38261315265E+02  0.00000000000E+00 0. -1.
          1    1    1    2  502    0 -0.94698301373E+02 -0.44599417934E+02  0.58411139792E+03  0.59341638126E+03  0.00000000000E+00 0. -1.
         22    1    3    3    0    0 -0.39609410630E+01 -0.57406358355E+01 -0.66998449037E+01  0.96711879123E+01  0.00000000000E+00 0.  1.
         22    1    3    3    0    0  0.98481055173E+02  0.17637424257E+02  0.44058990636E+03  0.45180644368E+03  0.00000000000E+00 0.  1.
</event>
<event>
 7    1  0.7118985E-006  0.5466311E+02  0.7818608E-02  0.1453111E+00
          2   -1    0    0  502    0  0.00000000000E+00  0.00000000000E+00  0.90378339626E+03  0.90378339626E+03  0.00000000000E+00 0. -1.
          1   -1    0    0  501    0 -0.00000000000E+00 -0.00000000000E+00 -0.61813297458E+02  0.61813297458E+02  0.00000000000E+00 0. -1.
         25    2    1    2    0    0 -0.25950283729E+02 -0.53772326584E+01  0.61891616898E+03  0.63196892722E+03  0.12500067552E+03 0.  0.
          2    1    1    2  501    0  0.26929044580E+02  0.48553899112E+02 -0.39120778381E+02  0.67919731022E+02  0.00000000000E+00 0. -1.
          1    1    1    2  502    0 -0.97876085074E+00 -0.43176666453E+02  0.26217470820E+03  0.26570803548E+03  0.00000000000E+00 0. -1.
         22    1    3    3    0    0 -0.11264744114E+02 -0.64954135623E+02  0.29269233328E+03  0.30002455926E+03  0.00000000000E+00 0.  1.
         22    1    3    3    0    0 -0.14685539615E+02  0.59576902965E+02  0.32622383570E+03  0.33194436796E+03  0.00000000000E+00 0.  1.
</event>
<event>
 7    1  0.7118985E-006  0.8376685E+02  0.7818608E-02  0.1323597E+00
          2   -1    0    0  502    0  0.00000000000E+00  0.00000000000E+00  0.27110969016E+02  0.27110969016E+02  0.00000000000E+00 0. -1.
          1   -1    0    0  501    0 -0.00000000000E+00 -0.00000000000E+00 -0.16222353732E+04  0.16222353732E+04  0.00000000000E+00 0. -1.
         25    2    1    2    0    0  0.57894173887E+02  0.75502926423E+02 -0.98154892223E+03  0.99404061092E+03  0.12500408857E+03 0.  0.
          2    1    1    2  501    0 -0.86418474963E+02  0.32577798490E+01 -0.52988468607E+03  0.53689528446E+03  0.00000000000E+00 0. -1.
          1    1    1    2  502    0  0.28524301076E+02 -0.78760706272E+02 -0.83690795888E+02  0.11841044684E+03  0.00000000000E+00 0. -1.
         22    1    3    3    0    0 -0.27718891840E+02 -0.69534903308E+01 -0.36641376237E+03  0.36752650686E+03  0.00000000000E+00 0. -1.
         22    1    3    3    0    0  0.85613065727E+02  0.82456416753E+02 -0.61513515986E+03  0.62651410406E+03  0.00000000000E+00 0. -1.
</event>
<event>
 7    1  0.7118985E-006  0.2428545E+03  0.7818608E-02  0.1196988E+00
          2   -1    0    0  502    0  0.00000000000E+00  0.00000000000E+00  0.32903909911E+04  0.32903909911E+04  0.00000000000E+00 0. -1.
          1   -1    0    0  501    0 -0.00000000000E+00 -0.00000000000E+00 -0.13313388023E+04  0.13313388023E+04  0.00000000000E+00 0. -1.
         25    2    1    2    0    0 -0.18410122352E+03  0.17332221829E+03 -0.21524750077E+03  0.35480951197E+03  0.12499780534E+03 0.  0.
          2    1    1    2  501    0  0.83484428540E+02  0.47859727337E+02 -0.10395014182E+04  0.10439460723E+04  0.00000000000E+00 0. -1.
          1    1    1    2  502    0  0.10061679498E+03 -0.22118194563E+03  0.32138011078E+04  0.32229742091E+04  0.00000000000E+00 0. -1.
         22    1    3    3    0    0 -0.79007323955E+02  0.75323436626E+02 -0.17383261182E+03  0.20526459577E+03  0.00000000000E+00 0.  1.
         22    1    3    3    0    0 -0.10509389957E+03  0.97998781665E+02 -0.41414888943E+02  0.14954491620E+03  0.00000000000E+00 0.  1.
</event>
<event>
 7    1  0.7118985E-006  0.8549500E+02  0.7818608E-02  0.1403642E+00
          2   -1    0    0  502    0  0.00000000000E+00  0.00000000000E+00  0.10711728734E+04  0.10711728734E+04  0.00000000000E+00 0. -1.
          1   -1    0    0  501    0 -0.00000000000E+00 -0.00000000000E+00 -0.11998894770E+03  0.11998894770E+03  0.00000000000E+00 0. -1.
         25    2    1    2    0    0 -0.47227364660E+02  0.47508293055E+02  0.77577007693E+03  0.78862667065E+03  0.12500140609E+03 0.  0.
          2    1    1    2  501    0  0.81737480174E+02 -0.26858630653E+02 -0.95564713465E+02  0.12858855379E+03  0.00000000000E+00 0. -1.
          1    1    1    2  502    0 -0.34510115514E+02 -0.20649662402E+02  0.27097856219E+03  0.27394659661E+03  0.00000000000E+00 0. -1.
         22    1    3    3    0    0 -0.76705610181E+02  0.18767829025E+02  0.27350140518E+03  0.28467349837E+03  0.00000000000E+00 0. -1.
         22    1    3    3    0    0  0.29478245521E+02  0.28740464030E+02  0.50226867175E+03  0.50395317228E+03  0.00000000000E+00 0. -1.
</event>
<event>
 7    1  0.7118985E-006  0.9949863E+02  0.7818608E-02  0.1305841E+00
          2   -1    0    0  502    0  0.00000000000E+00  0.00000000000E+00  0.83521392677E+03  0.83521392677E+03  0.00000000000E+00 0. -1.
          1   -1    0    0  501    0 -0.00000000000E+00 -0.00000000000E+00 -0.59128522994E+03  0.59128522994E+03  0.00000000000E+00 0. -1.
         25    2    1    2    0    0 -0.56840650970E+01  0.28305347138E+02  0.85484711047E+02  0.15415937353E+03  0.12499590134E+03 0.  0.
          2    1    1    2  501    0 -0.58316622437E+01  0.78995497284E+02 -0.55002467727E+03  0.55569905748E+03  0.00000000000E+00 0. -1.
          1    1    1    2  502    0  0.11515727341E+02 -0.10730084442E+03  0.70846866306E+03  0.71664072569E+03  0.00000000000E+00 0. -1.
         22    1    3    3    0    0 -0.18923644611E+02  0.40979960090E+02 -0.18345476391E+02  0.48723895147E+02  0.00000000000E+00 0.  1.
         22    1    3    3    0    0  0.13239579514E+02 -0.12674612952E+02  0.10383018744E+03  0.10543547839E+03  0.00000000000E+00 0.  1.
</event>
<event>
 7    1  0.7118985E-006  0.7265022E+02  0.7818608E-02  0.1385215E+00
          2   -1    0    0  502    0  0.00000000000E+00  0.00000000000E+00  0.15952502453E+04  0.15952502453E+04  0.00000000000E+00 0. -1.
          1   -1    0    0  501    0 -0.00000000000E+00 -0.00000000000E+00 -0.57542373647E+03  0.57542373647E+03  0.00000000000E+00 0. -1.
         25    2    1    2    0    0  0.84780163309E+02  0.11141156837E+02  0.10424349501E+03  0.18385734877E+03  0.12500006792E+03 0.  0.
          2    1    1    2  501    0 -0.23063500875E+02 -0.49740084984E+02 -0.53329763631E+03  0.53610854314E+03  0.00000000000E+00 0. -1.
          1    1    1    2  502    0 -0.61716662434E+02  0.38598928147E+02  0.14488806501E+04  0.14507080898E+04  0.00000000000E+00 0. -1.
         22    1    3    3    0    0  0.22159528574E+02  0.57843783704E+02  0.12201014489E+02  0.63133293708E+02  0.00000000000E+00 0. -1.
         22    1    3    3    0    0  0.62620634735E+02 -0.46702626867E+02  0.92042480518E+02  0.12072405506E+03  0.00000000000E+00 0. -1.
</event>
<event>
 7    1  0.7118985E-006  0.3996673E+02  0.7818608E-02  0.1526875E+00
          2   -1    0    0  502    0  0.00000000000E+00  0.00000000000E+00  0.89774654987E+03  0.89774654987E+03  0.00000000000E+00 0. -1.
          1   -1    0    0  501    0 -0.00000000000E+00 -0.00000000000E+00 -0.79090540711E+02  0.79090540711E+02  0.00000000000E+00 0. -1.
         25    2    1    2    0    0  0.64955615885E+02  0.30262747158E+02  0.34298577976E+03  0.37202058061E+03  0.12500000549E+03 0.  0.
          2    1    1    2  501    0 -0.34750003294E+02 -0.63287916709E+01 -0.58996894824E+02  0.68762271137E+02  0.00000000000E+00 0. -1.
          1    1    1    2  502    0 -0.30205612591E+02 -0.23933955487E+02  0.53466712422E+03  0.53605423884E+03  0.00000000000E+00 0. -1.
         22    1    3    3    0    0  0.21806110628E+02  0.55073909967E+02  0.30138502937E+03  0.30715074141E+03  0.00000000000E+00 0.  1.
         22    1    3    3    0    0  0.43149505257E+02 -0.24811162809E+02  0.41600750392E+02  0.64869839194E+02  0.00000000000E+00 0.  1.
</event>
<event>
 7    1  0.7118985E-006  0.6498797E+02  0.7818608E-02  0.1444733E+00
          2   -1    0    0  502    0  0.00000000000E+00  0.00000000000E+00  0.92853614245E+03  0.92853614245E+03  0.00000000000E+00 0. -1.
          1   -1    0    0  501    0 -0.00000000000E+00 -0.00000000000E+00 -0.28493528727E+03  0.28493528727E+03  0.00000000000E+00 0. -1.
         25    2    1    2    0    0 -0.32340675800E+02  0.52151607955E+02  0.31028449720E+03  0.34009490314E+03  0.12498945722E+03 0.  0.
          2    1    1    2  501    0  0.35849532251E+02  0.14424396028E+02 -0.26679214612E+03  0.26957615139E+03  0.00000000000E+00 0. -1.
          1    1    1    2  502    0 -0.35088564512E+01 -0.66576003983E+02  0.60010850410E+03  0.60380037519E+03  0.00000000000E+00 0. -1.
         22    1    3    3    0    0  0.26648219418E+01 -0.10745197881E+02 -0.80727046045E+01  0.13701427411E+02  0.00000000000E+00 0.  1.
         22    1    3    3    0    0 -0.35005497742E+02  0.62896805836E+02  0.31835720181E+03  0.32639347573E+03  0.00000000000E+00 0.  1.
</event>
<event>
 7    1  0.7118985E-006  0.1014583E+03  0.7818608E-02  0.1470162E+00
          2   -1    0    0  502    0  0.00000000000E+00  0.00000000000E+00  0.76974149468E+03  0.76974149468E+03  0.00000000000E+00 0. -1.
          1   -1    0    0  501    0 -0.00000000000E+00 -0.00000000000E+00 -0.14738643556E+04  0.14738643556E+04  0.00000000000E+00 0. -1.
         25    2    1    2    0    0  0.80104165098E+02 -0.70018656795E+02 -0.41782694987E+03  0.44891473215E+03  0.12500314852E+03 0.  0.
          2    1    1    2  501    0  0.76234533319E+01  0.19098228009E+02 -0.10369805320E+04  0.10371844017E+04  0.00000000000E+00 0. -1.
          1    1    1    2  502    0 -0.87727618429E+02  0.50920428785E+02  0.75068462102E+03  0.75750671637E+03  0.00000000000E+00 0. -1.
         22    1    3    3    0    0  0.45410226521E+02 -0.41584282730E+02 -0.52712995607E+02  0.81055543603E+02  0.00000000000E+00 0.  1.
         22    1    3    3    0    0  0.34693938576E+02 -0.28434374065E+02 -0.36511395426E+03  0.36785918855E+03  0.00000000000E+00 0.  1.
</event>
<event>
 7    1  0.7118985E-006  0.4853978E+02  0.7818608E-02  0.1493284E+00
          2   -1    0    0  502    0  0.00000000000E+00  0.00000000000E+00  0.49720091098E+03  0.49720091098E+03  0.00000000000E+00 0. -1.
          1   -1    0    0  501    0 -0.00000000000E+00 -0.00000000000E+00 -0.35711892770E+03  0.35711892770E+03  0.00000000000E+00 0. -1.
         25    2    1    2    0    0 -0.35522291113E+02  0.76928810133E+02  0.34116508103E+03  0.37309417117E+03  0.12500309218E+03 0.  0.
          2    1    1    2  501    0  0.17976995991E+02 -0.44900283386E+02 -0.33701796678E+03  0.34047072967E+03  0.00000000000E+00 0. -1.
          1    1    1    2  502    0  0.17545295122E+02 -0.32028526747E+02  0.13593486903E+03  0.14075493784E+03  0.00000000000E+00 0. -1.
         22    1    3    3    0    0 -0.66909344047E+01 -0.21250619995E+02  0.18534830512E+03  0.18668248891E+03  0.00000000000E+00 0.  1.
         22    1    3    3    0    0 -0.28831356709E+02  0.98179430129E+02  0.15581677590E+03  0.18641168226E+03  0.00000000000E+00 0.  1.
</event>
<event>
 7    1  0.7118985E-006  0.4592147E+03  0.7818608E-02  0.1155827E+00
          2   -1    0    0  502    0  0.00000000000E+00  0.00000000000E+00  0.11848830652E+04  0.11848830652E+04  0.00000000000E+00 0. -1.
          1   -1    0    0  501    0 -0.00000000000E+00 -0.00000000000E+00 -0.13151553308E+04  0.13151553308E+04  0.00000000000E+00 0. -1.
         25    2    1    2    0    0 -0.21928600524E+03 -0.42432606543E+03  0.16412661342E+03  0.52029003324E+03  0.12500084623E+03 0.  0.
          2    1    1    2  501    0 -0.53610494834E+02  0.60816927294E+02 -0.10741383873E+04  0.10771936032E+04  0.00000000000E+00 0. -1.
          1    1    1    2  502    0  0.27289650008E+03  0.36350913814E+03  0.77973950822E+03  0.90255475952E+03  0.00000000000E+00 0. -1.
         22    1    3    3    0    0 -0.20087917785E+03 -0.26955553387E+03  0.13195158894E+03  0.36114242587E+03  0.00000000000E+00 0. -1.
         22    1    3    3    0    0 -0.18406827392E+02 -0.15477053156E+03  0.32175024475E+02  0.15914760738E+03  0.00000000000E+00 0. -1.
</event>
<event>
 7    1  0.7118985E-006  0.1249534E+03  0.7818608E-02  0.1285860E+00
          2   -1    0    0  502    0  0.00000000000E+00  0.00000000000E+00  0.18772587998E+03  0.18772587998E+03  0.00000000000E+00 0. -1.
          1   -1    0    0  501    0 -0.00000000000E+00 -0.00000000000E+00 -0.11324334422E+04  0.11324334422E+04  0.00000000000E+00 0. -1.
         25    2    1    2    0    0  0.71008332077E+02  0.15378810448E+01 -0.74242748060E+02  0.16180417538E+03  0.12499622885E+03 0.  0.
          2    1    1    2  501    0  0.66209589101E+02 -0.37155872208E+02 -0.97767304290E+03  0.98061656490E+03  0.00000000000E+00 0. -1.
          1    1    1    2  502    0 -0.13721792118E+03  0.35617991164E+02  0.10720822875E+03  0.17773858191E+03  0.00000000000E+00 0. -1.
         22    1    3    3    0    0 -0.16246568964E+02  0.23113618530E+02  0.17609165452E+02  0.33290735537E+02  0.00000000000E+00 0. -1.
         22    1    3    3    0    0  0.87254901041E+02 -0.21575737485E+02 -0.91851913512E+02  0.12851343984E+03  0.00000000000E+00 0. -1.
</event>
<event>
 7    1  0.7118985E-006  0.8669800E+02  0.7818608E-02  0.1393498E+00
          2   -1    0    0  502    0  0.00000000000E+00  0.00000000000E+00  0.80285499716E+03  0.80285499716E+03  0.00000000000E+00 0. -1.
          1   -1    0    0  501    0 -0.00000000000E+00 -0.00000000000E+00 -0.39296369664E+03  0.39296369664E+03  0.00000000000E+00 0. -1.
         25    2    1    2    0    0 -0.11490171046E+03  0.14603604637E+02 -0.16058675037E+03  0.23415579599E+03  0.12500065626E+03 0.  0.
          2    1    1    2  501    0  0.30019493386E+02 -0.30762165561E+02 -0.19075703260E+03  0.19553957732E+03  0.00000000000E+00 0. -1.
          1    1    1    2  502    0  0.84882217077E+02  0.16158560924E+02  0.76123508349E+03  0.76612332050E+03  0.00000000000E+00 0. -1.
         22    1    3    3    0    0 -0.99429698637E+02  0.63898489953E+02 -0.10283546717E+03  0.15666657365E+03  0.00000000000E+00 0. -1.
         22    1    3    3    0    0 -0.15472011826E+02 -0.49294885316E+02 -0.57751283199E+02  0.77489222344E+02  0.00000000000E+00 0. -1.
</event>
<event>
 7    1  0.7118985E-006  0.3648927E+02  0.7818608E-02  0.1572651E+00
          2   -1    0    0  502    0  0.00000000000E+00  0.00000000000E+00  0.81308078818E+03  0.81308078818E+03  0.00000000000E+00 0. -1.
          1   -1    0    0  501    0 -0.00000000000E+00 -0.00000000000E+00 -0.14948598287E+02  0.14948598287E+02  0.00000000000E+00 0. -1.
         25    2    1    2    0    0  0.16469279072E+02 -0.12334737869E+02  0.42725330959E+03  0.44563776581E+03  0.12499697937E+03 0.  0.
          2    1    1    2  501    0 -0.40144908099E+02 -0.41131408769E+01  0.75491283843E+02  0.85600616297E+02  0.00000000000E+00 0. -1.
          1    1    1    2  502    0  0.23675629027E+02  0.16447878745E+02  0.29538759647E+03  0.29679100437E+03  0.00000000000E+00 0. -1.
         22    1    3    3    0    0 -0.36996472099E+02 -0.32551876398E+02  0.32304562276E+03  0.32678255460E+03  0.00000000000E+00 0. -1.
         22    1    3    3    0    0  0.53465751171E+02  0.20217138530E+02  0.10420768682E+03  0.11885521121E+03  0.00000000000E+00 0. -1.
</event>
<event>
 7    1  0.7118985E-006  0.3146706E+02  0.7818608E-02  0.1583668E+00
          2   -1    0    0  502    0  0.00000000000E+00  0.00000000000E+00  0.16395893419E+04  0.16395893419E+04  0.00000000000E+00 0. -1.
          1   -1    0    0  501    0 -0.00000000000E+00 -0.00000000000E+00 -0.60179265324E+03  0.60179265324E+03  0.00000000000E+00 0. -1.
         25    2    1    2    0    0 -0.37231548755E+01 -0.31206075016E+02  0.12509854857E+03  0.17961603442E+03  0.12499836785E+03 0.  0.
          2    1    1    2  501    0  0.28806910135E+02  0.12050102313E+02 -0.57394201345E+03  0.57479081225E+03  0.00000000000E+00 0. -1.
          1    1    1    2  502    0 -0.25083755259E+02  0.19155972703E+02  0.14866401535E+04  0.14869751484E+04  0.00000000000E+00 0. -1.
         22    1    3    3    0    0  0.78298194016E+01  0.45736810393E+02  0.71123718415E+02  0.84921994901E+02  0.00000000000E+00 0.  1.
         22    1    3    3    0    0 -0.11552974277E+02 -0.76942885409E+02  0.53974830159E+02  0.94694039519E+02  0.00000000000E+00 0.  1.
</event>
<event>
 7    1  0.7118985E-006  0.6682049E+02  0.7818608E-02  0.1528077E+00
          2   -1    0    0  502    0  0.00000000000E+00  0.00000000000E+00  0.18474862032E+04  0.18474862032E+04  0.00000000000E+00 0. -1.
          1   -1    0    0  501    0 -0.00000000000E+00 -0.00000000000E+00 -0.50271235426E+03  0.50271235426E+03  0.00000000000E+00 0. -1.
         25    2    1    2    0    0  0.76663348869E+02  0.21632743246E+02  0.12484909380E+04  0.12572590310E+04  0.12500161626E+03 0.  0.
          2    1    1    2  501    0 -0.58545156428E+02 -0.32169314504E+02 -0.49590339591E+03  0.50038243196E+03  0.00000000000E+00 0. -1.
          1    1    1    2  502    0 -0.18118192440E+02  0.10536571258E+02  0.59218630682E+03  0.59255709448E+03  0.00000000000E+00 0. -1.
         22    1    3    3    0    0  0.41210158388E+02  0.16555450745E+02  0.11715428224E+04  0.11723842991E+04  0.00000000000E+00 0. -1.
         22    1    3    3    0    0  0.35453190481E+02  0.50772925006E+01  0.76948115647E+02  0.84874731905E+02  0.00000000000E+00 0. -1.
</event>
<event>
 7    1  0.7118985E-006  0.2320417E+03  0.7818608E-02  0.1291278E+00
          2   -1    0    0  502    0  0.00000000000E+00  0.00000000000E+00  0.14908547753E+04  0.14908547753E+04  0.00000000000E+00 0. -1.
          1   -1    0    0  501    0 -0.00000000000E+00 -0.00000000000E+00 -0.74109435797E+03  0.74109435797E+03  0.00000000000E+00 0. -1.
         25    2    1    2    0    0  0.45426150960E+02 -0.26405167685E+03 -0.45583563129E+02  0.29914984536E+03  0.12500378198E+03 0.  0.
          2    1    1    2  501    0  0.13728716087E+01  0.38832631342E+02 -0.55834986990E+03  0.55970030843E+03  0.00000000000E+00 0. -1.
          1    1    1    2  502    0 -0.46799022569E+02  0.22521904551E+03  0.13536938504E+04  0.13730989795E+04  0.00000000000E+00 0. -1.
         22    1    3    3    0    0  0.52668993900E+02 -0.27137338018E+03 -0.58571523757E+02  0.28257416333E+03  0.00000000000E+00 0. -1.
         22    1    3    3    0    0 -0.72428429400E+01  0.73217033217E+01  0.12987960628E+02  0.16575682027E+02  0.00000000000E+00 0. -1.
</event>
<event>
 7    1  0.7118985E-006  0.1630348E+03  0.7818608E-02  0.1336157E+00
          2   -1    0    0  502    0  0.00000000000E+00  0.00000000000E+00  0.16421191838E+04  0.16421191838E+04  0.00000000000E+00 0. -1.
          1   -1    0    0  501    0 -0.00000000000E+00 -0.00000000000E+00 -0.60342840240E+02  0.60342840240E+02  0.00000000000E+00 0. -1.
         25    2    1    2    0    0 -0.13297138770E+03 -0.27338454535E+01  0.73180676832E+03  0.75422500767E+03  0.12500140866E+03 0.  0.
          2    1    1    2  501    0  0.16853061282E+03  0.12538072323E+02  0.97984295564E+02  0.19534762065E+03  0.00000000000E+00 0. -1.
          1    1    1    2  502    0 -0.35559225118E+02 -0.98042268698E+01  0.75198527970E+03  0.75288939576E+03  0.00000000000E+00 0. -1.
         22    1    3    3    0    0 -0.13343570118E+03 -0.22171815919E+02  0.40806038864E+03  0.42989528556E+03  0.00000000000E+00 0. -1.
         22    1    3    3    0    0  0.46431347783E+00  0.19437970466E+02  0.32374637969E+03  0.32432972211E+03  0.00000000000E+00 0. -1.
</event>
<event>
 7    1  0.7118985E-006  0.6554408E+02  0.7818608E-02  0.1393027E+00
          2   -1    0    0  502    0  0.00000000000E+00  0.00000000000E+00  0.30473426478E+03  0.30473426478E+03  0.00000000000E+00 0. -1.
          1   -1    0    0  501    0 -0.00000000000E+00 -0.00000000000E+00 -0.78899511080E+03  0.78899511080E+03  0.00000000000E+00 0. -1.
         25    2    1    2    0    0  0.63975432910E+02  0.11314505185E+02 -0.18063080099E+03  0.22906451107E+03  0.12498875919E+03 0.  0.
          2    1    1    2  501    0 -0.32623598530E+02 -0.59000778116E+02 -0.57926939120E+03  0.58317957661E+03  0.00000000000E+00 0. -1.
          1    1    1    2  502    0 -0.31351834381E+02  0.47686272932E+02  0.27563934616E+03  0.28148528789E+03  0.00000000000E+00 0. -1.
         22    1    3    3    0    0  0.55869979532E+02 -0.44158277004E+02 -0.50296860062E+02  0.87184758834E+02  0.00000000000E+00 0.  1.
         22    1    3    3    0    0  0.81054533783E+01  0.55472782189E+02 -0.13033394093E+03  0.14187975224E+03  0.00000000000E+00 0.  1.
</event>
<event>
 7    1  0.1185426E-005  0.5223415E+02  0.7818608E-02  0.1442189E+00
          2   -1    0    0  502    0  0.00000000000E+00  0.00000000000E+00  0.21235628578E+04  0.21235628578E+04  0.00000000000E+00 0. -1.
          1   -1    0    0  501    0 -0.00000000000E+00 -0.00000000000E+00 -0.80385999119E+03  0.80385999119E+03  0.00000000000E+00 0. -1.
         25    2    1    2    0    0  0.51446654037E+02  0.45070782272E+02 -0.13939542095E+03  0.19933413021E+03  0.12499951384E+03 0.  0.
          2    1    1    2  501    0 -0.29830702977E+01 -0.52275752763E+02 -0.63312766546E+03  0.63528914189E+03  0.00000000000E+00 0. -1.
          1    1    1    2  502    0 -0.48463583740E+02  0.72049704913E+01  0.20922259530E+04  0.20927995769E+04  0.00000000000E+00 0. -1.
         22    1    3    3    0    0  0.85809363467E+02  0.11833766596E+02 -0.55813262999E+02  0.10304564628E+03  0.00000000000E+00 0.  1.
         22    1    3    3    0    0 -0.34362709430E+02  0.33237015676E+02 -0.83582157953E+02  0.96288483935E+02  0.00000000000E+00 0.  1.
</event>
<event>
 7    1  0.7118985E-006  0.8155216E+02  0.7818608E-02  0.1355385E+00
          2   -1    0    0  502    0  0.00000000000E+00  0.00000000000E+00  0.11201924171E+04  0.11201924171E+04  0.00000000000E+00 0. -1.
          1   -1    0    0  501    0 -0.00000000000E+00 -0.00000000000E+00 -0.16631202359E+04  0.16631202359E+04  0.00000000000E+00 0. -1.
         25    2    1    2    0    0 -0.49238492662E+02  0.49706487134E+00 -0.21781619022E+03  0.25591586697E+03  0.12499744802E+03 0.  0.
          2    1    1    2  501    0  0.57130273229E+02 -0.62514320401E+02 -0.14241079302E+04  0.14266237434E+04  0.00000000000E+00 0. -1.
          1    1    1    2  502    0 -0.78917805666E+01  0.62017255530E+02  0.10989963017E+04  0.11007730426E+04  0.00000000000E+00 0. -1.
         22    1    3    3    0    0 -0.26765772324E+02  0.14162154849E+02 -0.22627158495E+03  0.22828885946E+03  0.00000000000E+00 0. -1.
         22    1    3    3    0    0 -0.22472720339E+02 -0.13665089977E+02  0.84553947356E+01  0.27627007504E+02  0.00000000000E+00 0. -1.
</event>
<event>
 7    1  0.7118985E-006  0.1037630E+03  0.7818608E-02  0.1348988E+00
          2   -1    0    0  502    0  0.00000000000E+00  0.00000000000E+00  0.17985470946E+04  0.17985470946E+04  0.00000000000E+00 0. -1.
          1   -1    0    0  501    0 -0.00000000000E+00 -0.00000000000E+00 -0.24463201799E+03  0.24463201799E+03  0.00000000000E+00 0. -1.
         25    2    1    2    0    0  0.96663192070E+02 -0.11778255488E+03  0.19443663556E+03  0.27685174752E+03  0.12499912768E+03 0.  0.
          2    1    1    2  501    0 -0.39746152468E+02  0.33346752921E+02 -0.19842699601E+03  0.20509762386E+03  0.00000000000E+00 0. -1.
          1    1    1    2  502    0 -0.56917039603E+02  0.84435801959E+02  0.15579054370E+04  0.15612297412E+04  0.00000000000E+00 0. -1.
         22    1    3    3    0    0  0.10818465957E+03 -0.54980353779E+02  0.16914469274E+03  0.20817465492E+03  0.00000000000E+00 0.  1.
         22    1    3    3    0    0 -0.11521467501E+02 -0.62802201101E+02  0.25291942827E+02  0.68677092604E+02  0.00000000000E+00 0.  1.
</event>
<event>
 7    1  0.7118985E-006  0.1223633E+03  0.7818608E-02  0.1313557E+00
          2   -1    0    0  502    0  0.00000000000E+00  0.00000000000E+00  0.22210894503E+04  0.22210894503E+04  0.00000000000E+00 0. -1.
          1   -1    0    0  501    0 -0.00000000000E+00 -0.00000000000E+00 -0.49168472399E+03  0.49168472399E+03  0.00000000000E+00 0. -1.
         25    2    1    2    0    0  0.74086313510E+02  0.15766870729E+02  0.54852889074E+03  0.56766023380E+03  0.12496727971E+03 0.  0.
          2    1    1    2  501    0 -0.10197564990E+03 -0.68949573914E+02 -0.47370792276E+03  0.48944077578E+03  0.00000000000E+00 0. -1.
          1    1    1    2  502    0  0.27889336390E+02  0.53182703184E+02  0.16545837583E+04  0.16556731647E+04  0.00000000000E+00 0. -1.
         22    1    3    3    0    0  0.63880856023E+02  0.45035847762E+01  0.54873554112E+03  0.55245971810E+03  0.00000000000E+00 0.  1.
         22    1    3    3    0    0  0.10205457486E+02  0.11263285953E+02 -0.20665037775E+00  0.15200515694E+02  0.00000000000E+00 0.  1.
</event>
<event>
 7    1  0.7118985E-006  0.4041177E+02  0.7818608E-02  0.1556087E+00
          2   -1    0    0  502    0  0.00000000000E+00  0.00000000000E+00  0.18141509326E+04  0.18141509326E+04  0.00000000000E+00 0. -1.
          1   -1    0    0  501    0 -0.00000000000E+00 -0.00000000000E+00 -0.96445820979E+02  0.96445820979E+02  0.00000000000E+00 0. -1.
         25    2    1    2    0    0  0.85280309202E+01  0.21993533524E+02  0.21226447396E+03  0.24746367081E+03  0.12500247452E+03 0.  0.
          2    1    1    2  501    0 -0.24335541837E+02  0.15577388539E+02 -0.75927601251E+02  0.81239610178E+02  0.00000000000E+00 0. -1.
          1    1    1    2  502    0  0.15807510917E+02 -0.37570922063E+02  0.15813682389E+04  0.15818934726E+04  0.00000000000E+00 0. -1.
         22    1    3    3    0    0  0.52557139380E+02 -0.21764948489E+02  0.14587406222E+03  0.15657333078E+03  0.00000000000E+00 0. -1.
         22    1    3    3    0    0 -0.44029108460E+02  0.43758482014E+02  0.66390411741E+02  0.90890340032E+02  0.00000000000E+00 0. -1.
</event>
<event>
 7    1  0.7118985E-006  0.1227263E+03  0.7818608E-02  0.1268802E+00
          2   -1    0    0  502    0  0.00000000000E+00  0.00000000000E+00  0.92970324372E+03  0.92970324372E+03  0.00000000000E+00 0. -1.
          1   -1    0    0  501    0 -0.00000000000E+00 -0.00000000000E+00 -0.11792430726E+04  0.11792430726E+04  0.00000000000E+00 0. -1.
         25    2    1    2    0    0 -0.11812582868E+03 -0.47428555760E+02  0.25389976895E+03  0.31031077468E+03  0.12499801959E+03 0.  0.
          2    1    1    2  501    0 -0.19812172698E+01  0.90965027151E+02 -0.11429113007E+04  0.11465272795E+04  0.00000000000E+00 0. -1.
          1    1    1    2  502    0  0.12010704595E+03 -0.43536471391E+02  0.63947170285E+03  0.65210826216E+03  0.00000000000E+00 0. -1.
         22    1    3    3    0    0 -0.10469150681E+03 -0.22020425401E+02  0.25980478387E+03  0.28096928027E+03  0.00000000000E+00 0.  1.
         22    1    3    3    0    0 -0.13434321872E+02 -0.25408130359E+02 -0.59050149214E+01  0.29341494402E+02  0.00000000000E+00 0.  1.
</event>
<event>
 7    1  0.7118985E-006  0.6487170E+02  0.7818608E-02  0.1471955E+00
          2   -1    0    0  502    0  0.00000000000E+00  0.00000000000E+00  0.81456644795E+03  0.81456644795E+03  0.00000000000E+00 0. -1.
          1   -1    0    0  501    0 -0.00000000000E+00 -0.00000000000E+00 -0.55515682823E+02  0.55515682823E+02  0.00000000000E+00 0. -1.
         25    2    1    2    0    0 -0.47314966117E+02 -0.36857579638E+02  0.18411626936E+03  0.23047791853E+03  0.12499633230E+03 0.  0.
          2    1    1    2  501    0  0.65834934570E+02  0.11067011843E+02  0.30387850849E+01  0.66827775481E+02  0.00000000000E+00 0. -1.
          1    1    1    2  502    0 -0.18519968453E+02  0.25790567795E+02  0.57189571068E+03  0.57277643677E+03  0.00000000000E+00 0. -1.
         22    1    3    3    0    0 -0.62367963082E+02 -0.68750267369E+02  0.87255102275E+02  0.12739629098E+03  0.00000000000E+00 0. -1.
         22    1    3    3    0    0  0.15052996965E+02  0.31892687732E+02  0.96861167087E+02  0.10308162755E+03  0.00000000000E+00 0. -1.
</event>
<event>
 7    1  0.7118985E-006  0.7033808E+02  0.7818608E-02  0.1488981E+00
          2   -1    0    0  502    0  0.00000000000E+00  0.00000000000E+00  0.54838231926E+03  0.54838231926E+03  0.00000000000E+00 0. -1.
          1   -1    0    0  501    0 -0.00000000000E+00 -0.00000000000E+00 -0.38520918111E+03  0.38520918111E+03  0.00000000000E+00 0. -1.
         25    2    1    2    0    0 -0.89776126350E+02  0.98823823803E+01  0.24209799305E+02  0.15610497173E+03  0.12500093389E+03 0.  0.
          2    1    1    2  501    0  0.20443024702E+02 -0.16012288667E+02 -0.31608291923E+03  0.31714779280E+03  0.00000000000E+00 0. -1.
          1    1    1    2  502    0  0.69333101648E+02  0.61299062862E+01  0.45504625807E+03  0.46033873585E+03  0.00000000000E+00 0. -1.
         22    1    3    3    0    0 -0.48259424997E+02  0.51566894540E+02 -0.29408728151E+02  0.76504836481E+02  0.00000000000E+00 0. -1.
         22    1    3    3    0    0 -0.41516701353E+02 -0.41684512160E+02  0.53618527456E+02  0.79600135250E+02  0.00000000000E+00 0. -1.
</event>
<event>
 7    1  0.7118985E-006  0.1135398E+03  0.7818608E-02  0.1342265E+00
          2   -1    0    0  502    0  0.00000000000E+00  0.00000000000E+00  0.70878878096E+03  0.70878878096E+03  0.00000000000E+00 0. -1.
          1   -1    0    0  501    0 -0.00000000000E+00 -0.00000000000E+00 -0.88135964383E+03  0.88135964383E+03  0.00000000000E+00 0. -1.
         25    2    1    2    0    0  0.11736759134E+03  0.49279665157E+02  0.42045299696E+03  0.45673709647E+03  0.12499766295E+03 0.  0.
          2    1    1    2  501    0 -0.85672284690E+01 -0.49497000184E+02 -0.85149443924E+03  0.85297487096E+03  0.00000000000E+00 0. -1.
          1    1    1    2  502    0 -0.10880036287E+03  0.21733502667E+00  0.25847057941E+03  0.28043645736E+03  0.00000000000E+00 0. -1.
         22    1    3    3    0    0  0.14383347331E+03  0.44945448959E+02  0.33903773847E+03  0.37101852990E+03  0.00000000000E+00 0. -1.
         22    1    3    3    0    0 -0.26465881971E+02  0.43342161978E+01  0.81415258497E+02  0.85718566569E+02  0.00000000000E+00 0. -1.
</event>
<event>
 7    1  0.7118985E-006  0.9755673E+02  0.7818608E-02  0.1381925E+00
          2   -1    0    0  502    0  0.00000000000E+00  0.00000000000E+00  0.72990067296E+03  0.72990067296E+03  0.00000000000E+00 0. -1.
          1   -1    0    0  501    0 -0.00000000000E+00 -0.00000000000E+00 -0.13522908805E+03  0.13522908805E+03  0.00000000000E+00 0. -1.
         25    2    1    2    0    0  0.51089029858E+02  0.28439458300E+02 -0.65421846071E+01  0.13815125960E+03  0.12499631430E+03 0.  0.
          2    1    1    2  501    0  0.30318813735E+02  0.28969593754E+02 -0.51666552005E+02  0.66542470834E+02  0.00000000000E+00 0. -1.
          1    1    1    2  502    0 -0.81407843593E+02 -0.57409052055E+02  0.65288032152E+03  0.66043603058E+03  0.00000000000E+00 0. -1.
         22    1    3    3    0    0  0.64507081965E+02  0.61448584601E+02 -0.31668006786E+02  0.94551334348E+02  0.00000000000E+00 0. -1.
         22    1    3    3    0    0 -0.13418052107E+02 -0.33009126301E+02  0.25125822179E+02  0.43599925248E+02  0.00000000000E+00 0. -1.
</event>
<event>
 7    1  0.7118985E-006  0.2930640E+02  0.7818608E-02  0.1634416E+00
          2   -1    0    0  502    0  0.00000000000E+00  0.00000000000E+00  0.69586598998E+03  0.69586598998E+03  0.00000000000E+00 0. -1.
          1   -1    0    0  501    0 -0.00000000000E+00 -0.00000000000E+00 -0.16484962968E+03  0.16484962968E+03  0.00000000000E+00 0. -1.
         25    2    1    2    0    0 -0.41901660380E+01 -0.10017891514E+02  0.55574996203E+03  0.56973706021E+03  0.12499752735E+03 0.  0.
          2    1    1    2  501    0 -0.99805993142E+01 -0.22693850116E+02 -0.15446312591E+03  0.15644002194E+03  0.00000000000E+00 0. -1.
          1    1    1    2  502    0  0.14170765352E+02  0.32711741630E+02  0.12972952418E+03  0.13453853751E+03  0.00000000000E+00 0. -1.
         22    1    3    3    0    0  0.52807108427E+02 -0.34396045517E+02  0.25590230325E+03  0.26354822606E+03  0.00000000000E+00 0. -1.
         22    1    3    3    0    0 -0.56997274465E+02  0.24378154002E+02  0.29984765877E+03  0.30618883416E+03  0.00000000000E+00 0. -1.
</event>
<event>
 7    1  0.7118985E-006  0.8931142E+02  0.7818608E-02  0.1460306E+00
          2   -1    0    0  502    0  0.00000000000E+00  0.00000000000E+00  0.28988182264E+04  0.28988182264E+04  0.00000000000E+00 0. -1.
          1   -1    0    0  501    0 -0.00000000000E+00 -0.00000000000E+00 -0.69246883928E+03  0.69246883928E+03  0.00000000000E+00 0. -1.
         25    2    1    2    0    0  0.72873117451E+02  0.53282628961E+01  0.14184708387E+03  0.20269344988E+03  0.12500063115E+03 0.  0.
          2    1    1    2  501    0  0.12743681552E+02  0.21602157675E+02 -0.66106916887E+03  0.66154478356E+03  0.00000000000E+00 0. -1.
          1    1    1    2  502    0 -0.85616799003E+02 -0.26930420571E+02  0.27255714721E+04  0.27270488322E+04  0.00000000000E+00 0. -1.
         22    1    3    3    0    0  0.40049413950E+02 -0.59111006481E+02  0.58171603201E+02  0.92097785337E+02  0.00000000000E+00 0. -1.
         22    1    3    3    0    0  0.32823703500E+02  0.64439269377E+02  0.83675480671E+02  0.11059566454E+03  0.00000000000E+00 0. -1.
</event>
<event>
 7    1  0.7118985E-006  0.5610387E+02  0.7818608E-02  0.1455493E+00
          2   -1    0    0  502    0  0.00000000000E+00  0.00000000000E+00  0.16189780701E+04  0.16189780701E+04  0.00000000000E+00 0. -1.
          1   -1    0    0  501    0 -0.00000000000E+00 -0.00000000000E+00 -0.11145383568E+03  0.11145383568E+03  0.00000000000E+00 0. -1.
         25    2    1    2    0    0 -0.61461561790E+02  0.73650869972E+01  0.26634624500E+03  0.30066105095E+03  0.12499990900E+03 0.  0.
          2    1    1    2  501    0  0.46858369824E+02  0.31321568898E+02 -0.85523192860E+02  0.10242540709E+03  0.00000000000E+00 0. -1.
          1    1    1    2  502    0  0.14603191966E+02 -0.38686655895E+02  0.13267011823E+04  0.13273454477E+04  0.00000000000E+00 0. -1.
         22    1    3    3    0    0 -0.43200270467E+02 -0.16470244712E+01  0.11140330585E+02  0.44643958422E+02  0.00000000000E+00 0. -1.
         22    1    3    3    0    0 -0.18261291323E+02  0.90121114684E+01  0.25520591442E+03  0.25601709253E+03  0.00000000000E+00 0. -1.
</event>
<event>
 7    1  0.7118985E-006  0.8063430E+02  0.7818608E-02  0.1416519E+00
          2   -1    0    0  502    0  0.00000000000E+00  0.00000000000E+00  0.16130921931E+04  0.16130921931E+04  0.00000000000E+00 0. -1.
          1   -1    0    0  501    0 -0.00000000000E+00 -0.00000000000E+00 -0.52346503227E+02  0.52346503227E+02  0.00000000000E+00 0. -1.
         25    2    1    2    0    0  0.43180984806E+02 -0.56054302124E+02  0.17356172608E+03  0.22528978786E+03  0.12500053408E+03 0.  0.
          2    1    1    2  501    0 -0.17079861526E+02  0.84443916629E+02  0.44604642937E+02  0.97015828074E+02  0.00000000000E+00 0. -1.
          1    1    1    2  502    0 -0.26101123280E+02 -0.28389614504E+02  0.13425793208E+04  0.13431330804E+04  0.00000000000E+00 0. -1.
         22    1    3    3    0    0  0.44469630344E+02 -0.51750933699E+02  0.19227340714E+02  0.70890040151E+02  0.00000000000E+00 0. -1.
         22    1    3    3    0    0 -0.12886455383E+01 -0.43033684258E+01  0.15433438536E+03  0.15439974771E+03  0.00000000000E+00 0. -1.
</event>
<event>
 7    1  0.7118985E-006  0.1573573E+03  0.7818608E-02  0.1205470E+00
          2   -1    0    0  502    0  0.00000000000E+00  0.00000000000E+00  0.20376557153E+04  0.20376557153E+04  0.00000000000E+00 0. -1.
          1   -1    0    0  501    0 -0.00000000000E+00 -0.00000000000E+00 -0.15898278921E+04  0.15898278921E+04  0.00000000000E+00 0. -1.
         25    2    1    2    0    0 -0.73552173436E+02 -0.24748764268E+03  0.49008904065E+03  0.56786568278E+03  0.12499644164E+03 0.  0.
          2    1    1    2  501    0 -0.25203203471E+02  0.15475253505E+03 -0.15439199112E+04  0.15518608961E+04  0.00000000000E+00 0. -1.
          1    1    1    2  502    0  0.98755376907E+02  0.92735107623E+02  0.15016586937E+04  0.15077570285E+04  0.00000000000E+00 0. -1.
         22    1    3    3    0    0 -0.10786381470E+03 -0.16832347485E+03  0.35948833235E+03  0.41133837142E+03  0.00000000000E+00 0.  1.
         22    1    3    3    0    0  0.34311641266E+02 -0.79164167828E+02  0.13060070830E+03  0.15652731137E+03  0.00000000000E+00 0.  1.
</event>
<event>
 7    1  0.7118985E-006  0.6447781E+02  0.7818608E-02  0.1458817E+00
          2   -1    0    0  502    0  0.00000000000E+00  0.00000000000E+00  0.48204453786E+03  0.48204453786E+03  0.00000000000E+00 0. -1.
          1   -1    0    0  501    0 -0.00000000000E+00 -0.00000000000E+00 -0.84601396956E+02  0.84601396956E+02  0.00000000000E+00 0. -1.
         25    2    1    2    0    0  0.61662877759E+02 -0.70456488473E+02  0.98784546275E+02  0.18479913440E+03  0.12500362488E+03 0.  0.
          2    1    1    2  501    0 -0.45306374923E+02  0.39379064179E+02 -0.18449950487E+02  0.62799514149E+02  0.00000000000E+00 0. -1.
          1    1    1    2  502    0 -0.16356502836E+02  0.31077424293E+02  0.31710854512E+03  0.31904728626E+03  0.00000000000E+00 0. -1.
         22    1    3    3    0    0  0.72946119373E+02 -0.84297299941E+02  0.32451598939E+02  0.11610459673E+03  0.00000000000E+00 0. -1.
         22    1    3    3    0    0 -0.11283241614E+02  0.13840811469E+02  0.66332947337E+02  0.68694537671E+02  0.00000000000E+00 0. -1.
</event>
<event>
 7    1  0.7118985E-006  0.1536111E+03  0.7818608E-02  0.1246489E+00
          2   -1    0    0  502    0  0.00000000000E+00  0.00000000000E+00  0.17546146714E+04  0.17546146714E+04  0.00000000000E+00 0. -1.
          1   -1    0    0  501    0 -0.00000000000E+00 -0.00000000000E+00 -0.15543128594E+03  0.15543128594E+03  0.00000000000E+00 0. -1.
         25    2    1    2    0    0  0.19943207761E+03 -0.10575258328E+03  0.53555085945E+03  0.59447201120E+03  0.12500194639E+03 0.  0.
          2    1    1    2  501    0 -0.14461838050E+03  0.33622463481E+02 -0.79797707769E+02  0.16856043484E+03  0.00000000000E+00 0. -1.
          1    1    1    2  502    0 -0.54813697106E+02  0.72130119795E+02  0.11434302338E+04  0.11470135113E+04  0.00000000000E+00 0. -1.
         22    1    3    3    0    0  0.13815795631E+03 -0.36481103077E+02  0.19604103867E+03  0.24259138611E+03  0.00000000000E+00 0. -1.
         22    1    3    3    0    0  0.61274121296E+02 -0.69271480198E+02  0.33950982078E+03  0.35188062509E+03  0.00000000000E+00 0. -1.
</event>
<event>
 7    1  0.7118985E-006  0.1140908E+03  0.7818608E-02  0.1426998E+00
          2   -1    0    0  502    0  0.00000000000E+00  0.00000000000E+00  0.70328508905E+03  0.70328508905E+03  0.00000000000E+00 0. -1.
          1   -1    0    0  501    0 -0.00000000000E+00 -0.00000000000E+00 -0.95659627807E+03  0.95659627807E+03  0.00000000000E+00 0. -1.
         25    2    1    2    0    0  0.12705104540E+03 -0.18993235088E+02  0.13572029254E+03  0.22482782377E+03  0.12499936568E+03 0.  0.
          2    1    1    2  501    0 -0.20041085574E+02 -0.15195700970E+02 -0.90583356958E+03  0.90618265831E+03  0.00000000000E+00 0. -1.
          1    1    1    2  502    0 -0.10700995982E+03  0.34188936058E+02  0.51680208803E+03  0.52887088504E+03  0.00000000000E+00 0. -1.
         22    1    3    3    0    0  0.12742297225E+03  0.15677028688E+02  0.60341649257E+02  0.14185731466E+03  0.00000000000E+00 0. -1.
         22    1    3    3    0    0 -0.37192685569E+00 -0.34670263776E+02  0.75378643283E+02  0.82970509117E+02  0.00000000000E+00 0. -1.
</event>
<event>
 7    1  0.7118985E-006  0.7709966E+02  0.7818608E-02  0.1367033E+00
          2   -1    0    0  502    0  0.00000000000E+00  0.00000000000E+00  0.55466820324E+03  0.55466820324E+03  0.00000000000E+00 0. -1.
          1   -1    0    0  501    0 -0.00000000000E+00 -0.00000000000E+00 -0.36790293058E+03  0.36790293058E+03  0.00000000000E+00 0. -1.
         25    2    1    2    0    0 -0.10093316150E+03  0.81353112476E+02  0.24823112284E+02  0.18178924654E+03  0.12500124501E+03 0.  0.
          2    1    1    2  501    0  0.67948170712E+02 -0.31266026153E+02 -0.28253960989E+03  0.29227238914E+03  0.00000000000E+00 0. -1.
          1    1    1    2  502    0  0.32984990787E+02 -0.50087086323E+02  0.44448177027E+03  0.44850949815E+03  0.00000000000E+00 0. -1.
         22    1    3    3    0    0  0.10488944233E+02  0.11232275192E+02 -0.34214394636E+02  0.37507422698E+02  0.00000000000E+00 0. -1.
         22    1    3    3    0    0 -0.11142210573E+03  0.70120837284E+02  0.59037506920E+02  0.14428182384E+03  0.00000000000E+00 0. -1.
</event>
<event>
 7    1  0.7118985E-006  0.3549528E+02  0.7818608E-02  0.1549086E+00
          2   -1    0    0  502    0  0.00000000000E+00  0.00000000000E+00  0.69831725757E+03  0.69831725757E+03  0.00000000000E+00 0. -1.
          1   -1    0    0  501    0 -0.00000000000E+00 -0.00000000000E+00 -0.52256392692E+03  0.52256392692E+03  0.00000000000E+00 0. -1.
         25    2    1    2    0    0 -0.36752033052E+02 -0.33690905142E+02 -0.37166861458E+03  0.39528243010E+03  0.12499940584E+03 0.  0.
          2    1    1    2  501    0  0.12641964060E+01  0.34380879308E+02 -0.13649361704E+03  0.14076274559E+03  0.00000000000E+00 0. -1.
          1    1    1    2  502    0  0.35487836646E+02 -0.68997416620E+00  0.68391556228E+03  0.68483600879E+03  0.00000000000E+00 0. -1.
         22    1    3    3    0    0 -0.67306569526E+02 -0.16885077544E+02 -0.10198746075E+03  0.12335607928E+03  0.00000000000E+00 0.  1.
         22    1    3    3    0    0  0.30554536473E+02 -0.16805827598E+02 -0.26968115383E+03  0.27192635082E+03  0.00000000000E+00 0.  1.
</event>
<event>
 7    1  0.7118985E-006  0.1057398E+03  0.7818608E-02  0.1405414E+00
          2   -1    0    0  502    0  0.00000000000E+00  0.00000000000E+00  0.78635802914E+03  0.78635802914E+03  0.00000000000E+00 0. -1.
          1   -1    0    0  501    0 -0.00000000000E+00 -0.00000000000E+00 -0.76161534130E+02  0.76161534130E+02  0.00000000000E+00 0. -1.
         25    2    1    2    0    0  0.11111421512E+03 -0.57869339233E+02  0.43853258880E+03  0.47289750721E+03  0.12500396661E+03 0.  0.
          2    1    1    2  501    0 -0.18645776839E+02  0.26088444170E+02 -0.46661819440E+02  0.56617994547E+02  0.00000000000E+00 0. -1.
          1    1    1    2  502    0 -0.92468438277E+02  0.31780895062E+02  0.31832572565E+03  0.33300406151E+03  0.00000000000E+00 0. -1.
         22    1    3    3    0    0  0.11047745509E+03 -0.89607881555E+02  0.38763879644E+03  0.41291485445E+03  0.00000000000E+00 0. -1.
         22    1    3    3    0    0  0.63676002098E+00  0.31738542323E+02  0.50893792356E+02  0.59982652762E+02  0.00000000000E+00 0. -1.
</event>
<event>
 7    1  0.7118985E-006  0.4938839E+02  0.7818608E-02  0.1459920E+00
          2   -1    0    0  502    0  0.00000000000E+00  0.00000000000E+00  0.88493960332E+03  0.88493960332E+03  0.00000000000E+00 0. -1.
          1   -1    0    0  501    0 -0.00000000000E+00 -0.00000000000E+00 -0.83379829201E+02  0.83379829201E+02  0.00000000000E+00 0. -1.
         25    2    1    2    0    0  0.29106585210E+00 -0.76114704081E+01  0.43654528307E+02  0.13262068557E+03  0.12499803678E+03 0.  0.
          2    1    1    2  501    0  0.38446530605E+02 -0.24300586136E+02 -0.24516265720E+02  0.51669154115E+02  0.00000000000E+00 0. -1.
          1    1    1    2  502    0 -0.38737596457E+02  0.31912056544E+02  0.78242151153E+03  0.78402959284E+03  0.00000000000E+00 0. -1.
         22    1    3    3    0    0  0.29551160422E+02 -0.37575054374E+02  0.68795674789E+02  0.83773508122E+02  0.00000000000E+00 0.  1.
         22    1    3    3    0    0 -0.29260094570E+02  0.29963583966E+02 -0.25141146482E+02  0.48847177449E+02  0.00000000000E+00 0.  1.
</event>
<event>
 7    1  0.7118985E-006  0.1810416E+03  0.7818608E-02  0.1281424E+00
          2   -1    0    0  502    0  0.00000000000E+00  0.00000000000E+00  0.89919323483E+03  0.89919323483E+03  0.00000000000E+00 0. -1.
          1   -1    0    0  501    0 -0.00000000000E+00 -0.00000000000E+00 -0.96197964525E+03  0.96197964525E+03  0.00000000000E+00 0. -1.
         25    2    1    2    0    0  0.10263478270E+03  0.88190582518E+02 -0.29044010962E+02  0.18649256611E+03  0.12499778069E+03 0.  0.
          2    1    1    2  501    0  0.53143544736E+02  0.12730210874E+02 -0.84281752223E+03  0.84458727814E+03  0.00000000000E+00 0. -1.
          1    1    1    2  502    0 -0.15577832744E+03 -0.10092079339E+03  0.80907512278E+03  0.83009303583E+03  0.00000000000E+00 0. -1.
         22    1    3    3    0    0  0.17056744648E+02 -0.30535325432E+02 -0.18977345289E+02  0.39792942483E+02  0.00000000000E+00 0. -1.
         22    1    3    3    0    0  0.85578038053E+02  0.11872590795E+03 -0.10066665674E+02  0.14669962363E+03  0.00000000000E+00 0. -1.
</event>
<event>
 7    1  0.7118985E-006  0.7513004E+02  0.7818608E-02  0.1363521E+00
          2   -1    0    0  502    0  0.00000000000E+00  0.00000000000E+00  0.18333213874E+04  0.18333213874E+04  0.00000000000E+00 0. -1.
          1   -1    0    0  501    0 -0.00000000000E+00 -0.00000000000E+00 -0.19906510691E+03  0.19906510691E+03  0.00000000000E+00 0. -1.
         25    2    1    2    0    0 -0.96186534880E+02  0.15525437728E+02 -0.68621471477E+02  0.17270449078E+03  0.12500018432E+03 0.  0.
          2    1    1    2  501    0  0.32052693648E+02 -0.54670153731E+02 -0.64665871826E+02  0.90542122010E+02  0.00000000000E+00 0. -1.
          1    1    1    2  502    0  0.64133841233E+02  0.39144716003E+02  0.17675436238E+04  0.17691398815E+04  0.00000000000E+00 0. -1.
         22    1    3    3    0    0  0.26669559604E+02  0.36358383010E+01  0.71792117663E+01  0.27857239834E+02  0.00000000000E+00 0.  1.
         22    1    3    3    0    0 -0.12285609448E+03  0.11889599427E+02 -0.75800683243E+02  0.14484725095E+03  0.00000000000E+00 0.  1.
</event>
<event>
 7    1  0.7118985E-006  0.2574986E+03  0.7818608E-02  0.1182498E+00
          2   -1    0    0  502    0  0.00000000000E+00  0.00000000000E+00  0.11486820647E+04  0.11486820647E+04  0.00000000000E+00 0. -1.
          1   -1    0    0  501    0 -0.00000000000E+00 -0.00000000000E+00 -0.15392116912E+03  0.15392116912E+03  0.00000000000E+00 0. -1.
         25    2    1    2    0    0 -0.13273517392E+03 -0.13250009042E+03  0.32947843134E+03  0.39919508706E+03  0.12500312180E+03 0.  0.
          2    1    1    2  501    0  0.20088290047E+03  0.21436884017E+03  0.74475221086E+02  0.30307506973E+03  0.00000000000E+00 0. -1.
          1    1    1    2  502    0 -0.68147726549E+02 -0.81868749754E+02  0.59080724314E+03  0.60033307702E+03  0.00000000000E+00 0. -1.
         22    1    3    3    0    0 -0.92273293316E+02 -0.14892530799E+03  0.21936382560E+03  0.28073759278E+03  0.00000000000E+00 0. -1.
         22    1    3    3    0    0 -0.40461880603E+02  0.16425217572E+02  0.11011460573E+03  0.11845749427E+03  0.00000000000E+00 0. -1.
</event>
<event>
 7    1  0.7118985E-006  0.9984318E+02  0.7818608E-02  0.1409493E+00
          2   -1    0    0  502    0  0.00000000000E+00  0.00000000000E+00  0.12603507761E+04  0.12603507761E+04  0.00000000000E+00 0. -1.
          1   -1    0    0  501    0 -0.00000000000E+00 -0.00000000000E+00 -0.53197877805E+03  0.53197877805E+03  0.00000000000E+00 0. -1.
         25    2    1    2    0    0 -0.90964838374E+02  0.11773439983E+02 -0.14287113484E+03  0.21082935033E+03  0.12499455221E+03 0.  0.
          2    1    1    2  501    0 -0.69308346802E+01 -0.32154121924E+02 -0.35232290271E+03  0.35385498697E+03  0.00000000000E+00 0. -1.
          1    1    1    2  502    0  0.97895673054E+02  0.20380681941E+02  0.12235660356E+04  0.12276452169E+04  0.00000000000E+00 0. -1.
         22    1    3    3    0    0 -0.33795330146E+02  0.31367036410E+02  0.93528721478E+01  0.47047757973E+02  0.00000000000E+00 0. -1.
         22    1    3    3    0    0 -0.57169508228E+02 -0.19593596427E+02 -0.15222400699E+03  0.16378159236E+03  0.00000000000E+00 0. -1.
</event>
<event>
 7    1  0.7118985E-006  0.1256889E+03  0.7818608E-02  0.1418421E+00
          2   -1    0    0  502    0  0.00000000000E+00  0.00000000000E+00  0.51653345189E+03  0.51653345189E+03  0.00000000000E+00 0. -1.
          1   -1    0    0  501    0 -0.00000000000E+00 -0.00000000000E+00 -0.87051853285E+02  0.87051853285E+02  0.00000000000E+00 0. -1.
         25    2    1    2    0    0  0.10785737669E+03  0.18021237325E+02  0.16511712875E+03  0.23419429390E+03  0.12500128954E+03 0.  0.
          2    1    1    2  501    0  0.20976656604E+02  0.12425006797E+02 -0.34658296965E+02  0.42374502530E+02  0.00000000000E+00 0. -1.
          1    1    1    2  502    0 -0.12883403329E+03 -0.30446244122E+02  0.29902276682E+03  0.32701650875E+03  0.00000000000E+00 0. -1.
         22    1    3    3    0    0  0.12116851789E+03  0.21996513032E+02  0.17719482014E+03  0.21578614552E+03  0.00000000000E+00 0.  1.
         22    1    3    3    0    0 -0.13311141204E+02 -0.39752757066E+01 -0.12077691398E+02  0.18408148375E+02  0.00000000000E+00 0.  1.
</event>
<event>
 7    1  0.7118985E-006  0.1210253E+03  0.7818608E-02  0.1295485E+00
          2   -1    0    0  502    0  0.00000000000E+00  0.00000000000E+00  0.52519461667E+03  0.52519461667E+03  0.00000000000E+00 0. -1.
          1   -1    0    0  501    0 -0.00000000000E+00 -0.00000000000E+00 -0.15823607410E+04  0.15823607410E+04  0.00000000000E+00 0. -1.
         25    2    1    2    0    0 -0.80515972333E+02  0.14462757448E+03 -0.61326150680E+03  0.64739040688E+03  0.12499882437E+03 0.  0.
          2    1    1    2  501    0  0.16426739370E+02 -0.11262013212E+03 -0.94608228558E+03  0.95290336500E+03  0.00000000000E+00 0. -1.
          1    1    1    2  502    0  0.64089232963E+02 -0.32007442362E+02  0.50217766805E+03  0.50726158580E+03  0.00000000000E+00 0. -1.
         22    1    3    3    0    0 -0.50187046001E+02  0.46933472225E+02 -0.44648737374E+03  0.45174380495E+03  0.00000000000E+00 0.  1.
         22    1    3    3    0    0 -0.30328926332E+02  0.97694102259E+02 -0.16677413306E+03  0.19564660193E+03  0.00000000000E+00 0.  1.
</event>
<event>
 7    1  0.7118985E-006  0.2101213E+03  0.7818608E-02  0.1199933E+00
          2   -1    0    0  502    0  0.00000000000E+00  0.00000000000E+00  0.10971039264E+04  0.10971039264E+04  0.00000000000E+00 0. -1.
          1   -1    0    0  501    0 -0.00000000000E+00 -0.00000000000E+00 -0.23126975638E+04  0.23126975638E+04  0.00000000000E+00 0. -1.
         25    2    1    2    0    0  0.14307755821E+03  0.16762193827E+03 -0.16166014989E+03  0.30055259950E+03  0.12501823527E+03 0.  0.
          2    1    1    2  501    0 -0.42787208341E+02 -0.20690884352E+03 -0.20733851797E+04  0.20841228654E+04  0.00000000000E+00 0. -1.
          1    1    1    2  502    0 -0.10029034987E+03  0.39286905244E+02  0.10194516921E+04  0.10251260253E+04  0.00000000000E+00 0. -1.
         22    1    3    3    0    0  0.16568281264E+03  0.14687191565E+03 -0.13144105799E+03  0.25748573890E+03  0.00000000000E+00 0. -1.
         22    1    3    3    0    0 -0.22605254432E+02  0.20750022620E+02 -0.30219091903E+02  0.43066860602E+02  0.00000000000E+00 0. -1.
</event>
<event>
 7    1  0.7118985E-006  0.1822481E+03  0.7818608E-02  0.1252280E+00
          2   -1    0    0  502    0  0.00000000000E+00  0.00000000000E+00  0.19423651645E+04  0.19423651645E+04  0.00000000000E+00 0. -1.
          1   -1    0    0  501    0 -0.00000000000E+00 -0.00000000000E+00 -0.26614972496E+03  0.26614972496E+03  0.00000000000E+00 0. -1.
         25    2    1    2    0    0 -0.57884639076E+02  0.11638678066E+03  0.85708032662E+02  0.19967232511E+03  0.12500662541E+03 0.  0.
          2    1    1    2  501    0  0.10739905254E+03 -0.16874492790E+03 -0.16043658354E+03  0.25641627194E+03  0.00000000000E+00 0. -1.
          1    1    1    2  502    0 -0.49514413467E+02  0.52358147240E+02  0.17509439904E+04  0.17524262924E+04  0.00000000000E+00 0. -1.
         22    1    3    3    0    0 -0.69312354352E+02  0.11357499832E+03  0.11002791288E+03  0.17265463886E+03  0.00000000000E+00 0.  1.
         22    1    3    3    0    0  0.11427715276E+02  0.28117823424E+01 -0.24319880214E+02  0.27017686245E+02  0.00000000000E+00 0.  1.
</event>
<event>
 7    1  0.7118985E-006  0.3298386E+02  0.7818608E-02  0.1650897E+00
          2   -1    0    0  502    0  0.00000000000E+00  0.00000000000E+00  0.20915611977E+03  0.20915611977E+03  0.00000000000E+00 0. -1.
          1   -1    0    0  501    0 -0.00000000000E+00 -0.00000000000E+00 -0.43888891174E+03  0.43888891174E+03  0.00000000000E+00 0. -1.
         25    2    1    2    0    0  0.12020209053E+02 -0.57270878775E+01 -0.40951697177E+02  0.13221131364E+03  0.12500201995E+03 0.  0.
          2    1    1    2  501    0 -0.30919055058E+02  0.12431419472E+02 -0.35090024589E+03  0.35247909260E+03  0.00000000000E+00 0. -1.
          1    1    1    2  502    0  0.18898846005E+02 -0.67043315947E+01  0.16211915110E+03  0.16335462526E+03  0.00000000000E+00 0. -1.
         22    1    3    3    0    0  0.72919030908E+00  0.51383320950E+02 -0.51830721451E+02  0.72987677566E+02  0.00000000000E+00 0.  1.
         22    1    3    3    0    0  0.11291018744E+02 -0.57110408828E+02  0.10879024274E+02  0.59223636075E+02  0.00000000000E+00 0.  1.
</event>
<event>
 7    1  0.7118985E-006  0.1786206E+03  0.7818608E-02  0.1188816E+00
          2   -1    0    0  502    0  0.00000000000E+00  0.00000000000E+00  0.13642160017E+04  0.13642160017E+04  0.00000000000E+00 0. -1.
          1   -1    0    0  501    0 -0.00000000000E+00 -0.00000000000E+00 -0.12406297597E+04  0.12406297597E+04  0.00000000000E+00 0. -1.
         25    2    1    2    0    0 -0.10416248531E+03  0.56040160161E+02  0.32980403120E+03  0.37199494362E+03  0.12497686259E+03 0.  0.
          2    1    1    2  501    0 -0.11807256015E+03 -0.80903037545E+02 -0.12029023318E+04  0.12113878202E+04  0.00000000000E+00 0. -1.
          1    1    1    2  502    0  0.22223504547E+03  0.24862877383E+02  0.99668454255E+03  0.10214629976E+04  0.00000000000E+00 0. -1.
         22    1    3    3    0    0 -0.76945258047E+02  0.55912078055E+02  0.33135236661E+03  0.34473341014E+03  0.00000000000E+00 0. -1.
         22    1    3    3    0    0 -0.27217227268E+02  0.12808210652E+00 -0.15483354077E+01  0.27261533480E+02  0.00000000000E+00 0. -1.
</event>
<event>
 7    1  0.7118985E-006  0.5078436E+03  0.7818608E-02  0.1168707E+00
          2   -1    0    0  502    0  0.00000000000E+00  0.00000000000E+00  0.16944674615E+04  0.16944674615E+04  0.00000000000E+00 0. -1.
          1   -1    0    0  501    0 -0.00000000000E+00 -0.00000000000E+00 -0.25872484249E+04  0.25872484249E+04  0.00000000000E+00 0. -1.
         25    2    1    2    0    0  0.11834437486E+03  0.54275183672E+03 -0.31771544646E+03  0.65203779298E+03  0.12500092496E+03 0.  0.
          2    1    1    2  501    0 -0.13327146689E+03 -0.48140085068E+03 -0.20720270663E+04  0.21313855180E+04  0.00000000000E+00 0. -1.
          1    1    1    2  502    0  0.14927092035E+02 -0.61350986037E+02  0.14969615493E+04  0.14982925754E+04  0.00000000000E+00 0. -1.
         22    1    3    3    0    0  0.91559945611E+01  0.47812308079E+02  0.83219638226E+01  0.49387287049E+02  0.00000000000E+00 0.  1.
         22    1    3    3    0    0  0.10918838030E+03  0.49493952864E+03 -0.32603741028E+03  0.60265050593E+03  0.00000000000E+00 0.  1.
</event>
<event>
 7    1  0.7118985E-006  0.1274762E+03  0.7818608E-02  0.1298557E+00
          2   -1    0    0  502    0  0.00000000000E+00  0.00000000000E+00  0.15763255092E+03  0.15763255092E+03  0.00000000000E+00 0. -1.
          1   -1    0    0  501    0 -0.00000000000E+00 -0.00000000000E+00 -0.88002374815E+03  0.88002374815E+03  0.00000000000E+00 0. -1.
         25    2    1    2    0    0  0.15683601399E+02 -0.13606401893E+03 -0.96862402691E+02  0.20920601444E+03  0.12500175528E+03 0.  0.
          2    1    1    2  501    0 -0.73835180517E+02  0.10462818640E+03 -0.70984871948E+03  0.72130707457E+03  0.00000000000E+00 0. -1.
          1    1    1    2  502    0  0.58151579118E+02  0.31435832533E+02  0.84319924942E+02  0.10714321007E+03  0.00000000000E+00 0. -1.
         22    1    3    3    0    0 -0.41141406052E+02 -0.94104512803E+02 -0.92851430692E+02  0.13845455140E+03  0.00000000000E+00 0. -1.
         22    1    3    3    0    0  0.56825007451E+02 -0.41959506129E+02 -0.40109719992E+01  0.70751463044E+02  0.00000000000E+00 0. -1.
</event>
<event>
 7    1  0.7118985E-006  0.1264552E+03  0.7818608E-02  0.1252034E+00
          2   -1    0    0  502    0  0.00000000000E+00  0.00000000000E+00  0.57560635290E+03  0.57560635290E+03  0.00000000000E+00 0. -1.
          1   -1    0    0  501    0 -0.00000000000E+00 -0.00000000000E+00 -0.15147737002E+04  0.15147737002E+04  0.00000000000E+00 0. -1.
         25    2    1    2    0    0 -0.76327594268E+02  0.20264337594E+01  0.10906936358E+03  0.18262132252E+03  0.12499765312E+03 0.  0.
          2    1    1    2  501    0 -0.35393922062E+02  0.97910997064E+02 -0.14630205977E+04  0.14667203422E+04  0.00000000000E+00 0. -1.
          1    1    1    2  502    0  0.11172151633E+03 -0.99937430823E+02  0.41478388677E+03  0.44103838837E+03  0.00000000000E+00 0. -1.
         22    1    3    3    0    0 -0.36120271085E+02 -0.54782526754E+02  0.18076145780E+02  0.68062811190E+02  0.00000000000E+00 0. -1.
         22    1    3    3    0    0 -0.40207323183E+02  0.56808960514E+02  0.90993217805E+02  0.11455851133E+03  0.00000000000E+00 0. -1.
</event>
<event>
 7    1  0.7118985E-006  0.2713451E+03  0.7818608E-02  0.1217065E+00
          2   -1    0    0  502    0  0.00000000000E+00  0.00000000000E+00  0.58462680369E+03  0.58462680369E+03  0.00000000000E+00 0. -1.
          1   -1    0    0  501    0 -0.00000000000E+00 -0.00000000000E+00 -0.66616564112E+03  0.66616564112E+03  0.00000000000E+00 0. -1.
         25    2    1    2    0    0 -0.49035693774E+02 -0.30352013325E+03  0.66568075730E+00  0.33189446885E+03  0.12499809908E+03 0.  0.
          2    1    1    2  501    0 -0.40963431352E+02  0.56061356579E+02 -0.45622853532E+03  0.46148169503E+03  0.00000000000E+00 0. -1.
          1    1    1    2  502    0  0.89999125126E+02  0.24745877667E+03  0.37402401712E+03  0.45741628093E+03  0.00000000000E+00 0. -1.
         22    1    3    3    0    0 -0.73450427534E+02 -0.28270492231E+03  0.22702599641E+02  0.29297175023E+03  0.00000000000E+00 0. -1.
         22    1    3    3    0    0  0.24414733761E+02 -0.20815210939E+02 -0.22036918884E+02  0.38922718622E+02  0.00000000000E+00 0. -1.
</event>
<event>
 7    1  0.7118985E-006  0.4458733E+02  0.7818608E-02  0.1559707E+00
          2   -1    0    0  502    0  0.00000000000E+00  0.00000000000E+00  0.16008261974E+04  0.16008261974E+04  0.00000000000E+00 0. -1.
          1   -1    0    0  501    0 -0.00000000000E+00 -0.00000000000E+00 -0.19010157700E+03  0.19010157700E+03  0.00000000000E+00 0. -1.
         25    2    1    2    0    0  0.22762416374E+02  0.19617126907E+02  0.32034369569E+03  0.34517785623E+03  0.12499883917E+03 0.  0.
          2    1    1    2  501    0 -0.12375050468E+02 -0.43006827138E+02 -0.17473520995E+03  0.18037495018E+03  0.00000000000E+00 0. -1.
          1    1    1    2  502    0 -0.10387365906E+02  0.23389700231E+02  0.12651161347E+04  0.12653749680E+04  0.00000000000E+00 0. -1.
         22    1    3    3    0    0 -0.40696660928E+02 -0.35158624977E+01  0.41348452250E+02  0.58122921496E+02  0.00000000000E+00 0. -1.
         22    1    3    3    0    0  0.63459077302E+02  0.23132989405E+02  0.27899524344E+03  0.28705493473E+03  0.00000000000E+00 0. -1.
</event>
<event>
 7    1  0.7118985E-006  0.4630534E+02  0.7818608E-02  0.1473284E+00
          2   -1    0    0  502    0  0.00000000000E+00  0.00000000000E+00  0.19210579539E+04  0.19210579539E+04  0.00000000000E+00 0. -1.
          1   -1    0    0  501    0 -0.00000000000E+00 -0.00000000000E+00 -0.12463320419E+03  0.12463320419E+03  0.00000000000E+00 0. -1.
         25    2    1    2    0    0 -0.21087769041E+02  0.56337299724E+02  0.91041930351E+02  0.16593303119E+03  0.12500620950E+03 0.  0.
          2    1    1    2  501    0  0.42863736773E+02 -0.18032086054E+02 -0.80695979331E+02  0.93135906813E+02  0.00000000000E+00 0. -1.
          1    1    1    2  502    0 -0.21775967732E+02 -0.38305213669E+02  0.17860787987E+04  0.17866222201E+04  0.00000000000E+00 0. -1.
         22    1    3    3    0    0 -0.26861026107E+02  0.54831694408E+02  0.12092218816E+03  0.13546292860E+03  0.00000000000E+00 0.  1.
         22    1    3    3    0    0  0.57732570655E+01  0.15056053159E+01 -0.29880257813E+02  0.30470102584E+02  0.00000000000E+00 0.  1.
</event>
<event>
 7    1  0.7118985E-006  0.7816503E+02  0.7818608E-02  0.1341661E+00
          2   -1    0    0  502    0  0.00000000000E+00  0.00000000000E+00  0.22581668931E+04  0.22581668931E+04  0.00000000000E+00 0. -1.
          1   -1    0    0  501    0 -0.00000000000E+00 -0.00000000000E+00 -0.66959347668E+03  0.66959347668E+03  0.00000000000E+00 0. -1.
         25    2    1    2    0    0 -0.16931351096E+02  0.94611651421E+02  0.35437605808E+03  0.38787316850E+03  0.12500067625E+03 0.  0.
          2    1    1    2  501    0  0.65658249462E+02 -0.32694285697E+02 -0.64995877562E+03  0.65408434628E+03  0.00000000000E+00 0. -1.
          1    1    1    2  502    0 -0.48726898366E+02 -0.61917365724E+02  0.18841561340E+04  0.18858028550E+04  0.00000000000E+00 0. -1.
         22    1    3    3    0    0 -0.66470849105E+02  0.42773839321E+02  0.12825934131E+03  0.15065999384E+03  0.00000000000E+00 0. -1.
         22    1    3    3    0    0  0.49539498008E+02  0.51837812100E+02  0.22611671677E+03  0.23721317465E+03  0.00000000000E+00 0. -1.
</event>
<event>
 7    1  0.7118985E-006  0.1165206E+03  0.7818608E-02  0.1380212E+00
          2   -1    0    0  502    0  0.00000000000E+00  0.00000000000E+00  0.95792041208E+03  0.95792041208E+03  0.00000000000E+00 0. -1.
          1   -1    0    0  501    0 -0.00000000000E+00 -0.00000000000E+00 -0.16835173522E+04  0.16835173522E+04  0.00000000000E+00 0. -1.
         25    2    1    2    0    0  0.12934795199E+03 -0.30022658463E+02  0.27821937641E+02  0.18447606938E+03  0.12500042902E+03 0.  0.
          2    1    1    2  501    0 -0.10299955940E+03  0.53966067761E+02 -0.16027109852E+04  0.16069236907E+04  0.00000000000E+00 0. -1.
          1    1    1    2  502    0 -0.26348392584E+02 -0.23943409298E+02  0.84929210749E+03  0.85003800414E+03  0.00000000000E+00 0. -1.
         22    1    3    3    0    0  0.10214615162E+03  0.36819751269E+02  0.46401706602E+01  0.10867870793E+03  0.00000000000E+00 0.  1.
         22    1    3    3    0    0  0.27201800367E+02 -0.66842409732E+02  0.23181766981E+02  0.75797361447E+02  0.00000000000E+00 0.  1.
</event>
<event>
 7    1  0.7118985E-006  0.1071129E+03  0.7818608E-02  0.1422135E+00
          2   -1    0    0  502    0  0.00000000000E+00  0.00000000000E+00  0.52598397017E+02  0.52598397017E+02  0.00000000000E+00 0. -1.
          1   -1    0    0  501    0 -0.00000000000E+00 -0.00000000000E+00 -0.21862772086E+04  0.21862772086E+04  0.00000000000E+00 0. -1.
         25    2    1    2    0    0  0.83270348734E+02  0.46641909701E+02 -0.76585126992E+03  0.78183282996E+03  0.12499995058E+03 0.  0.
          2    1    1    2  501    0 -0.82131694184E+02 -0.74421723674E+02 -0.14056987828E+04  0.14100614441E+04  0.00000000000E+00 0. -1.
          1    1    1    2  502    0 -0.11386545498E+01  0.27779813973E+02  0.37871241208E+02  0.46981331497E+02  0.00000000000E+00 0. -1.
         22    1    3    3    0    0  0.58270393540E+02  0.78796591082E+02 -0.33444017580E+03  0.34850333244E+03  0.00000000000E+00 0.  1.
         22    1    3    3    0    0  0.24999955194E+02 -0.32154681381E+02 -0.43141109412E+03  0.43332949752E+03  0.00000000000E+00 0.  1.
</event>
<event>
 7    1  0.7118985E-006  0.1515981E+03  0.7818608E-02  0.1294988E+00
          2   -1    0    0  502    0  0.00000000000E+00  0.00000000000E+00  0.77421774528E+03  0.77421774528E+03  0.00000000000E+00 0. -1.
          1   -1    0    0  501    0 -0.00000000000E+00 -0.00000000000E+00 -0.68837984502E+03  0.68837984502E+03  0.00000000000E+00 0. -1.
         25    2    1    2    0    0  0.15945688097E+03 -0.11093120373E+03  0.10028633472E+02  0.23120983355E+03  0.12500073917E+03 0.  0.
          2    1    1    2  501    0 -0.57380814765E+02  0.29131217379E+01 -0.56787252271E+03  0.57077162354E+03  0.00000000000E+00 0. -1.
          1    1    1    2  502    0 -0.10207606620E+03  0.10801808199E+03  0.64368178950E+03  0.66061613322E+03  0.00000000000E+00 0. -1.
         22    1    3    3    0    0  0.66452138763E+02 -0.10008876601E+03 -0.37959502979E+02  0.12599433199E+03  0.00000000000E+00 0. -1.
         22    1    3    3    0    0  0.93004742207E+02 -0.10842437722E+02  0.47988136450E+02  0.10521550156E+03  0.00000000000E+00 0. -1.
</event>
<event>
 7    1  0.7118985E-006  0.1004807E+03  0.7818608E-02  0.1339080E+00
          2   -1    0    0  502    0  0.00000000000E+00  0.00000000000E+00  0.19230732786E+04  0.19230732786E+04  0.00000000000E+00 0. -1.
          1   -1    0    0  501    0 -0.00000000000E+00 -0.00000000000E+00 -0.17311726605E+03  0.17311726605E+03  0.00000000000E+00 0. -1.
         25    2    1    2    0    0 -0.48222939748E+02  0.66304702273E+02 -0.50563991500E+02  0.15781040566E+03  0.12500256572E+03 0.  0.
          2    1    1    2  501    0 -0.47397434967E+02 -0.34028577605E+02 -0.54960653145E+02  0.80156935629E+02  0.00000000000E+00 0. -1.
          1    1    1    2  502    0  0.95620374715E+02 -0.32276124668E+02  0.18554806572E+04  0.18582232033E+04  0.00000000000E+00 0. -1.
         22    1    3    3    0    0 -0.30397302454E+02  0.53817268276E+02 -0.92100061749E+02  0.11091760787E+03  0.00000000000E+00 0. -1.
         22    1    3    3    0    0 -0.17825637294E+02  0.12487433997E+02  0.41536070249E+02  0.46892797789E+02  0.00000000000E+00 0. -1.
</event>
<event>
 7    1  0.7118985E-006  0.7507019E+02  0.7818608E-02  0.1499736E+00
          2   -1    0    0  502    0  0.00000000000E+00  0.00000000000E+00  0.17492695494E+02  0.17492695494E+02  0.00000000000E+00 0. -1.
          1   -1    0    0  501    0 -0.00000000000E+00 -0.00000000000E+00 -0.18776574324E+04  0.18776574324E+04  0.00000000000E+00 0. -1.
         25    2    1    2    0    0  0.56215562967E+02 -0.12109961083E+02 -0.13758300369E+04  0.13826931382E+04  0.12500073343E+03 0.  0.
          2    1    1    2  501    0  0.14342051824E+02 -0.17445846631E+02 -0.39156158361E+03  0.39221234781E+03  0.00000000000E+00 0. -1.
          1    1    1    2  502    0 -0.70557614791E+02  0.29555807714E+02 -0.92773116440E+02  0.12024464191E+03  0.00000000000E+00 0. -1.
         22    1    3    3    0    0  0.32275484034E+02  0.55637875652E+02 -0.74952230775E+03  0.75227718954E+03  0.00000000000E+00 0. -1.
         22    1    3    3    0    0  0.23940078933E+02 -0.67747836735E+02 -0.62630772911E+03  0.63041594864E+03  0.00000000000E+00 0. -1.
</event>
<event>
 7    1  0.7118985E-006  0.1482937E+03  0.7818608E-02  0.1367571E+00
          2   -1    0    0  502    0  0.00000000000E+00  0.00000000000E+00  0.16802543170E+04  0.16802543170E+04  0.00000000000E+00 0. -1.
          1   -1    0    0  501    0 -0.00000000000E+00 -0.00000000000E+00 -0.12780434252E+04  0.12780434252E+04  0.00000000000E+00 0. -1.
         25    2    1    2    0    0  0.73839977422E+02 -0.98471942284E+02 -0.22842035462E+03  0.28800986835E+03  0.12499904072E+03 0.  0.
          2    1    1    2  501    0 -0.85041035070E+02  0.12742173092E+03 -0.10139280278E+04  0.10254356736E+04  0.00000000000E+00 0. -1.
          1    1    1    2  502    0  0.11201057648E+02 -0.28949788638E+02  0.16445592742E+04  0.16448522002E+04  0.00000000000E+00 0. -1.
         22    1    3    3    0    0  0.22962465469E+02 -0.11746118854E+03 -0.13937352240E+03  0.18371005520E+03  0.00000000000E+00 0. -1.
         22    1    3    3    0    0  0.50877511953E+02  0.18989246259E+02 -0.89046832218E+02  0.10429981315E+03  0.00000000000E+00 0. -1.
</event>
<event>
 7    1  0.7118985E-006  0.9912598E+02  0.7818608E-02  0.1336788E+00
          2   -1    0    0  502    0  0.00000000000E+00  0.00000000000E+00  0.21624537980E+04  0.21624537980E+04  0.00000000000E+00 0. -1.
          1   -1    0    0  501    0 -0.00000000000E+00 -0.00000000000E+00 -0.53858816221E+03  0.53858816221E+03  0.00000000000E+00 0. -1.
         25    2    1    2    0    0  0.14321971169E+03 -0.52252340519E+02 -0.14893610683E+03  0.24708103549E+03  0.12499952510E+03 0.  0.
          2    1    1    2  501    0 -0.88009226044E+02  0.27919228904E+02 -0.33388194615E+03  0.34641342523E+03  0.00000000000E+00 0. -1.
          1    1    1    2  502    0 -0.55210485650E+02  0.24333111616E+02  0.21066836888E+04  0.21075474995E+04  0.00000000000E+00 0. -1.
         22    1    3    3    0    0  0.10818151944E+03 -0.79034185627E+02 -0.15231123450E+03  0.20285057505E+03  0.00000000000E+00 0.  1.
         22    1    3    3    0    0  0.35038192255E+02  0.26781845107E+02  0.33751276682E+01  0.44230460439E+02  0.00000000000E+00 0.  1.
</event>
<event>
 7    1  0.7118985E-006  0.1946830E+03  0.7818608E-02  0.1256164E+00
          2   -1    0    0  502    0  0.00000000000E+00  0.00000000000E+00  0.29951912687E+03  0.29951912687E+03  0.00000000000E+00 0. -1.
          1   -1    0    0  501    0 -0.00000000000E+00 -0.00000000000E+00 -0.15594407052E+04  0.15594407052E+04  0.00000000000E+00 0. -1.
         25    2    1    2    0    0  0.24437040482E+03 -0.26315072645E+02 -0.43504139873E+03  0.51506830743E+03  0.12499985963E+03 0.  0.
          2    1    1    2  501    0 -0.53550646972E+02  0.36682523486E+02 -0.10480631956E+04  0.10500713030E+04  0.00000000000E+00 0. -1.
          1    1    1    2  502    0 -0.19081975785E+03 -0.10367450841E+02  0.22318301602E+03  0.29382022167E+03  0.00000000000E+00 0. -1.
         22    1    3    3    0    0  0.14417800838E+03 -0.76487904838E+02 -0.24288321935E+03  0.29262596592E+03  0.00000000000E+00 0. -1.
         22    1    3    3    0    0  0.10019239644E+03  0.50172832193E+02 -0.19215817938E+03  0.22244234151E+03  0.00000000000E+00 0. -1.
</event>
<event>
 7    1  0.7118985E-006  0.2861363E+02  0.7818608E-02  0.1615015E+00
          2   -1    0    0  502    0  0.00000000000E+00  0.00000000000E+00  0.88965383826E+03  0.88965383826E+03  0.00000000000E+00 0. -1.
          1   -1    0    0  501    0 -0.00000000000E+00 -0.00000000000E+00 -0.25402160754E+02  0.25402160754E+02  0.00000000000E+00 0. -1.
         25    2    1    2    0    0 -0.11510622329E+02  0.34846704907E+02  0.23854184036E+03  0.27179839322E+03  0.12500147873E+03 0.  0.
          2    1    1    2  501    0 -0.15065107874E+02 -0.24740580836E+02  0.16404125438E+02  0.33288874219E+02  0.00000000000E+00 0. -1.
          1    1    1    2  502    0  0.26575730203E+02 -0.10106124070E+02  0.60930571171E+03  0.60996873157E+03  0.00000000000E+00 0. -1.
         22    1    3    3    0    0  0.35364237673E+02  0.59697331840E+02  0.17937944980E+03  0.19233145282E+03  0.00000000000E+00 0.  1.
         22    1    3    3    0    0 -0.46874860002E+02 -0.24850626933E+02  0.59162390559E+02  0.79466940395E+02  0.00000000000E+00 0.  1.
</event>
<event>
 7    1  0.7118985E-006  0.7728731E+02  0.7818608E-02  0.1385507E+00
          2   -1    0    0  502    0  0.00000000000E+00  0.00000000000E+00  0.61075131971E+03  0.61075131971E+03  0.00000000000E+00 0. -1.
          1   -1    0    0  501    0 -0.00000000000E+00 -0.00000000000E+00 -0.74106879133E+03  0.74106879133E+03  0.00000000000E+00 0. -1.
         25    2    1    2    0    0  0.71787761586E+01 -0.41481513799E+02 -0.13376704561E+03  0.18785848465E+03  0.12499974780E+03 0.  0.
          2    1    1    2  501    0 -0.54968956572E+02  0.60447757333E+02 -0.57623639142E+03  0.58199991095E+03  0.00000000000E+00 0. -1.
          1    1    1    2  502    0  0.47790180413E+02 -0.18966243534E+02  0.57968596541E+03  0.58196171544E+03  0.00000000000E+00 0. -1.
         22    1    3    3    0    0  0.20503435346E+02  0.41099670116E+02 -0.64896807476E+02  0.79505781961E+02  0.00000000000E+00 0. -1.
         22    1    3    3    0    0 -0.13324659188E+02 -0.82581183915E+02 -0.68870238133E+02  0.10835270269E+03  0.00000000000E+00 0. -1.
</event>
<event>
 7    1  0.7118985E-006  0.8116209E+02  0.7818608E-02  0.1471543E+00
          2   -1    0    0  502    0  0.00000000000E+00  0.00000000000E+00  0.63196524547E+03  0.63196524547E+03  0.00000000000E+00 0. -1.
          1   -1    0    0  501    0 -0.00000000000E+00 -0.00000000000E+00 -0.47685517709E+03  0.47685517709E+03  0.00000000000E+00 0. -1.
         25    2    1    2    0    0  0.61744022165E+02  0.32225291387E+02 -0.22914396764E+03  0.27015263016E+03  0.12499876798E+03 0.  0.
          2    1    1    2  501    0 -0.84077799469E+02 -0.20015915189E+02 -0.21870959005E+03  0.23516717034E+03  0.00000000000E+00 0. -1.
          1    1    1    2  502    0  0.22333777305E+02 -0.12209376199E+02  0.60296362607E+03  0.60350062207E+03  0.00000000000E+00 0. -1.
         22    1    3    3    0    0 -0.21460373649E+01  0.45520040657E+02 -0.17733911392E+02  0.48899603179E+02  0.00000000000E+00 0. -1.
         22    1    3    3    0    0  0.63890059530E+02 -0.13294749269E+02 -0.21141005625E+03  0.22125302698E+03  0.00000000000E+00 0. -1.
</event>
<event>
 7    1  0.7118985E-006  0.9835026E+02  0.7818608E-02  0.1284709E+00
          2   -1    0    0  502    0  0.00000000000E+00  0.00000000000E+00  0.12333759885E+03  0.12333759885E+03  0.00000000000E+00 0. -1.
          1   -1    0    0  501    0 -0.00000000000E+00 -0.00000000000E+00 -0.80244352632E+03  0.80244352632E+03  0.00000000000E+00 0. -1.
         25    2    1    2    0    0  0.20645605015E+02 -0.13867200751E+02 -0.21471937117E+03  0.24968462616E+03  0.12497785373E+03 0.  0.
          2    1    1    2  501    0 -0.29439814526E+02 -0.93840671678E+02 -0.53697945296E+03  0.54591181270E+03  0.00000000000E+00 0. -1.
          1    1    1    2  502    0  0.87942095112E+01  0.10770787243E+03  0.72592896664E+02  0.13018468631E+03  0.00000000000E+00 0. -1.
         22    1    3    3    0    0  0.28003013653E+02  0.53108563341E+02 -0.10279215491E+03  0.11904165399E+03  0.00000000000E+00 0. -1.
         22    1    3    3    0    0 -0.73574086387E+01 -0.66975764092E+02 -0.11192721625E+03  0.13064297216E+03  0.00000000000E+00 0. -1.
</event>
<event>
 7    1  0.7118985E-006  0.9047625E+02  0.7818608E-02  0.1370373E+00
          2   -1    0    0  502    0  0.00000000000E+00  0.00000000000E+00  0.15983024789E+02  0.15983024789E+02  0.00000000000E+00 0. -1.
          1   -1    0    0  501    0 -0.00000000000E+00 -0.00000000000E+00 -0.14537231832E+04  0.14537231832E+04  0.00000000000E+00 0. -1.
         25    2    1    2    0    0  0.92607921021E+01  0.68933900081E+02 -0.63761850292E+03  0.65346751849E+03  0.12499919042E+03 0.  0.
          2    1    1    2  501    0 -0.55169084394E+02 -0.87998452793E+02 -0.64607772618E+03  0.65437281716E+03  0.00000000000E+00 0. -1.
          1    1    1    2  502    0  0.45908292292E+02  0.19064552712E+02 -0.15404392928E+03  0.16186587231E+03  0.00000000000E+00 0. -1.
         22    1    3    3    0    0  0.28223561604E+02  0.40631925444E+02 -0.75175796558E+02  0.89994017485E+02  0.00000000000E+00 0.  1.
         22    1    3    3    0    0 -0.18962769502E+02  0.28301974637E+02 -0.56244270636E+03  0.56347350100E+03  0.00000000000E+00 0.  1.
</event>
<event>
 7    1  0.7118985E-006  0.9365969E+02  0.7818608E-02  0.1385751E+00
          2   -1    0    0  502    0  0.00000000000E+00  0.00000000000E+00  0.18113296037E+04  0.18113296037E+04  0.00000000000E+00 0. -1.
          1   -1    0    0  501    0 -0.00000000000E+00 -0.00000000000E+00 -0.61509894890E+03  0.61509894890E+03  0.00000000000E+00 0. -1.
         25    2    1    2    0    0 -0.58114603880E+02  0.11652764494E+03  0.22918419371E+03  0.29173017799E+03  0.12500041153E+03 0.  0.
          2    1    1    2  501    0  0.36906173089E+01 -0.42183249588E+02 -0.58168723927E+03  0.58322644962E+03  0.00000000000E+00 0. -1.
          1    1    1    2  502    0  0.54423986571E+02 -0.74344395356E+02  0.15487337004E+04  0.15514719250E+04  0.00000000000E+00 0. -1.
         22    1    3    3    0    0 -0.14594623601E+02  0.10118956883E+03  0.64918269172E+02  0.12110620773E+03  0.00000000000E+00 0.  1.
         22    1    3    3    0    0 -0.43519980279E+02  0.15338076112E+02  0.16426592454E+03  0.17062397026E+03  0.00000000000E+00 0.  1.
</event>
<event>
 7    1  0.7118985E-006  0.9430832E+02  0.7818608E-02  0.1320717E+00
          2   -1    0    0  502    0  0.00000000000E+00  0.00000000000E+00  0.88210256987E+03  0.88210256987E+03  0.00000000000E+00 0. -1.
          1   -1    0    0  501    0 -0.00000000000E+00 -0.00000000000E+00 -0.13308196700E+03  0.13308196700E+03  0.00000000000E+00 0. -1.
         25    2    1    2    0    0  0.97665064441E+01  0.13968233369E+02  0.19502644440E+02  0.12765625463E+03  0.12500108005E+03 0.  0.
          2    1    1    2  501    0 -0.10280884381E+03  0.14325055668E+01 -0.41416480842E+02  0.11084690037E+03  0.00000000000E+00 0. -1.
          1    1    1    2  502    0  0.93042337361E+02 -0.15400738935E+02  0.77093443927E+03  0.77668138188E+03  0.00000000000E+00 0. -1.
         22    1    3    3    0    0  0.64328997556E+02  0.22841678572E+01 -0.90049090972E+01  0.64996351722E+02  0.00000000000E+00 0. -1.
         22    1    3    3    0    0 -0.54562491112E+02  0.11684065511E+02  0.28507553537E+02  0.62659902903E+02  0.00000000000E+00 0. -1.
</event>
<event>
 7    1  0.7118985E-006  0.1462999E+03  0.7818608E-02  0.1371763E+00
          2   -1    0    0  502    0  0.00000000000E+00  0.00000000000E+00  0.23377415804E+04  0.23377415804E+04  0.00000000000E+00 0. -1.
          1   -1    0    0  501    0 -0.00000000000E+00 -0.00000000000E+00 -0.26603499159E+03  0.26603499159E+03  0.00000000000E+00 0. -1.
         25    2    1    2    0    0  0.13549830374E+03  0.46157413890E+02 -0.50996350336E+02  0.19676400373E+03  0.12500059297E+03 0.  0.
          2    1    1    2  501    0 -0.97183759417E+01  0.28795021341E+02 -0.13813486017E+03  0.14143846605E+03  0.00000000000E+00 0. -1.
          1    1    1    2  502    0 -0.12577992779E+03 -0.74952435231E+02  0.22608377994E+04  0.22655741023E+04  0.00000000000E+00 0. -1.
         22    1    3    3    0    0  0.99328012016E+02 -0.31554019232E+02 -0.31224310463E+02  0.10879645061E+03  0.00000000000E+00 0.  1.
         22    1    3    3    0    0  0.36170291720E+02  0.77711433122E+02 -0.19772039872E+02  0.87967553119E+02  0.00000000000E+00 0.  1.
</event>
<event>
 7    1  0.7118985E-006  0.4696719E+03  0.7818608E-02  0.1182639E+00
          2   -1    0    0  502    0  0.00000000000E+00  0.00000000000E+00  0.20193490064E+04  0.20193490064E+04  0.00000000000E+00 0. -1.
          1   -1    0    0  501    0 -0.00000000000E+00 -0.00000000000E+00 -0.10063070407E+04  0.10063070407E+04  0.00000000000E+00 0. -1.
         25    2    1    2    0    0 -0.17769853032E+03  0.43429496435E+03  0.44695994353E+02  0.48765813769E+03  0.12499537436E+03 0.  0.
          2    1    1    2  501    0 -0.52893153751E+02 -0.24538453324E+02 -0.75215262247E+03  0.75440929799E+03  0.00000000000E+00 0. -1.
          1    1    1    2  502    0  0.23059168407E+03 -0.40975651102E+03  0.17204985938E+04  0.17835886113E+04  0.00000000000E+00 0. -1.
         22    1    3    3    0    0 -0.16793975802E+03  0.40600738643E+03  0.68651477159E+01  0.43942336125E+03  0.00000000000E+00 0.  1.
         22    1    3    3    0    0 -0.97587723009E+01  0.28287577922E+02  0.37830846637E+02  0.48234776446E+02  0.00000000000E+00 0.  1.
</event>
<event>
 7    1  0.7118985E-006  0.7419264E+02  0.7818608E-02  0.1424797E+00
          2   -1    0    0  502    0  0.00000000000E+00  0.00000000000E+00  0.16678150746E+03  0.16678150746E+03  0.00000000000E+00 0. -1.
          1   -1    0    0  501    0 -0.00000000000E+00 -0.00000000000E+00 -0.16013171977E+04  0.16013171977E+04  0.00000000000E+00 0. -1.
         25    2    1    2    0    0  0.79215027109E+02 -0.39675031776E+02 -0.67655202307E+03  0.69368354681E+03  0.12500037810E+03 0.  0.
          2    1    1    2  501    0 -0.73004855379E+02  0.83808956715E+00 -0.91227400705E+03  0.91519084089E+03  0.00000000000E+00 0. -1.
          1    1    1    2  502    0 -0.62101717298E+01  0.38836942209E+02  0.15429033985E+03  0.15922431750E+03  0.00000000000E+00 0. -1.
         22    1    3    3    0    0  0.71724050975E+02 -0.47524240035E+02 -0.67736069975E+03  0.68280334683E+03  0.00000000000E+00 0.  1.
         22    1    3    3    0    0  0.74909761333E+01  0.78492082586E+01  0.80867667225E+00  0.10880199983E+02  0.00000000000E+00 0.  1.
</event>
<event>
 7    1  0.7118985E-006  0.1637363E+03  0.7818608E-02  0.1210975E+00
          2   -1    0    0  502    0  0.00000000000E+00  0.00000000000E+00  0.12618418789E+03  0.12618418789E+03  0.00000000000E+00 0. -1.
          1   -1    0    0  501    0 -0.00000000000E+00 -0.00000000000E+00 -0.17329279784E+04  0.17329279784E+04  0.00000000000E+00 0. -1.
         25    2    1    2    0    0  0.58668603940E+02 -0.77900387978E+02 -0.23132293455E+02  0.16022130336E+03  0.12500115006E+03 0.  0.
          2    1    1    2  501    0 -0.16848522681E+03  0.23078771684E+02 -0.15656322952E+04  0.15748410666E+04  0.00000000000E+00 0. -1.
          1    1    1    2  502    0  0.10981662287E+03  0.54821616294E+02 -0.17979201882E+02  0.12404979634E+03  0.00000000000E+00 0. -1.
         22    1    3    3    0    0 -0.12844173989E+02 -0.19951392720E+02 -0.57316624853E+02  0.62034074197E+02  0.00000000000E+00 0.  1.
         22    1    3    3    0    0  0.71512777929E+02 -0.57948995258E+02  0.34184331398E+02  0.98187229168E+02  0.00000000000E+00 0.  1.
</event>
<event>
 7    1  0.7118985E-006  0.2408137E+02  0.7818608E-02  0.1700758E+00
          2   -1    0    0  502    0  0.00000000000E+00  0.00000000000E+00  0.13625750499E+04  0.13625750499E+04  0.00000000000E+00 0. -1.
          1   -1    0    0  501    0 -0.00000000000E+00 -0.00000000000E+00 -0.22535273793E+03  0.22535273793E+03  0.00000000000E+00 0. -1.
         25    2    1    2    0    0 -0.38618212028E+01 -0.40473420724E+02  0.55020878540E+02  0.14249410786E+03  0.12499704897E+03 0.  0.
          2    1    1    2  501    0  0.11529766361E+02  0.21020275213E+02 -0.18073799138E+03  0.18232116994E+03  0.00000000000E+00 0. -1.
          1    1    1    2  502    0 -0.76679451582E+01  0.19453145510E+02  0.12629394248E+04  0.12631125101E+04  0.00000000000E+00 0. -1.
         22    1    3    3    0    0  0.49489749074E+01 -0.84566851827E+02  0.24621280692E+02  0.88217074558E+02  0.00000000000E+00 0. -1.
         22    1    3    3    0    0 -0.88107961102E+01  0.44093431104E+02  0.30399597848E+02  0.54277033301E+02  0.00000000000E+00 0. -1.
</event>
<event>
 7    1  0.7118985E-006  0.6685792E+02  0.7818608E-02  0.1406007E+00
          2   -1    0    0  502    0  0.00000000000E+00  0.00000000000E+00  0.17315921398E+03  0.17315921398E+03  0.00000000000E+00 0. -1.
          1   -1    0    0  501    0 -0.00000000000E+00 -0.00000000000E+00 -0.26168595544E+04  0.26168595544E+04  0.00000000000E+00 0. -1.
         25    2    1    2    0    0 -0.57119372297E+02 -0.28847045979E+02 -0.20181830753E+03  0.24586615990E+03  0.12499905832E+03 0.  0.
          2    1    1    2  501    0  0.20887550311E+02  0.63996007615E+02 -0.23883146875E+04  0.23892632390E+04  0.00000000000E+00 0. -1.
          1    1    1    2  502    0  0.36231821986E+02 -0.35148961636E+02  0.14643265462E+03  0.15488936945E+03  0.00000000000E+00 0. -1.
         22    1    3    3    0    0 -0.78147477701E+02 -0.35540618502E+02 -0.20620898747E+03  0.22336586657E+03  0.00000000000E+00 0. -1.
         22    1    3    3    0    0  0.21028105404E+02  0.66935725227E+01  0.43906799414E+01  0.22500293339E+02  0.00000000000E+00 0. -1.
</event>
<event>
 7    1  0.7118985E-006  0.6314903E+02  0.7818608E-02  0.1464258E+00
          2   -1    0    0  502    0  0.00000000000E+00  0.00000000000E+00  0.85959289682E+03  0.85959289682E+03  0.00000000000E+00 0. -1.
          1   -1    0    0  501    0 -0.00000000000E+00 -0.00000000000E+00 -0.93471972552E+02  0.93471972552E+02  0.00000000000E+00 0. -1.
         25    2    1    2    0    0  0.63477437670E+02 -0.43770492703E+02  0.12639559671E+03  0.19377196269E+03  0.12500594198E+03 0.  0.
          2    1    1    2  501    0 -0.32657927126E+02 -0.11033041426E+02 -0.53270357994E+02  0.63450762392E+02  0.00000000000E+00 0. -1.
          1    1    1    2  502    0 -0.30819510544E+02  0.54803534129E+02  0.69299568555E+03  0.69584214429E+03  0.00000000000E+00 0. -1.
         22    1    3    3    0    0  0.33761342614E+02 -0.79780729460E+02  0.11791911457E+03  0.14632057486E+03  0.00000000000E+00 0. -1.
         22    1    3    3    0    0  0.29716095056E+02  0.36010236757E+02  0.84764821439E+01  0.47451387822E+02  0.00000000000E+00 0. -1.
</event>
<event>
 7    1  0.7118985E-006  0.9278079E+02  0.7818608E-02  0.1332451E+00
          2   -1    0    0  502    0  0.00000000000E+00  0.00000000000E+00  0.34198316868E+03  0.34198316868E+03  0.00000000000E+00 0. -1.
          1   -1    0    0  501    0 -0.00000000000E+00 -0.00000000000E+00 -0.25071774954E+03  0.25071774954E+03  0.00000000000E+00 0. -1.
         25    2    1    2    0    0 -0.99156539283E+02  0.10759571101E+03  0.36440186432E+02  0.19586096070E+03  0.12499908971E+03 0.  0.
          2    1    1    2  501    0  0.60199099485E+02 -0.29297211881E+02 -0.15536807241E+03  0.16917888795E+03  0.00000000000E+00 0. -1.
          1    1    1    2  502    0  0.38957439799E+02 -0.78298499133E+02  0.21019330512E+03  0.22766106957E+03  0.00000000000E+00 0. -1.
         22    1    3    3    0    0 -0.19838341696E+01  0.94344124979E+02  0.18511527504E+02  0.96163538655E+02  0.00000000000E+00 0.  1.
         22    1    3    3    0    0 -0.97172705114E+02  0.13251586035E+02  0.17928658928E+02  0.99697422045E+02  0.00000000000E+00 0.  1.
</event>
<event>
 7    1  0.7118985E-006  0.9476238E+02  0.7818608E-02  0.1351166E+00
          2   -1    0    0  502    0  0.00000000000E+00  0.00000000000E+00  0.29336111027E+03  0.29336111027E+03  0.00000000000E+00 0. -1.
          1   -1    0    0  501    0 -0.00000000000E+00 -0.00000000000E+00 -0.17557572270E+04  0.17557572270E+04  0.00000000000E+00 0. -1.
         25    2    1    2    0    0 -0.27025104022E+02  0.13991371358E+03  0.52406082224E+02  0.19666515421E+03  0.12499832771E+03 0.  0.
          2    1    1    2  501    0 -0.48711093210E+01 -0.94172583793E+02 -0.16776624649E+04  0.16803105515E+04  0.00000000000E+00 0. -1.
          1    1    1    2  502    0  0.31896213343E+02 -0.45741129791E+02  0.16286026596E+03  0.17214263158E+03  0.00000000000E+00 0. -1.
         22    1    3    3    0    0  0.12885467367E+02 -0.14001436800E+02  0.30792578500E+02  0.36197491521E+02  0.00000000000E+00 0.  1.
         22    1    3    3    0    0 -0.39910571389E+02  0.15391515038E+03  0.21613503724E+02  0.16046766269E+03  0.00000000000E+00 0.  1.
</event>
<event>
 7    1  0.7118985E-006  0.6850775E+02  0.7818608E-02  0.1422071E+00
          2   -1    0    0  502    0  0.00000000000E+00  0.00000000000E+00  0.12798700913E+04  0.12798700913E+04  0.00000000000E+00 0. -1.
          1   -1    0    0  501    0 -0.00000000000E+00 -0.00000000000E+00 -0.10980534372E+03  0.10980534372E+03  0.00000000000E+00 0. -1.
         25    2    1    2    0    0  0.10320808310E+03 -0.23075072711E+02  0.15044518222E+03  0.22235722648E+03  0.12499846365E+03 0.  0.
          2    1    1    2  501    0 -0.35720000171E+02  0.24811739163E+02 -0.66305496780E+02  0.79296656397E+02  0.00000000000E+00 0. -1.
          1    1    1    2  502    0 -0.67488082925E+02 -0.17366664526E+01  0.10859250621E+04  0.10880215521E+04  0.00000000000E+00 0. -1.
         22    1    3    3    0    0  0.55848608531E+02 -0.59802539100E+02  0.28793112757E+02  0.86743611291E+02  0.00000000000E+00 0. -1.
         22    1    3    3    0    0  0.47359474565E+02  0.36727466389E+02  0.12165206946E+03  0.13561361518E+03  0.00000000000E+00 0. -1.
</event>
<event>
 7    1  0.7118985E-006  0.1616409E+03  0.7818608E-02  0.1270509E+00
          2   -1    0    0  502    0  0.00000000000E+00  0.00000000000E+00  0.16639505694E+04  0.16639505694E+04  0.00000000000E+00 0. -1.
          1   -1    0    0  501    0 -0.00000000000E+00 -0.00000000000E+00 -0.94246299661E+02  0.94246299661E+02  0.00000000000E+00 0. -1.
         25    2    1    2    0    0 -0.14104555457E+03  0.60931477375E+02  0.35969426516E+03  0.41062293442E+03  0.12499894590E+03 0.  0.
          2    1    1    2  501    0 -0.24712837941E+02 -0.63297109689E+02 -0.45105306435E+02  0.81558182438E+02  0.00000000000E+00 0. -1.
          1    1    1    2  502    0  0.16575839251E+03  0.23656323143E+01  0.12551153110E+04  0.12660157522E+04  0.00000000000E+00 0. -1.
         22    1    3    3    0    0 -0.12546110739E+03  0.65923336100E+02  0.17493947333E+03  0.22514483125E+03  0.00000000000E+00 0.  1.
         22    1    3    3    0    0 -0.15584447181E+02 -0.49918587255E+01  0.18475479183E+03  0.18547810316E+03  0.00000000000E+00 0.  1.
</event>
<event>
 7    1  0.7118985E-006  0.2477635E+03  0.7818608E-02  0.1164211E+00
          2   -1    0    0  502    0  0.00000000000E+00  0.00000000000E+00  0.24822822859E+04  0.24822822859E+04  0.00000000000E+00 0. -1.
          1   -1    0    0  501    0 -0.00000000000E+00 -0.00000000000E+00 -0.18258060762E+03  0.18258060762E+03  0.00000000000E+00 0. -1.
         25    2    1    2    0    0  0.21316501746E+02 -0.15874556209E+03  0.20793753881E+03  0.29072005221E+03  0.12500232789E+03 0.  0.
          2    1    1    2  501    0 -0.94303486359E+02 -0.98399753594E+02 -0.98162562959E+02  0.16796293583E+03  0.00000000000E+00 0. -1.
          1    1    1    2  502    0  0.72986984613E+02  0.25714531568E+03  0.21899267024E+04  0.22061799055E+04  0.00000000000E+00 0. -1.
         22    1    3    3    0    0 -0.16107638255E+02 -0.16414469790E+03  0.16150482426E+03  0.23083922136E+03  0.00000000000E+00 0.  1.
         22    1    3    3    0    0  0.37424140000E+02  0.53991358120E+01  0.46432714555E+02  0.59880830850E+02  0.00000000000E+00 0.  1.
</event>
<event>
 7    1  0.7118985E-006  0.1850632E+03  0.7818608E-02  0.1342917E+00
          2   -1    0    0  502    0  0.00000000000E+00  0.00000000000E+00  0.17764090226E+03  0.17764090226E+03  0.00000000000E+00 0. -1.
          1   -1    0    0  501    0 -0.00000000000E+00 -0.00000000000E+00 -0.18964987999E+04  0.18964987999E+04  0.00000000000E+00 0. -1.
         25    2    1    2    0    0  0.13296293427E+03  0.14131470174E+03 -0.30109808835E+02  0.23276719821E+03  0.12499992463E+03 0.  0.
          2    1    1    2  501    0 -0.14577922377E+03 -0.11347743564E+03 -0.17569321268E+04  0.17666180144E+04  0.00000000000E+00 0. -1.
          1    1    1    2  502    0  0.12816289497E+02 -0.27837266099E+02  0.68184038047E+02  0.74754489529E+02  0.00000000000E+00 0. -1.
         22    1    3    3    0    0  0.15317471719E+03  0.95437627635E+02 -0.19496012676E+02  0.18152390825E+03  0.00000000000E+00 0.  1.
         22    1    3    3    0    0 -0.20211782923E+02  0.45877074105E+02 -0.10613796159E+02  0.51243289963E+02  0.00000000000E+00 0.  1.
</event>
<event>
 7    1  0.7118985E-006  0.2712446E+03  0.7818608E-02  0.1182239E+00
          2   -1    0    0  502    0  0.00000000000E+00  0.00000000000E+00  0.56004698828E+03  0.56004698828E+03  0.00000000000E+00 0. -1.
          1   -1    0    0  501    0 -0.00000000000E+00 -0.00000000000E+00 -0.11523815193E+04  0.11523815193E+04  0.00000000000E+00 0. -1.
         25    2    1    2    0    0 -0.13960121783E+03 -0.18248115936E+03 -0.12032971276E+03  0.28790902051E+03  0.12499796309E+03 0.  0.
          2    1    1    2  501    0  0.53436732382E+02 -0.86195009306E+02 -0.90338433120E+03  0.90905902661E+03  0.00000000000E+00 0. -1.
          1    1    1    2  502    0  0.86164485446E+02  0.26867616867E+03  0.43137951291E+03  0.51546046048E+03  0.00000000000E+00 0. -1.
         22    1    3    3    0    0 -0.13015311817E+03 -0.15186356524E+03 -0.14536045915E+03  0.24724894277E+03  0.00000000000E+00 0.  1.
         22    1    3    3    0    0 -0.94480996583E+01 -0.30617594118E+02  0.25030746391E+02  0.40660077738E+02  0.00000000000E+00 0.  1.
</event>
<event>
 7    1  0.7118985E-006  0.2196542E+03  0.7818608E-02  0.1347051E+00
          2   -1    0    0  502    0  0.00000000000E+00  0.00000000000E+00  0.12436796834E+04  0.12436796834E+04  0.00000000000E+00 0. -1.
          1   -1    0    0  501    0 -0.00000000000E+00 -0.00000000000E+00 -0.81321733081E+03  0.81321733081E+03  0.00000000000E+00 0. -1.
         25    2    1    2    0    0  0.87722788293E+02 -0.19296530242E+03 -0.26029003106E+03  0.35819889366E+03  0.12499860649E+03 0.  0.
          2    1    1    2  501    0  0.24615722430E+02  0.38718690159E+01 -0.49353298843E+03  0.49416164950E+03  0.00000000000E+00 0. -1.
          1    1    1    2  502    0 -0.11233851072E+03  0.18909343340E+03  0.11842853721E+04  0.12045364711E+04  0.00000000000E+00 0. -1.
         22    1    3    3    0    0 -0.10880332793E+02  0.59256952412E+01  0.40265781227E+01  0.13027234440E+02  0.00000000000E+00 0. -1.
         22    1    3    3    0    0  0.98603121085E+02 -0.19889099766E+03 -0.26431660919E+03  0.34517165922E+03  0.00000000000E+00 0. -1.
</event>
<event>
 7    1  0.7118985E-006  0.8299882E+02  0.7818608E-02  0.1404993E+00
          2   -1    0    0  502    0  0.00000000000E+00  0.00000000000E+00  0.18159428560E+04  0.18159428560E+04  0.00000000000E+00 0. -1.
          1   -1    0    0  501    0 -0.00000000000E+00 -0.00000000000E+00 -0.80165591119E+03  0.80165591119E+03  0.00000000000E+00 0. -1.
         25    2    1    2    0    0 -0.49407533257E+02  0.13301228634E+02  0.60879306595E+03  0.62359715940E+03  0.12500557202E+03 0.  0.
          2    1    1    2  501    0 -0.32729352327E+02  0.24673782550E+02 -0.79201686072E+03  0.79307673885E+03  0.00000000000E+00 0. -1.
          1    1    1    2  502    0  0.82136885584E+02 -0.37975011183E+02  0.11975107396E+04  0.12009248689E+04  0.00000000000E+00 0. -1.
         22    1    3    3    0    0 -0.39022466794E+01  0.62990233842E+02  0.21461292432E+03  0.22370003213E+03  0.00000000000E+00 0.  1.
         22    1    3    3    0    0 -0.45505286578E+02 -0.49689005208E+02  0.39418014163E+03  0.39989712727E+03  0.00000000000E+00 0.  1.
</event>
<event>
 7    1  0.7118985E-006  0.5728549E+02  0.7818608E-02  0.1429554E+00
          2   -1    0    0  502    0  0.00000000000E+00  0.00000000000E+00  0.35083632244E+04  0.35083632244E+04  0.00000000000E+00 0. -1.
          1   -1    0    0  501    0 -0.00000000000E+00 -0.00000000000E+00 -0.31863361604E+04  0.31863361604E+04  0.00000000000E+00 0. -1.
         25    2    1    2    0    0  0.47192715821E+02  0.55932261435E+02 -0.25534292335E+03  0.29356313148E+03  0.12499493335E+03 0.  0.
          2    1    1    2  501    0 -0.56797913752E+02 -0.77536009703E+01 -0.29114280522E+04  0.29119923462E+04  0.00000000000E+00 0. -1.
          1    1    1    2  502    0  0.96051979311E+01 -0.48178660465E+02  0.34887980396E+04  0.34891439071E+04  0.00000000000E+00 0. -1.
         22    1    3    3    0    0 -0.33791165968E+01  0.38118317335E+02 -0.62621409213E+01  0.38776783703E+02  0.00000000000E+00 0. -1.
         22    1    3    3    0    0  0.50571832417E+02  0.17813944100E+02 -0.24908078243E+03  0.25478634778E+03  0.00000000000E+00 0. -1.
</event>
<event>
 7    1  0.7118985E-006  0.1127376E+03  0.7818608E-02  0.1317208E+00
          2   -1    0    0  502    0  0.00000000000E+00  0.00000000000E+00  0.77990294141E+03  0.77990294141E+03  0.00000000000E+00 0. -1.
          1   -1    0    0  501    0 -0.00000000000E+00 -0.00000000000E+00 -0.52831932744E+03  0.52831932744E+03  0.00000000000E+00 0. -1.
         25    2    1    2    0    0  0.14591459088E+03  0.74258375102E+02  0.22625962195E+03  0.30597924563E+03  0.12499803249E+03 0.  0.
          2    1    1    2  501    0 -0.10926266711E+03 -0.22927872912E+02 -0.48009439911E+03  0.49290430089E+03  0.00000000000E+00 0. -1.
          1    1    1    2  502    0 -0.36651923775E+02 -0.51330502190E+02  0.50541839113E+03  0.50933872233E+03  0.00000000000E+00 0. -1.
         22    1    3    3    0    0  0.26355510085E+02 -0.34687684151E+02  0.38339041679E+02  0.58032150231E+02  0.00000000000E+00 0.  1.
         22    1    3    3    0    0  0.11955908080E+03  0.10894605925E+03  0.18792058027E+03  0.24794709540E+03  0.00000000000E+00 0.  1.
</event>
<event>
 7    1  0.7118985E-006  0.1217024E+03  0.7818608E-02  0.1408921E+00
          2   -1    0    0  502    0  0.00000000000E+00  0.00000000000E+00  0.26711207152E+03  0.26711207152E+03  0.00000000000E+00 0. -1.
          1   -1    0    0  501    0 -0.00000000000E+00 -0.00000000000E+00 -0.86101890471E+03  0.86101890471E+03  0.00000000000E+00 0. -1.
         25    2    1    2    0    0  0.12390189023E+02 -0.13361340247E+03 -0.20805001707E+03  0.27733576316E+03  0.12499703124E+03 0.  0.
          2    1    1    2  501    0  0.10713602565E+02  0.11943844279E+03 -0.61169375246E+03  0.62333744449E+03  0.00000000000E+00 0. -1.
          1    1    1    2  502    0 -0.23103791587E+02  0.14174959687E+02  0.22583693635E+03  0.22745776858E+03  0.00000000000E+00 0. -1.
         22    1    3    3    0    0 -0.28468163493E+02 -0.38560870126E+02 -0.34390282352E+01  0.48054177266E+02  0.00000000000E+00 0. -1.
         22    1    3    3    0    0  0.40858352515E+02 -0.95052532346E+02 -0.20461098884E+03  0.22928158589E+03  0.00000000000E+00 0. -1.
</event>
<event>
 7    1  0.7118985E-006  0.6798965E+02  0.7818608E-02  0.1437930E+00
          2   -1    0    0  502    0  0.00000000000E+00  0.00000000000E+00  0.62122951463E+02  0.62122951463E+02  0.00000000000E+00 0. -1.
          1   -1    0    0  501    0 -0.00000000000E+00 -0.00000000000E+00 -0.22417030220E+04  0.22417030220E+04  0.00000000000E+00 0. -1.
         25    2    1    2    0    0  0.26540268215E+01 -0.91343248001E+02 -0.85768497835E+02  0.17700763160E+03  0.12499933443E+03 0.  0.
          2    1    1    2  501    0  0.16587197497E+02  0.35141145073E+02 -0.20560727644E+04  0.20564399451E+04  0.00000000000E+00 0. -1.
          1    1    1    2  502    0 -0.19241224319E+02  0.56202102928E+02 -0.37738808363E+02  0.70378396852E+02  0.00000000000E+00 0. -1.
         22    1    3    3    0    0 -0.47777316846E+02  0.22278708595E+01 -0.34631177468E+02  0.59050434939E+02  0.00000000000E+00 0.  1.
         22    1    3    3    0    0  0.50431343668E+02 -0.93571118860E+02 -0.51137320367E+02  0.11795719666E+03  0.00000000000E+00 0.  1.
</event>
<event>
 7    1  0.7118985E-006  0.1147776E+03  0.7818608E-02  0.1423863E+00
          2   -1    0    0  502    0  0.00000000000E+00  0.00000000000E+00  0.20170276324E+04  0.20170276324E+04  0.00000000000E+00 0. -1.
          1   -1    0    0  501    0 -0.00000000000E+00 -0.00000000000E+00 -0.64772894510E+03  0.64772894510E+03  0.00000000000E+00 0. -1.
         25    2    1    2    0    0 -0.11754119118E+03  0.50105439880E+02 -0.35293374281E+03  0.39561708753E+03  0.12499666557E+03 0.  0.
          2    1    1    2  501    0  0.55951283023E+01 -0.24986628997E+02 -0.27120107342E+03  0.27240715723E+03  0.00000000000E+00 0. -1.
          1    1    1    2  502    0  0.11194606287E+03 -0.25118810884E+02  0.19934335035E+04  0.19967323327E+04  0.00000000000E+00 0. -1.
         22    1    3    3    0    0 -0.10966407600E+03  0.16203068309E+02 -0.34140584412E+03  0.35895222438E+03  0.00000000000E+00 0.  1.
         22    1    3    3    0    0 -0.78771151730E+01  0.33902371572E+02 -0.11527898690E+02  0.36664863151E+02  0.00000000000E+00 0.  1.
</event>
<event>
 7    1  0.7118985E-006  0.1091430E+03  0.7818608E-02  0.1410176E+00
          2   -1    0    0  502    0  0.00000000000E+00  0.00000000000E+00  0.18659051815E+04  0.18659051815E+04  0.00000000000E+00 0. -1.
          1   -1    0    0  501    0 -0.00000000000E+00 -0.00000000000E+00 -0.38627421002E+03  0.38627421002E+03  0.00000000000E+00 0. -1.
         25    2    1    2    0    0 -0.74323712653E+02  0.11116342230E+03  0.11795625770E+04  0.11936804854E+04  0.12499562960E+03 0.  0.
          2    1    1    2  501    0  0.47367043768E+02 -0.98158038343E+02 -0.37104376220E+03  0.38671967986E+03  0.00000000000E+00 0. -1.
          1    1    1    2  502    0  0.26956668885E+02 -0.13005383957E+02  0.67111215673E+03  0.67177922633E+03  0.00000000000E+00 0. -1.
         22    1    3    3    0    0 -0.41835736044E+02  0.12370721989E+03  0.65082905902E+03  0.66380130244E+03  0.00000000000E+00 0.  1.
         22    1    3    3    0    0 -0.32487976609E+02 -0.12543797588E+02  0.52873351795E+03  0.52987918292E+03  0.00000000000E+00 0.  1.
</event>
<event>
 7    1  0.7118985E-006  0.4684003E+02  0.7818608E-02  0.1509191E+00
          2   -1    0    0  502    0  0.00000000000E+00  0.00000000000E+00  0.62217411418E+03  0.62217411418E+03  0.00000000000E+00 0. -1.
          1   -1    0    0  501    0 -0.00000000000E+00 -0.00000000000E+00 -0.18922678653E+04  0.18922678653E+04  0.00000000000E+00 0. -1.
         25    2    1    2    0    0 -0.16794917329E+02  0.76673496695E+01 -0.13470769441E+03  0.18470364073E+03  0.12501365712E+03 0.  0.
          2    1    1    2  501    0 -0.29256128813E+02 -0.17189553489E+02 -0.17314699480E+04  0.17318024086E+04  0.00000000000E+00 0. -1.
          1    1    1    2  502    0  0.46051046141E+02  0.95222038200E+01  0.59608389121E+03  0.59793593016E+03  0.00000000000E+00 0. -1.
         22    1    3    3    0    0 -0.20086526588E+02 -0.52769909837E+02 -0.30452061608E+02  0.64151851032E+02  0.00000000000E+00 0. -1.
         22    1    3    3    0    0  0.32916092592E+01  0.60437259507E+02 -0.10425563280E+03  0.12055178970E+03  0.00000000000E+00 0. -1.
</event>
<event>
 7    1  0.7118985E-006  0.4505791E+02  0.7818608E-02  0.1504063E+00
          2   -1    0    0  502    0  0.00000000000E+00  0.00000000000E+00  0.34657382601E+03  0.34657382601E+03  0.00000000000E+00 0. -1.
          1   -1    0    0  501    0 -0.00000000000E+00 -0.00000000000E+00 -0.26394612756E+03  0.26394612756E+03  0.00000000000E+00 0. -1.
         25    2    1    2    0    0 -0.17044155831E+02 -0.34499465570E+02 -0.94304102488E+02  0.16123796616E+03  0.12499480635E+03 0.  0.
          2    1    1    2  501    0  0.45839455086E+02  0.12024605839E+02 -0.13093936142E+03  0.13925143861E+03  0.00000000000E+00 0. -1.
          1    1    1    2  502    0 -0.28795299255E+02  0.22474859731E+02  0.30787116235E+03  0.31003054880E+03  0.00000000000E+00 0. -1.
         22    1    3    3    0    0  0.79991048983E+01 -0.78062123876E+02 -0.43233620816E+02  0.89592560138E+02  0.00000000000E+00 0.  1.
         22    1    3    3    0    0 -0.25043260729E+02  0.43562658306E+02 -0.51070481672E+02  0.71645406027E+02  0.00000000000E+00 0.  1.
</event>
<event>
 7    1  0.7118985E-006  0.4390052E+02  0.7818608E-02  0.1592372E+00
          2   -1    0    0  502    0  0.00000000000E+00  0.00000000000E+00  0.27772031922E+04  0.27772031922E+04  0.00000000000E+00 0. -1.
          1   -1    0    0  501    0 -0.00000000000E+00 -0.00000000000E+00 -0.11808816332E+02  0.11808816332E+02  0.00000000000E+00 0. -1.
         25    2    1    2    0    0 -0.31414486726E+02 -0.36082332397E+02  0.62339744485E+03  0.63760283514E+03  0.12499678577E+03 0.  0.
          2    1    1    2  501    0  0.20234989395E+02 -0.63990959550E+01  0.20662470609E+02  0.29619941197E+02  0.00000000000E+00 0. -1.
          1    1    1    2  502    0  0.11179497332E+02  0.42481428352E+02  0.21213344604E+04  0.21217892321E+04  0.00000000000E+00 0. -1.
         22    1    3    3    0    0 -0.14279052984E+01 -0.34635005235E+02  0.59585125163E+03  0.59685872413E+03  0.00000000000E+00 0.  1.
         22    1    3    3    0    0 -0.29986581428E+02 -0.14473271618E+01  0.27546193222E+02  0.40744111018E+02  0.00000000000E+00 0.  1.
</event>
<event>
 7    1  0.7118985E-006  0.4027545E+02  0.7818608E-02  0.1535517E+00
          2   -1    0    0  502    0  0.00000000000E+00  0.00000000000E+00  0.34023821424E+03  0.34023821424E+03  0.00000000000E+00 0. -1.
          1   -1    0    0  501    0 -0.00000000000E+00 -0.00000000000E+00 -0.22147659817E+03  0.22147659817E+03  0.00000000000E+00 0. -1.
         25    2    1    2    0    0  0.57063991378E+01 -0.10547652201E+02 -0.55653098437E+02  0.13735211858E+03  0.12499808461E+03 0.  0.
          2    1    1    2  501    0 -0.16430073875E+02 -0.28747730028E+02 -0.12136023623E+03  0.12579620919E+03  0.00000000000E+00 0. -1.
          1    1    1    2  502    0  0.10723674737E+02  0.39295382229E+02  0.29577495073E+03  0.29856648463E+03  0.00000000000E+00 0. -1.
         22    1    3    3    0    0 -0.13206936120E+02  0.49909860419E+02 -0.52941253526E+02  0.73947235605E+02  0.00000000000E+00 0. -1.
         22    1    3    3    0    0  0.18913335258E+02 -0.60457512620E+02 -0.27118449102E+01  0.63404882979E+02  0.00000000000E+00 0. -1.
</event>
<event>
 7    1  0.7118985E-006  0.6287554E+02  0.7818608E-02  0.1433541E+00
          2   -1    0    0  502    0  0.00000000000E+00  0.00000000000E+00  0.53441957121E+03  0.53441957121E+03  0.00000000000E+00 0. -1.
          1   -1    0    0  501    0 -0.00000000000E+00 -0.00000000000E+00 -0.18931370810E+04  0.18931370810E+04  0.00000000000E+00 0. -1.
         25    2    1    2    0    0  0.75070496180E+02  0.47035821439E+02  0.12099919802E+03  0.19522736664E+03  0.12499988348E+03 0.  0.
          2    1    1    2  501    0 -0.32194082752E+02 -0.53945303855E+02 -0.18542362221E+04  0.18553001164E+04  0.00000000000E+00 0. -1.
          1    1    1    2  502    0 -0.42876413428E+02  0.69094824159E+01  0.37451951429E+03  0.37702916911E+03  0.00000000000E+00 0. -1.
         22    1    3    3    0    0 -0.17826601599E+02  0.12083452769E+02  0.88051354642E+02  0.90646779367E+02  0.00000000000E+00 0.  1.
         22    1    3    3    0    0  0.92897097779E+02  0.34952368670E+02  0.32947843375E+02  0.10458058727E+03  0.00000000000E+00 0.  1.
</event>
<event>
 7    1  0.7118985E-006  0.5140647E+02  0.7818608E-02  0.1565821E+00
          2   -1    0    0  502    0  0.00000000000E+00  0.00000000000E+00  0.80433932614E+03  0.80433932614E+03  0.00000000000E+00 0. -1.
          1   -1    0    0  501    0 -0.00000000000E+00 -0.00000000000E+00 -0.18487646803E+03  0.18487646803E+03  0.00000000000E+00 0. -1.
         25    2    1    2    0    0 -0.11478411097E+02  0.39989463908E+02  0.23176629437E+03  0.26659072333E+03  0.12499634961E+03 0.  0.
          2    1    1    2  501    0 -0.21343487920E+02  0.75566616034E+00 -0.16554403289E+03  0.16691597388E+03  0.00000000000E+00 0. -1.
          1    1    1    2  502    0  0.32821899018E+02 -0.40745130069E+02  0.55324059663E+03  0.55570909696E+03  0.00000000000E+00 0. -1.
         22    1    3    3    0    0  0.11251812844E+02 -0.39448939003E+02  0.12517050808E+03  0.13172121384E+03  0.00000000000E+00 0. -1.
         22    1    3    3    0    0 -0.22730223942E+02  0.79438402912E+02  0.10659578628E+03  0.13486950949E+03  0.00000000000E+00 0. -1.
</event>
<event>
 7    1  0.7118985E-006  0.1603448E+03  0.7818608E-02  0.1266933E+00
          2   -1    0    0  502    0  0.00000000000E+00  0.00000000000E+00  0.85394996489E+03  0.85394996489E+03  0.00000000000E+00 0. -1.
          1   -1    0    0  501    0 -0.00000000000E+00 -0.00000000000E+00 -0.28120680382E+04  0.28120680382E+04  0.00000000000E+00 0. -1.
         25    2    1    2    0    0 -0.17851235020E+03  0.11163139744E+03 -0.14072481526E+04  0.14283910571E+04  0.12500168276E+03 0.  0.
          2    1    1    2  501    0  0.13022588824E+03 -0.59695601448E+02 -0.13890674117E+04  0.13964349684E+04  0.00000000000E+00 0. -1.
          1    1    1    2  502    0  0.48286461959E+02 -0.51935795990E+02  0.83819749100E+03  0.84119197763E+03  0.00000000000E+00 0. -1.
         22    1    3    3    0    0 -0.13715472473E+03  0.64357665405E+02 -0.60475799982E+03  0.62344652213E+03  0.00000000000E+00 0. -1.
         22    1    3    3    0    0 -0.41357625463E+02  0.47273732034E+02 -0.80249015282E+03  0.80494453492E+03  0.00000000000E+00 0. -1.
</event>
<event>
 7    1  0.7118985E-006  0.1476007E+03  0.7818608E-02  0.1249515E+00
          2   -1    0    0  502    0  0.00000000000E+00  0.00000000000E+00  0.37913258887E+03  0.37913258887E+03  0.00000000000E+00 0. -1.
          1   -1    0    0  501    0 -0.00000000000E+00 -0.00000000000E+00 -0.18646382498E+04  0.18646382498E+04  0.00000000000E+00 0. -1.
         25    2    1    2    0    0 -0.50139601151E+02  0.30810560958E+02 -0.76517016922E+03  0.77754451205E+03  0.12500724009E+03 0.  0.
          2    1    1    2  501    0 -0.86894847031E+02  0.28555997728E+02 -0.10763125287E+04  0.10801920287E+04  0.00000000000E+00 0. -1.
          1    1    1    2  502    0  0.13703444818E+03 -0.59366558686E+02  0.35597703701E+03  0.38603429790E+03  0.00000000000E+00 0. -1.
         22    1    3    3    0    0  0.23430050331E+02 -0.74935085654E+01 -0.47808629407E+03  0.47871873215E+03  0.00000000000E+00 0. -1.
         22    1    3    3    0    0 -0.73569651482E+02  0.38304069523E+02 -0.28708387515E+03  0.29882577990E+03  0.00000000000E+00 0. -1.
</event>
<event>
 7    1  0.7118985E-006  0.6405214E+02  0.7818608E-02  0.1394837E+00
          2   -1    0    0  502    0  0.00000000000E+00  0.00000000000E+00  0.11656516125E+04  0.11656516125E+04  0.00000000000E+00 0. -1.
          1   -1    0    0  501    0 -0.00000000000E+00 -0.00000000000E+00 -0.72242688406E+02  0.72242688406E+02  0.00000000000E+00 0. -1.
         25    2    1    2    0    0 -0.92120903190E+02  0.68280047744E+02  0.29729381001E+03  0.34228246586E+03  0.12500100497E+03 0.  0.
          2    1    1    2  501    0  0.34634994443E+02 -0.45973614480E+02 -0.31559026459E+02  0.65643950365E+02  0.00000000000E+00 0. -1.
          1    1    1    2  502    0  0.57485908747E+02 -0.22306433264E+02  0.82767414060E+03  0.82996788473E+03  0.00000000000E+00 0. -1.
         22    1    3    3    0    0  0.21191579489E+02 -0.77559029382E+01  0.99214481462E+02  0.10174846634E+03  0.00000000000E+00 0. -1.
         22    1    3    3    0    0 -0.11331248268E+03  0.76035950683E+02  0.19807932854E+03  0.24053399952E+03  0.00000000000E+00 0. -1.
</event>
<event>
 7    1  0.7118985E-006  0.4600880E+02  0.7818608E-02  0.1483871E+00
          2   -1    0    0  502    0  0.00000000000E+00  0.00000000000E+00  0.19597991343E+04  0.19597991343E+04  0.00000000000E+00 0. -1.
          1   -1    0    0  501    0 -0.00000000000E+00 -0.00000000000E+00 -0.48593170148E+03  0.48593170148E+03  0.00000000000E+00 0. -1.
         25    2    1    2    0    0  0.14859664115E+02 -0.43572582388E+02  0.32595114414E+03  0.35212266839E+03  0.12500738248E+03 0.  0.
          2    1    1    2  501    0 -0.40833771294E+02  0.50482782380E+01 -0.47161708687E+03  0.47340844798E+03  0.00000000000E+00 0. -1.
          1    1    1    2  502    0  0.25974107179E+02  0.38524304150E+02  0.16195333755E+04  0.16201997194E+04  0.00000000000E+00 0. -1.
         22    1    3    3    0    0  0.26900278382E+02 -0.18987684598E+02  0.91957206009E+01  0.34186523965E+02  0.00000000000E+00 0.  1.
         22    1    3    3    0    0 -0.12040614267E+02 -0.24584897789E+02  0.31675542354E+03  0.31793614443E+03  0.00000000000E+00 0.  1.
</event>
<event>
 7    1  0.7118985E-006  0.5459037E+02  0.7818608E-02  0.1436464E+00
          2   -1    0    0  502    0  0.00000000000E+00  0.00000000000E+00  0.19220842356E+04  0.19220842356E+04  0.00000000000E+00 0. -1.
          1   -1    0    0  501    0 -0.00000000000E+00 -0.00000000000E+00 -0.51980401747E+02  0.51980401747E+02  0.00000000000E+00 0. -1.
         25    2    1    2    0    0  0.18429485460E+02 -0.51256818597E+02  0.52283007352E+02  0.14603293059E+03  0.12500078629E+03 0.  0.
          2    1    1    2  501    0  0.33968206931E+02  0.35221504115E+02  0.12372460389E+03  0.13304950598E+03  0.00000000000E+00 0. -1.
          1    1    1    2  502    0 -0.52397692390E+02  0.16035314482E+02  0.16940962226E+04  0.16949822007E+04  0.00000000000E+00 0. -1.
         22    1    3    3    0    0 -0.35352159673E+01  0.27462787129E+02  0.57831249365E+02  0.64118295610E+02  0.00000000000E+00 0. -1.
         22    1    3    3    0    0  0.21964701427E+02 -0.78719605726E+02 -0.55482420132E+01  0.81914634980E+02  0.00000000000E+00 0. -1.
</event>
<event>
 7    1  0.7118985E-006  0.5363895E+02  0.7818608E-02  0.1486346E+00
          2   -1    0    0  502    0  0.00000000000E+00  0.00000000000E+00  0.10073473719E+04  0.10073473719E+04  0.00000000000E+00 0. -1.
          1   -1    0    0  501    0 -0.00000000000E+00 -0.00000000000E+00 -0.67554585796E+02  0.67554585796E+02  0.00000000000E+00 0. -1.
         25    2    1    2    0    0  0.25298916877E+02 -0.83106997654E+02  0.34956136612E+03  0.38126794953E+03  0.12500116961E+03 0.  0.
          2    1    1    2  501    0 -0.12234364012E+02  0.50976866379E+02 -0.37809210546E+02  0.64636344038E+02  0.00000000000E+00 0. -1.
          1    1    1    2  502    0 -0.13064552865E+02  0.32130131275E+02  0.62804063054E+03  0.62899766413E+03  0.00000000000E+00 0. -1.
         22    1    3    3    0    0  0.14377476782E+02 -0.10876914670E+03  0.32844733087E+03  0.34628758030E+03  0.00000000000E+00 0.  1.
         22    1    3    3    0    0  0.10921440095E+02  0.25662149044E+02  0.21114035248E+02  0.34980369234E+02  0.00000000000E+00 0.  1.
</event>
<event>
 7    1  0.7118985E-006  0.8347502E+02  0.7818608E-02  0.1451852E+00
          2   -1    0    0  502    0  0.00000000000E+00  0.00000000000E+00  0.16714146907E+04  0.16714146907E+04  0.00000000000E+00 0. -1.
          1   -1    0    0  501    0 -0.00000000000E+00 -0.00000000000E+00 -0.23780215699E+03  0.23780215699E+03  0.00000000000E+00 0. -1.
         25    2    1    2    0    0 -0.78986546867E+02 -0.32748271048E+02 -0.66947099412E+02  0.16558252263E+03  0.12499733533E+03 0.  0.
          2    1    1    2  501    0 -0.43904355652E+01  0.28204010349E+02 -0.11877075764E+03  0.12215250711E+03  0.00000000000E+00 0. -1.
          1    1    1    2  502    0  0.83376982433E+02  0.45442606989E+01  0.16193303907E+04  0.16214818179E+04  0.00000000000E+00 0. -1.
         22    1    3    3    0    0 -0.19373722637E+02 -0.52826378617E+01 -0.92867654348E+02  0.95013939060E+02  0.00000000000E+00 0. -1.
         22    1    3    3    0    0 -0.59612824231E+02 -0.27465633186E+02  0.25920554936E+02  0.70568583572E+02  0.00000000000E+00 0. -1.
</event>
<event>
 7    1  0.7118985E-006  0.9158068E+02  0.7818608E-02  0.1446796E+00
          2   -1    0    0  502    0  0.00000000000E+00  0.00000000000E+00  0.57653692064E+03  0.57653692064E+03  0.00000000000E+00 0. -1.
          1   -1    0    0  501    0 -0.00000000000E+00 -0.00000000000E+00 -0.18791178192E+04  0.18791178192E+04  0.00000000000E+00 0. -1.
         25    2    1    2    0    0  0.11716686750E+03  0.18664581642E+01 -0.54148767322E+01  0.17142341832E+03  0.12500043581E+03 0.  0.
          2    1    1    2  501    0 -0.91082264601E+02  0.51268611692E+01 -0.17891662505E+04  0.17914904788E+04  0.00000000000E+00 0. -1.
          1    1    1    2  502    0 -0.26084602903E+02 -0.69933193334E+01  0.49200022871E+03  0.49274084271E+03  0.00000000000E+00 0. -1.
         22    1    3    3    0    0 -0.14429822812E+02 -0.19722213821E+02 -0.26905831141E+02  0.36347066647E+02  0.00000000000E+00 0. -1.
         22    1    3    3    0    0  0.13159669032E+03  0.21588671986E+02  0.21490954409E+02  0.13507635167E+03  0.00000000000E+00 0. -1.
</event>
<event>
 7    1  0.7118985E-006  0.8161863E+02  0.7818608E-02  0.1477764E+00
          2   -1    0    0  502    0  0.00000000000E+00  0.00000000000E+00  0.22113472350E+03  0.22113472350E+03  0.00000000000E+00 0. -1.
          1   -1    0    0  501    0 -0.00000000000E+00 -0.00000000000E+00 -0.13995358684E+03  0.13995358684E+03  0.00000000000E+00 0. -1.
         25    2    1    2    0    0 -0.44062834260E+02  0.76309385029E+02  0.41697694606E+02  0.15851980956E+03  0.12500070672E+03 0.  0.
          2    1    1    2  501    0  0.57891978758E+02 -0.56432049250E+02 -0.59682397761E+02  0.10048903418E+03  0.00000000000E+00 0. -1.
          1    1    1    2  502    0 -0.13829144498E+02 -0.19877335779E+02  0.99165839813E+02  0.10207946660E+03  0.00000000000E+00 0. -1.
         22    1    3    3    0    0 -0.12459862602E+02 -0.25858326652E+02 -0.20065803291E+02  0.35021960182E+02  0.00000000000E+00 0.  1.
         22    1    3    3    0    0 -0.31602971658E+02  0.10216771168E+03  0.61763497897E+02  0.12349784938E+03  0.00000000000E+00 0.  1.
</event>
<event>
 7    1  0.7118985E-006  0.6639897E+02  0.7818608E-02  0.1492834E+00
          2   -1    0    0  502    0  0.00000000000E+00  0.00000000000E+00  0.23414015654E+04  0.23414015654E+04  0.00000000000E+00 0. -1.
          1   -1    0    0  501    0 -0.00000000000E+00 -0.00000000000E+00 -0.22043676895E+03  0.22043676895E+03  0.00000000000E+00 0. -1.
         25    2    1    2    0    0 -0.48491614216E+02  0.10615758394E+02 -0.27906524624E+02  0.13735305172E+03  0.12499182263E+03 0.  0.
          2    1    1    2  501    0 -0.17293821836E+02 -0.20447648305E+02 -0.13601734165E+03  0.13862863998E+03  0.00000000000E+00 0. -1.
          1    1    1    2  502    0  0.65785436053E+02  0.98318899101E+01  0.22848886627E+04  0.22858566426E+04  0.00000000000E+00 0. -1.
         22    1    3    3    0    0  0.16744004773E+01  0.61766408519E+02 -0.21497081437E+02  0.65421841526E+02  0.00000000000E+00 0.  1.
         22    1    3    3    0    0 -0.50166014694E+02 -0.51150650125E+02 -0.64094431873E+01  0.71931210197E+02  0.00000000000E+00 0.  1.
</event>
<event>
 7    1  0.7118985E-006  0.9950141E+02  0.7818608E-02  0.1326688E+00
          2   -1    0    0  502    0  0.00000000000E+00  0.00000000000E+00  0.17156778675E+04  0.17156778675E+04  0.00000000000E+00 0. -1.
          1   -1    0    0  501    0 -0.00000000000E+00 -0.00000000000E+00 -0.14233570852E+03  0.14233570852E+03  0.00000000000E+00 0. -1.
         25    2    1    2    0    0 -0.44119961943E+02 -0.10644019346E+03  0.14534523976E+03  0.22366440832E+03  0.12499777199E+03 0.  0.
          2    1    1    2  501    0 -0.39610048355E+02  0.52387217785E+02 -0.90923522742E+02  0.11216266538E+03  0.00000000000E+00 0. -1.
          1    1    1    2  502    0  0.83730010298E+02  0.54052975672E+02  0.15189204419E+04  0.15221865023E+04  0.00000000000E+00 0. -1.
         22    1    3    3    0    0 -0.62912243843E+02 -0.12138416081E+03  0.14549807830E+03  0.19965409014E+03  0.00000000000E+00 0.  1.
         22    1    3    3    0    0  0.18792281901E+02  0.14943967352E+02 -0.15283854353E+00  0.24010318175E+02  0.00000000000E+00 0.  1.
</event>
<event>
 7    1  0.7118985E-006  0.5558988E+02  0.7818608E-02  0.1434344E+00
          2   -1    0    0  502    0  0.00000000000E+00  0.00000000000E+00  0.18867080578E+04  0.18867080578E+04  0.00000000000E+00 0. -1.
          1   -1    0    0  501    0 -0.00000000000E+00 -0.00000000000E+00 -0.40421003874E+03  0.40421003874E+03  0.00000000000E+00 0. -1.
         25    2    1    2    0    0 -0.23489775639E+01  0.46347072858E+02  0.73095189425E+02  0.15205993960E+03  0.12500299858E+03 0.  0.
          2    1    1    2  501    0 -0.44837845348E+02 -0.33804559270E+02 -0.36222800659E+03  0.36655464717E+03  0.00000000000E+00 0. -1.
          1    1    1    2  502    0  0.47186822912E+02 -0.12542513588E+02  0.17716308362E+04  0.17723035098E+04  0.00000000000E+00 0. -1.
         22    1    3    3    0    0 -0.15170710773E+02  0.46029306605E+02 -0.24027490066E+02  0.54094064469E+02  0.00000000000E+00 0. -1.
         22    1    3    3    0    0  0.12821733209E+02  0.31776625370E+00  0.97122679491E+02  0.97965875127E+02  0.00000000000E+00 0. -1.
</event>
<event>
 7    1  0.7118985E-006  0.1131365E+03  0.7818608E-02  0.1367786E+00
          2   -1    0    0  502    0  0.00000000000E+00  0.00000000000E+00  0.38252534060E+03  0.38252534060E+03  0.00000000000E+00 0. -1.
          1   -1    0    0  501    0 -0.00000000000E+00 -0.00000000000E+00 -0.34111066472E+04  0.34111066472E+04  0.00000000000E+00 0. -1.
         25    2    1    2    0    0 -0.49170335777E+02  0.73028595322E+02 -0.64931915999E+03  0.66707667971E+03  0.12500010969E+03 0.  0.
          2    1    1    2  501    0 -0.40474046771E+02 -0.33775130550E+01 -0.27441322732E+04  0.27444328173E+04  0.00000000000E+00 0. -1.
          1    1    1    2  502    0  0.89644382548E+02 -0.69651082267E+02  0.36487012665E+03  0.38212249071E+03  0.00000000000E+00 0. -1.
         22    1    3    3    0    0 -0.71629045119E+02  0.48911728029E+02 -0.60833195280E+03  0.61448420813E+03  0.00000000000E+00 0.  1.
         22    1    3    3    0    0  0.22458709341E+02  0.24116867293E+02 -0.40987207189E+02  0.52592471576E+02  0.00000000000E+00 0.  1.
</event>
<event>
 7    1  0.8044541E-006  0.5204830E+02  0.7818608E-02  0.1486073E+00
          2   -1    0    0  502    0  0.00000000000E+00  0.00000000000E+00  0.22784204442E+04  0.22784204442E+04  0.00000000000E+00 0. -1.
          1   -1    0    0  501    0 -0.00000000000E+00 -0.00000000000E+00 -0.12371111079E+04  0.12371111079E+04  0.00000000000E+00 0. -1.
         25    2    1    2    0    0  0.31089495819E+02 -0.82373896363E+01 -0.97366666335E+02  0.16168119932E+03  0.12500452456E+03 0.  0.
          2    1    1    2  501    0 -0.46833204124E+02 -0.23929535121E+02 -0.11068199858E+04  0.11080687941E+04  0.00000000000E+00 0. -1.
          1    1    1    2  502    0  0.15743708305E+02  0.32166924757E+02  0.22454959884E+04  0.22457815587E+04  0.00000000000E+00 0. -1.
         22    1    3    3    0    0 -0.32708528792E+02 -0.25180300205E+02 -0.85042555625E+02  0.94531114673E+02  0.00000000000E+00 0.  1.
         22    1    3    3    0    0  0.63798024611E+02  0.16942910568E+02 -0.12324110710E+02  0.67150084643E+02  0.00000000000E+00 0.  1.
</event>
<event>
 7    1  0.7118985E-006  0.9114298E+02  0.7818608E-02  0.1379886E+00
          2   -1    0    0  502    0  0.00000000000E+00  0.00000000000E+00  0.11353614123E+04  0.11353614123E+04  0.00000000000E+00 0. -1.
          1   -1    0    0  501    0 -0.00000000000E+00 -0.00000000000E+00 -0.91532990238E+03  0.91532990238E+03  0.00000000000E+00 0. -1.
         25    2    1    2    0    0  0.42610079624E+01  0.52476742935E+02 -0.27881891990E+02  0.13847683154E+03  0.12500587280E+03 0.  0.
          2    1    1    2  501    0  0.32583456727E+02  0.31953017919E+02 -0.82955801475E+03  0.83081235959E+03  0.00000000000E+00 0. -1.
          1    1    1    2  502    0 -0.36844464690E+02 -0.84429760854E+02  0.10774714167E+04  0.10814021235E+04  0.00000000000E+00 0. -1.
         22    1    3    3    0    0 -0.51682768498E+02  0.59409384647E+02 -0.10226862306E+02  0.79405114800E+02  0.00000000000E+00 0.  1.
         22    1    3    3    0    0  0.55943776461E+02 -0.69326417118E+01 -0.17655029684E+02  0.59071716743E+02  0.00000000000E+00 0.  1.
</event>
<event>
 7    1  0.7118985E-006  0.5603455E+02  0.7818608E-02  0.1455371E+00
          2   -1    0    0  502    0  0.00000000000E+00  0.00000000000E+00  0.10400193267E+03  0.10400193267E+03  0.00000000000E+00 0. -1.
          1   -1    0    0  501    0 -0.00000000000E+00 -0.00000000000E+00 -0.98975998493E+03  0.98975998493E+03  0.00000000000E+00 0. -1.
         25    2    1    2    0    0  0.15551057766E+02  0.41098606209E+02 -0.10700920597E+02  0.13293256316E+03  0.12500250324E+03 0.  0.
          2    1    1    2  501    0 -0.52109829161E+02 -0.21587984089E+02 -0.90684794891E+03  0.90860039500E+03  0.00000000000E+00 0. -1.
          1    1    1    2  502    0  0.36558771396E+02 -0.19510622120E+02  0.31790817253E+02  0.52228959429E+02  0.00000000000E+00 0. -1.
         22    1    3    3    0    0  0.36462560027E+02  0.76812866115E+02  0.11771702846E+02  0.85838847105E+02  0.00000000000E+00 0.  1.
         22    1    3    3    0    0 -0.20911502262E+02 -0.35714259906E+02 -0.22472623442E+02  0.47093716055E+02  0.00000000000E+00 0.  1.
</event>
<event>
 7    1  0.7118985E-006  0.7838623E+02  0.7818608E-02  0.1452457E+00
          2   -1    0    0  502    0  0.00000000000E+00  0.00000000000E+00  0.16894393912E+03  0.16894393912E+03  0.00000000000E+00 0. -1.
          1   -1    0    0  501    0 -0.00000000000E+00 -0.00000000000E+00 -0.41750008701E+03  0.41750008701E+03  0.00000000000E+00 0. -1.
         25    2    1    2    0    0 -0.57245714755E+02 -0.57783097810E+02 -0.17453344268E+03  0.22958061998E+03  0.12501751959E+03 0.  0.
          2    1    1    2  501    0  0.30822056423E+02  0.72533993107E+02 -0.20647145710E+03  0.22100145229E+03  0.00000000000E+00 0. -1.
          1    1    1    2  502    0  0.26423658331E+02 -0.14750895297E+02  0.13244875189E+03  0.13586195386E+03  0.00000000000E+00 0. -1.
         22    1    3    3    0    0 -0.10217147473E+02  0.10581695416E+02  0.16017223302E+02  0.21746581862E+02  0.00000000000E+00 0.  1.
         22    1    3    3    0    0 -0.47028567282E+02 -0.68364793226E+02 -0.19055066598E+03  0.20783403811E+03  0.00000000000E+00 0.  1.
</event>
<event>
 7    1  0.7118985E-006  0.2226219E+03  0.7818608E-02  0.1312435E+00
          2   -1    0    0  502    0  0.00000000000E+00  0.00000000000E+00  0.42597801356E+02  0.42597801356E+02  0.00000000000E+00 0. -1.
          1   -1    0    0  501    0 -0.00000000000E+00 -0.00000000000E+00 -0.21457726198E+04  0.21457726198E+04  0.00000000000E+00 0. -1.
         25    2    1    2    0    0  0.13697138217E+03  0.15790632267E+03 -0.11606106438E+04  0.11858911890E+04  0.12500111692E+03 0.  0.
          2    1    1    2  501    0  0.32885063391E+02 -0.55093895637E+01 -0.52967504180E+03  0.53072349738E+03  0.00000000000E+00 0. -1.
          1    1    1    2  502    0 -0.16985644556E+03 -0.15239693311E+03 -0.41288913276E+03  0.47175573475E+03  0.00000000000E+00 0. -1.
         22    1    3    3    0    0  0.68225026002E+02  0.13728788980E+03 -0.54633362737E+03  0.56743550404E+03  0.00000000000E+00 0.  1.
         22    1    3    3    0    0  0.68746356171E+02  0.20618432870E+02 -0.61427701647E+03  0.61845568493E+03  0.00000000000E+00 0.  1.
</event>
<event>
 7    1  0.7118985E-006  0.8450548E+02  0.7818608E-02  0.1343571E+00
          2   -1    0    0  502    0  0.00000000000E+00  0.00000000000E+00  0.53214776368E+03  0.53214776368E+03  0.00000000000E+00 0. -1.
          1   -1    0    0  501    0 -0.00000000000E+00 -0.00000000000E+00 -0.13429908641E+03  0.13429908641E+03  0.00000000000E+00 0. -1.
         25    2    1    2    0    0 -0.57073500342E+02 -0.63306770512E+02  0.20984430853E+03  0.25869650058E+03  0.12499645576E+03 0.  0.
          2    1    1    2  501    0 -0.56551386887E+01  0.86084932894E+02 -0.88331079059E+02  0.12347054626E+03  0.00000000000E+00 0. -1.
          1    1    1    2  502    0  0.62728639031E+02 -0.22778162382E+02  0.27633544779E+03  0.28427980326E+03  0.00000000000E+00 0. -1.
         22    1    3    3    0    0 -0.61435540095E+02 -0.13516170240E+02  0.19741232294E+03  0.20719227228E+03  0.00000000000E+00 0.  1.
         22    1    3    3    0    0  0.43620397529E+01 -0.49790600272E+02  0.12431985592E+02  0.51504228293E+02  0.00000000000E+00 0.  1.
</event>
<event>
 7    1  0.7118985E-006  0.4685262E+02  0.7818608E-02  0.1526876E+00
          2   -1    0    0  502    0  0.00000000000E+00  0.00000000000E+00  0.45920518499E+03  0.45920518499E+03  0.00000000000E+00 0. -1.
          1   -1    0    0  501    0 -0.00000000000E+00 -0.00000000000E+00 -0.11142090827E+03  0.11142090827E+03  0.00000000000E+00 0. -1.
         25    2    1    2    0    0 -0.63192281093E+02  0.34005610353E+02  0.13222390158E+03  0.19558448418E+03  0.12498193620E+03 0.  0.
          2    1    1    2  501    0  0.18833187050E+02 -0.23518989225E+02 -0.75053082175E+02  0.80875193555E+02  0.00000000000E+00 0. -1.
          1    1    1    2  502    0  0.44359094043E+02 -0.10486621128E+02  0.29061345732E+03  0.29416641553E+03  0.00000000000E+00 0. -1.
         22    1    3    3    0    0 -0.82346221219E+02  0.36516008527E+01  0.13648128128E+03  0.15944081811E+03  0.00000000000E+00 0. -1.
         22    1    3    3    0    0  0.19153940127E+02  0.30354009500E+02 -0.42573797038E+01  0.36143666071E+02  0.00000000000E+00 0. -1.
</event>
<event>
 7    1  0.7118985E-006  0.8506668E+02  0.7818608E-02  0.1417890E+00
          2   -1    0    0  502    0  0.00000000000E+00  0.00000000000E+00  0.34407650226E+03  0.34407650226E+03  0.00000000000E+00 0. -1.
          1   -1    0    0  501    0 -0.00000000000E+00 -0.00000000000E+00 -0.34247002356E+03  0.34247002356E+03  0.00000000000E+00 0. -1.
         25    2    1    2    0    0  0.26901870672E+02  0.55217029141E+02  0.75318721641E+02  0.15833632635E+03  0.12499940584E+03 0.  0.
          2    1    1    2  501    0 -0.62815706299E+02 -0.59517217693E+02 -0.29323033376E+03  0.30573213896E+03  0.00000000000E+00 0. -1.
          1    1    1    2  502    0  0.35913835626E+02  0.43001885525E+01  0.21951809082E+03  0.22247806051E+03  0.00000000000E+00 0. -1.
         22    1    3    3    0    0  0.75316178462E+01 -0.36240106013E+02  0.48632333808E+02  0.61116073523E+02  0.00000000000E+00 0. -1.
         22    1    3    3    0    0  0.19370252826E+02  0.91457135154E+02  0.26686387833E+02  0.97220252832E+02  0.00000000000E+00 0. -1.
</event>
<event>
 7    1  0.7118985E-006  0.1468135E+03  0.7818608E-02  0.1265747E+00
          2   -1    0    0  502    0  0.00000000000E+00  0.00000000000E+00  0.53025473846E+03  0.53025473846E+03  0.00000000000E+00 0. -1.
          1   -1    0    0  501    0 -0.00000000000E+00 -0.00000000000E+00 -0.94456878538E+03  0.94456878538E+03  0.00000000000E+00 0. -1.
         25    2    1    2    0    0 -0.21292750122E+03 -0.25934619507E+02 -0.12238377915E+03  0.27679133208E+03  0.12499970740E+03 0.  0.
          2    1    1    2  501    0  0.14103550800E+03 -0.52134548882E+01 -0.73482774619E+03  0.74825798438E+03  0.00000000000E+00 0. -1.
          1    1    1    2  502    0  0.71891993221E+02  0.31148074395E+02  0.44289747842E+03  0.44977420738E+03  0.00000000000E+00 0. -1.
         22    1    3    3    0    0 -0.16459392360E+03 -0.50376245978E+02 -0.37608352360E+02  0.17619112921E+03  0.00000000000E+00 0.  1.
         22    1    3    3    0    0 -0.48333577620E+02  0.24441626472E+02 -0.84775426788E+02  0.10060020287E+03  0.00000000000E+00 0.  1.
</event>
<event>
 7    1  0.7118985E-006  0.8640641E+02  0.7818608E-02  0.1384641E+00
          2   -1    0    0  502    0  0.00000000000E+00  0.00000000000E+00  0.27633545494E+04  0.27633545494E+04  0.00000000000E+00 0. -1.
          1   -1    0    0  501    0 -0.00000000000E+00 -0.00000000000E+00 -0.17242003445E+03  0.17242003445E+03  0.00000000000E+00 0. -1.
         25    2    1    2    0    0  0.58666593873E+02 -0.10437380651E+03  0.18132013743E+04  0.18214442274E+04  0.12499675647E+03 0.  0.
          2    1    1    2  501    0 -0.29565420706E+02  0.35648082772E+02 -0.16360726294E+03  0.17003598558E+03  0.00000000000E+00 0. -1.
          1    1    1    2  502    0 -0.29101173167E+02  0.68725723736E+02  0.94134040360E+03  0.94429437085E+03  0.00000000000E+00 0. -1.
         22    1    3    3    0    0  0.95739065147E+02 -0.94109773173E+02  0.13573781574E+04  0.13640007625E+04  0.00000000000E+00 0. -1.
         22    1    3    3    0    0 -0.37072471273E+02 -0.10264033335E+02  0.45582321694E+03  0.45744346493E+03  0.00000000000E+00 0. -1.
</event>
<event>
 7    1  0.7118985E-006  0.1272212E+03  0.7818608E-02  0.1324774E+00
          2   -1    0    0  502    0  0.00000000000E+00  0.00000000000E+00  0.58621177271E+03  0.58621177271E+03  0.00000000000E+00 0. -1.
          1   -1    0    0  501    0 -0.00000000000E+00 -0.00000000000E+00 -0.65729858399E+03  0.65729858399E+03  0.00000000000E+00 0. -1.
         25    2    1    2    0    0 -0.13324029481E+03  0.25649881555E+02 -0.32080171416E+03  0.37006195971E+03  0.12498488563E+03 0.  0.
          2    1    1    2  501    0  0.10530197720E+03 -0.69796581702E+02 -0.29777801730E+03  0.32346841702E+03  0.00000000000E+00 0. -1.
          1    1    1    2  502    0  0.27938317607E+02  0.44146700147E+02  0.54749292018E+03  0.54997997997E+03  0.00000000000E+00 0. -1.
         22    1    3    3    0    0 -0.31919493068E+02 -0.47746763267E+02 -0.77321823767E+02  0.96318595665E+02  0.00000000000E+00 0. -1.
         22    1    3    3    0    0 -0.10132080174E+03  0.73396644822E+02 -0.24347989039E+03  0.27374336405E+03  0.00000000000E+00 0. -1.
</event>
<event>
 7    1  0.7118985E-006  0.7372987E+02  0.7818608E-02  0.1403307E+00
          2   -1    0    0  502    0  0.00000000000E+00  0.00000000000E+00  0.39585547494E+03  0.39585547494E+03  0.00000000000E+00 0. -1.
          1   -1    0    0  501    0 -0.00000000000E+00 -0.00000000000E+00 -0.18340683648E+04  0.18340683648E+04  0.00000000000E+00 0. -1.
         25    2    1    2    0    0  0.23489230555E+02 -0.16404427258E+02 -0.15459720626E+03  0.20086317475E+03  0.12499947841E+03 0.  0.
          2    1    1    2  501    0 -0.61263643863E+02  0.43960150499E+02 -0.16540094588E+04  0.16557273382E+04  0.00000000000E+00 0. -1.
          1    1    1    2  502    0  0.37774413308E+02 -0.27555723242E+02  0.37039377516E+03  0.37333332675E+03  0.00000000000E+00 0. -1.
         22    1    3    3    0    0  0.39537553722E+01 -0.70095641830E+02 -0.73313358783E+02  0.10150802806E+03  0.00000000000E+00 0. -1.
         22    1    3    3    0    0  0.19535475182E+02  0.53691214573E+02 -0.81283847479E+02  0.99355146691E+02  0.00000000000E+00 0. -1.
</event>
<event>
 7    1  0.7118985E-006  0.9045453E+02  0.7818608E-02  0.1450630E+00
          2   -1    0    0  502    0  0.00000000000E+00  0.00000000000E+00  0.76770843389E+03  0.76770843389E+03  0.00000000000E+00 0. -1.
          1   -1    0    0  501    0 -0.00000000000E+00 -0.00000000000E+00 -0.21361226539E+03  0.21361226539E+03  0.00000000000E+00 0. -1.
         25    2    1    2    0    0 -0.32067976559E+02 -0.63920800853E+02  0.12847964532E+03  0.19299330703E+03  0.12500069358E+03 0.  0.
          2    1    1    2  501    0  0.57462119620E+02  0.71768390591E+02 -0.16938768895E+03  0.19272982708E+03  0.00000000000E+00 0. -1.
          1    1    1    2  502    0 -0.25394143061E+02 -0.78475897383E+01  0.59500421214E+03  0.59559756516E+03  0.00000000000E+00 0. -1.
         22    1    3    3    0    0  0.35968467023E+02 -0.15393336372E+02 -0.70981833074E+00  0.39130413577E+02  0.00000000000E+00 0. -1.
         22    1    3    3    0    0 -0.68036443581E+02 -0.48527464481E+02  0.12918946365E+03  0.15386289345E+03  0.00000000000E+00 0. -1.
</event>
<event>
 7    1  0.7118985E-006  0.3544815E+02  0.7818608E-02  0.1625429E+00
          2   -1    0    0  502    0  0.00000000000E+00  0.00000000000E+00  0.17454874259E+04  0.17454874259E+04  0.00000000000E+00 0. -1.
          1   -1    0    0  501    0 -0.00000000000E+00 -0.00000000000E+00 -0.74652673245E+02  0.74652673245E+02  0.00000000000E+00 0. -1.
         25    2    1    2    0    0 -0.52344492765E+02  0.37899094807E+01  0.28787170328E+03  0.31819784340E+03  0.12500176262E+03 0.  0.
          2    1    1    2  501    0  0.32756564249E+02 -0.12872402780E+02 -0.54195914084E+02  0.64621113872E+02  0.00000000000E+00 0. -1.
          1    1    1    2  502    0  0.19587928516E+02  0.90824932992E+01  0.14371589634E+04  0.14373211418E+04  0.00000000000E+00 0. -1.
         22    1    3    3    0    0 -0.21063883445E+02  0.22494902678E+01 -0.65049401986E+01  0.22159910633E+02  0.00000000000E+00 0.  1.
         22    1    3    3    0    0 -0.31280609320E+02  0.15404192129E+01  0.29437664348E+03  0.29603793277E+03  0.00000000000E+00 0.  1.
</event>
<event>
 7    1  0.7118985E-006  0.1069899E+03  0.7818608E-02  0.1352274E+00
          2   -1    0    0  502    0  0.00000000000E+00  0.00000000000E+00  0.57465430388E+03  0.57465430388E+03  0.00000000000E+00 0. -1.
          1   -1    0    0  501    0 -0.00000000000E+00 -0.00000000000E+00 -0.62260239447E+03  0.62260239447E+03  0.00000000000E+00 0. -1.
         25    2    1    2    0    0 -0.74168619436E+02 -0.43144448244E+01 -0.25159657209E+02  0.14757690347E+03  0.12500534206E+03 0.  0.
          2    1    1    2  501    0  0.10069391023E+03  0.45428055882E+02 -0.52935367700E+03  0.54075714250E+03  0.00000000000E+00 0. -1.
          1    1    1    2  502    0 -0.26525290790E+02 -0.41113611058E+02  0.50656524362E+03  0.50892265239E+03  0.00000000000E+00 0. -1.
         22    1    3    3    0    0 -0.53830482248E+00 -0.49950243950E+02 -0.34112616288E+02  0.60489563007E+02  0.00000000000E+00 0. -1.
         22    1    3    3    0    0 -0.73630314614E+02  0.45635799125E+02  0.89529590783E+01  0.87087340459E+02  0.00000000000E+00 0. -1.
</event>
<event>
 7    1  0.7118985E-006  0.6007849E+02  0.7818608E-02  0.1496223E+00
          2   -1    0    0  502    0  0.00000000000E+00  0.00000000000E+00  0.19921480235E+04  0.19921480235E+04  0.00000000000E+00 0. -1.
          1   -1    0    0  501    0 -0.00000000000E+00 -0.00000000000E+00 -0.17469079311E+02  0.17469079311E+02  0.00000000000E+00 0. -1.
         25    2    1    2    0    0  0.11401549869E+02 -0.39329632812E+02  0.70693037351E+03  0.71906508641E+03  0.12500892024E+03 0.  0.
          2    1    1    2  501    0  0.59169724395E+01  0.62479792647E+02  0.76485628328E+02  0.98938295886E+02  0.00000000000E+00 0. -1.
          1    1    1    2  502    0 -0.17318522309E+02 -0.23150159834E+02  0.11912629424E+04  0.11916137205E+04  0.00000000000E+00 0. -1.
         22    1    3    3    0    0 -0.36862951365E+02  0.28478058633E+02  0.31213775168E+03  0.31559444392E+03  0.00000000000E+00 0.  1.
         22    1    3    3    0    0  0.48264501234E+02 -0.67807691446E+02  0.39479262183E+03  0.40347064249E+03  0.00000000000E+00 0.  1.
</event>
<event>
 7    1  0.7118985E-006  0.8182536E+02  0.7818608E-02  0.1345610E+00
          2   -1    0    0  502    0  0.00000000000E+00  0.00000000000E+00  0.14406775623E+04  0.14406775623E+04  0.00000000000E+00 0. -1.
          1   -1    0    0  501    0 -0.00000000000E+00 -0.00000000000E+00 -0.35371379726E+03  0.35371379726E+03  0.00000000000E+00 0. -1.
         25    2    1    2    0    0  0.14568002690E+03  0.33129192026E+00  0.26630041784E+03  0.32827366894E+03  0.12499963674E+03 0.  0.
          2    1    1    2  501    0 -0.67160331310E+02  0.87172001335E+01 -0.31778888187E+03  0.32492502692E+03  0.00000000000E+00 0. -1.
          1    1    1    2  502    0 -0.78519695590E+02 -0.90484920538E+01  0.11384522291E+04  0.11411926637E+04  0.00000000000E+00 0. -1.
         22    1    3    3    0    0  0.59466857048E+02 -0.20229294495E+02  0.21896083908E+03  0.22779240657E+03  0.00000000000E+00 0.  1.
         22    1    3    3    0    0  0.86213169851E+02  0.20560586415E+02  0.47339578768E+02  0.10048126237E+03  0.00000000000E+00 0.  1.
</event>
<event>
 7    1  0.7118985E-006  0.6613373E+02  0.7818608E-02  0.1486879E+00
          2   -1    0    0  502    0  0.00000000000E+00  0.00000000000E+00  0.16862228167E+04  0.16862228167E+04  0.00000000000E+00 0. -1.
          1   -1    0    0  501    0 -0.00000000000E+00 -0.00000000000E+00 -0.12324424117E+03  0.12324424117E+03  0.00000000000E+00 0. -1.
         25    2    1    2    0    0 -0.27008610317E+02  0.32133967065E+02  0.79409406937E+02  0.15392374103E+03  0.12499842908E+03 0.  0.
          2    1    1    2  501    0  0.51125063586E+02 -0.46413369023E+02 -0.71977991296E+02  0.99743692441E+02  0.00000000000E+00 0. -1.
          1    1    1    2  502    0 -0.24116453269E+02  0.14279401958E+02  0.15555471599E+04  0.15557996244E+04  0.00000000000E+00 0. -1.
         22    1    3    3    0    0  0.27844403366E+02 -0.17058201787E+02  0.72994005528E+02  0.79965104202E+02  0.00000000000E+00 0.  1.
         22    1    3    3    0    0 -0.54853013683E+02  0.49192168852E+02  0.64154014089E+01  0.73958636830E+02  0.00000000000E+00 0.  1.
</event>
<event>
 7    1  0.7118985E-006  0.5779464E+02  0.7818608E-02  0.1546567E+00
          2   -1    0    0  502    0  0.00000000000E+00  0.00000000000E+00  0.29853169296E+03  0.29853169296E+03  0.00000000000E+00 0. -1.
          1   -1    0    0  501    0 -0.00000000000E+00 -0.00000000000E+00 -0.17157395115E+03  0.17157395115E+03  0.00000000000E+00 0. -1.
         25    2    1    2    0    0 -0.31863379883E+02  0.35677118374E+02  0.14165254856E+03  0.19488104206E+03  0.12500017715E+03 0.  0.
          2    1    1    2  501    0  0.21130782658E+02 -0.54278198217E+02 -0.13814405080E+03  0.14992135121E+03  0.00000000000E+00 0. -1.
          1    1    1    2  502    0  0.10732597226E+02  0.18601079843E+02  0.12344924405E+03  0.12530325084E+03  0.00000000000E+00 0. -1.
         22    1    3    3    0    0 -0.39110133053E+01  0.53514155993E+02  0.15114813023E+03  0.16038958254E+03  0.00000000000E+00 0.  1.
         22    1    3    3    0    0 -0.27952366578E+02 -0.17837037619E+02 -0.94955816696E+01  0.34491459516E+02  0.00000000000E+00 0.  1.
</event>
<event>
 7    1  0.7118985E-006  0.1041280E+03  0.7818608E-02  0.1325079E+00
          2   -1    0    0  502    0  0.00000000000E+00  0.00000000000E+00  0.64274759771E+02  0.64274759771E+02  0.00000000000E+00 0. -1.
          1   -1    0    0  501    0 -0.00000000000E+00 -0.00000000000E+00 -0.93253622956E+03  0.93253622956E+03  0.00000000000E+00 0. -1.
         25    2    1    2    0    0 -0.18858984990E+02  0.49588718227E+02 -0.11244334806E+03  0.17630389123E+03  0.12499941300E+03 0.  0.
          2    1    1    2  501    0  0.72118329534E+02 -0.84457979168E+02 -0.74819604931E+03  0.75639376776E+03  0.00000000000E+00 0. -1.
          1    1    1    2  502    0 -0.53259344544E+02  0.34869260941E+02 -0.76220724211E+01  0.64113330344E+02  0.00000000000E+00 0. -1.
         22    1    3    3    0    0 -0.56157352012E+02 -0.37240849967E+01 -0.13488234544E+02  0.57874428422E+02  0.00000000000E+00 0. -1.
         22    1    3    3    0    0  0.37298367022E+02  0.53312803224E+02 -0.98955113511E+02  0.11842946280E+03  0.00000000000E+00 0. -1.
</event>
<event>
 7    1  0.7118985E-006  0.7422501E+02  0.7818608E-02  0.1352336E+00
          2   -1    0    0  502    0  0.00000000000E+00  0.00000000000E+00  0.16148029630E+04  0.16148029630E+04  0.00000000000E+00 0. -1.
          1   -1    0    0  501    0 -0.00000000000E+00 -0.00000000000E+00 -0.17254646824E+03  0.17254646824E+03  0.00000000000E+00 0. -1.
         25    2    1    2    0    0  0.86695200741E+02  0.89462550166E+02  0.53951432932E+03  0.56764410224E+03  0.12499803818E+03 0.  0.
          2    1    1    2  501    0 -0.67244901244E+02 -0.21136387040E+02 -0.14938621530E+03  0.16518130924E+03  0.00000000000E+00 0. -1.
          1    1    1    2  502    0 -0.19450299498E+02 -0.68326163126E+02  0.10521283807E+04  0.10545240197E+04  0.00000000000E+00 0. -1.
         22    1    3    3    0    0 -0.21492482489E+01 -0.16562567899E+02  0.81768388444E+01  0.18595661240E+02  0.00000000000E+00 0. -1.
         22    1    3    3    0    0  0.88844448990E+02  0.10602511807E+03  0.53133749048E+03  0.54904844100E+03  0.00000000000E+00 0. -1.
</event>
<event>
 7    1  0.7118985E-006  0.7777850E+02  0.7818608E-02  0.1381592E+00
          2   -1    0    0  502    0  0.00000000000E+00  0.00000000000E+00  0.85686292050E+03  0.85686292050E+03  0.00000000000E+00 0. -1.
          1   -1    0    0  501    0 -0.00000000000E+00 -0.00000000000E+00 -0.15471059088E+03  0.15471059088E+03  0.00000000000E+00 0. -1.
         25    2    1    2    0    0 -0.11127417768E+03  0.61501643340E+02  0.10211843487E+03  0.20546785464E+03  0.12499787918E+03 0.  0.
          2    1    1    2  501    0  0.40843404792E+02 -0.33366394679E+02 -0.94083374686E+02  0.10785722693E+03  0.00000000000E+00 0. -1.
          1    1    1    2  502    0  0.70430772886E+02 -0.28135248661E+02  0.69411726944E+03  0.69824842980E+03  0.00000000000E+00 0. -1.
         22    1    3    3    0    0 -0.10847313865E+02 -0.28382985116E+02 -0.80050302359E+01  0.31421944104E+02  0.00000000000E+00 0. -1.
         22    1    3    3    0    0 -0.10042686381E+03  0.89884628456E+02  0.11012346511E+03  0.17404591054E+03  0.00000000000E+00 0. -1.
</event>
<event>
 7    1  0.7118985E-006  0.5731305E+02  0.7818608E-02  0.1419264E+00
          2   -1    0    0  502    0  0.00000000000E+00  0.00000000000E+00  0.73033899132E+03  0.73033899132E+03  0.00000000000E+00 0. -1.
          1   -1    0    0  501    0 -0.00000000000E+00 -0.00000000000E+00 -0.73756770379E+03  0.73756770379E+03  0.00000000000E+00 0. -1.
         25    2    1    2    0    0  0.69068053696E+02 -0.47422025552E+02 -0.21765027364E+01  0.15049682279E+03  0.12500124783E+03 0.  0.
          2    1    1    2  501    0 -0.52611789717E+02 -0.73348898451E+01 -0.65891460072E+03  0.66105238225E+03  0.00000000000E+00 0. -1.
          1    1    1    2  502    0 -0.16456263979E+02  0.54756915397E+02  0.65386239100E+03  0.65635749007E+03  0.00000000000E+00 0. -1.
         22    1    3    3    0    0  0.82667989865E+02  0.11801490951E+02 -0.22394074458E+02  0.86456730842E+02  0.00000000000E+00 0. -1.
         22    1    3    3    0    0 -0.13599936169E+02 -0.59223516503E+02  0.20217571722E+02  0.64040091951E+02  0.00000000000E+00 0. -1.
</event>
<event>
 7    1  0.7118985E-006  0.2274689E+03  0.7818608E-02  0.1254883E+00
          2   -1    0    0  502    0  0.00000000000E+00  0.00000000000E+00  0.10854606294E+04  0.10854606294E+04  0.00000000000E+00 0. -1.
          1   -1    0    0  501    0 -0.00000000000E+00 -0.00000000000E+00 -0.16821367069E+03  0.16821367069E+03  0.00000000000E+00 0. -1.
         25    2    1    2    0    0 -0.91694617440E+02 -0.18699617400E+03  0.26808137931E+03  0.36175738614E+03  0.12500123413E+03 0.  0.
          2    1    1    2  501    0 -0.56206400271E+02  0.25238842043E+01 -0.95375716213E+02  0.11073417118E+03  0.00000000000E+00 0. -1.
          1    1    1    2  502    0  0.14790101771E+03  0.18447228980E+03  0.74454129566E+03  0.78118274282E+03  0.00000000000E+00 0. -1.
         22    1    3    3    0    0 -0.25022845904E+02  0.62029142209E+01  0.14702244215E+01  0.25822093676E+02  0.00000000000E+00 0. -1.
         22    1    3    3    0    0 -0.66671771535E+02 -0.19319908822E+03  0.26661115489E+03  0.33593529246E+03  0.00000000000E+00 0. -1.
</event>
<event>
 7    1  0.7118985E-006  0.7266811E+02  0.7818608E-02  0.1503833E+00
          2   -1    0    0  502    0  0.00000000000E+00  0.00000000000E+00  0.67184240562E+03  0.67184240562E+03  0.00000000000E+00 0. -1.
          1   -1    0    0  501    0 -0.00000000000E+00 -0.00000000000E+00 -0.14083777198E+04  0.14083777198E+04  0.00000000000E+00 0. -1.
         25    2    1    2    0    0 -0.54832815343E+02  0.20346214789E+02 -0.49207950106E+03  0.51106649540E+03  0.12500448497E+03 0.  0.
          2    1    1    2  501    0 -0.17644902732E+02 -0.14256760148E+02 -0.90466538863E+03  0.90494975727E+03  0.00000000000E+00 0. -1.
          1    1    1    2  502    0  0.72477718075E+02 -0.60894546405E+01  0.66020957547E+03  0.66420387279E+03  0.00000000000E+00 0. -1.
         22    1    3    3    0    0  0.13229257534E+02  0.50641758813E+02 -0.11033717544E+03  0.12212245197E+03  0.00000000000E+00 0. -1.
         22    1    3    3    0    0 -0.68062072877E+02 -0.30295544025E+02 -0.38174232562E+03  0.38894404343E+03  0.00000000000E+00 0. -1.
</event>
<event>
 7    1  0.7118985E-006  0.1459828E+03  0.7818608E-02  0.1395398E+00
          2   -1    0    0  502    0  0.00000000000E+00  0.00000000000E+00  0.10746694232E+04  0.10746694232E+04  0.00000000000E+00 0. -1.
          1   -1    0    0  501    0 -0.00000000000E+00 -0.00000000000E+00 -0.25149835048E+04  0.25149835048E+04  0.00000000000E+00 0. -1.
         25    2    1    2    0    0 -0.34487702602E+02  0.13000690324E+03 -0.43867262764E+02  0.18878606739E+03  0.12499858389E+03 0.  0.
          2    1    1    2  501    0  0.14794122062E+02 -0.14563743282E+03 -0.23962652004E+04  0.24007323963E+04  0.00000000000E+00 0. -1.
          1    1    1    2  502    0  0.19693580541E+02  0.15630529579E+02  0.99981838162E+03  0.10001344644E+04  0.00000000000E+00 0. -1.
         22    1    3    3    0    0  0.16287359383E+02 -0.82951508779E+01  0.20973641543E+02  0.27820518387E+02  0.00000000000E+00 0.  1.
         22    1    3    3    0    0 -0.50775061985E+02  0.13830205412E+03 -0.64840904307E+02  0.16096554900E+03  0.00000000000E+00 0.  1.
</event>
<event>
 7    1  0.7118985E-006  0.1104466E+03  0.7818608E-02  0.1262315E+00
          2   -1    0    0  502    0  0.00000000000E+00  0.00000000000E+00  0.20248676144E+04  0.20248676144E+04  0.00000000000E+00 0. -1.
          1   -1    0    0  501    0 -0.00000000000E+00 -0.00000000000E+00 -0.14771206971E+03  0.14771206971E+03  0.00000000000E+00 0. -1.
         25    2    1    2    0    0  0.28548686609E+02  0.38537171603E+02  0.18505672798E+03  0.22841052303E+03  0.12500093341E+03 0.  0.
          2    1    1    2  501    0  0.60810419055E+02 -0.10344791194E+03 -0.95376910899E+02  0.15328448285E+03  0.00000000000E+00 0. -1.
          1    1    1    2  502    0 -0.89359105664E+02  0.64910740340E+02  0.17874757276E+04  0.17908846782E+04  0.00000000000E+00 0. -1.
         22    1    3    3    0    0  0.12553239565E+02  0.39358360727E+02  0.20136113497E+03  0.20555527495E+03  0.00000000000E+00 0. -1.
         22    1    3    3    0    0  0.15995447044E+02 -0.82118912398E+00 -0.16304406983E+02  0.22855248080E+02  0.00000000000E+00 0. -1.
</event>
<event>
 7    1  0.7118985E-006  0.6052849E+02  0.7818608E-02  0.1450972E+00
          2   -1    0    0  502    0  0.00000000000E+00  0.00000000000E+00  0.25459511928E+04  0.25459511928E+04  0.00000000000E+00 0. -1.
          1   -1    0    0  501    0 -0.00000000000E+00 -0.00000000000E+00 -0.99826068585E+02  0.99826068585E+02  0.00000000000E+00 0. -1.
         25    2    1    2    0    0  0.51120953550E+01  0.22222129335E+02  0.22386421332E+03  0.25741137616E+03  0.12500189606E+03 0.  0.
          2    1    1    2  501    0 -0.17270370934E+02 -0.59930837306E+02 -0.71147833554E+02  0.94614931125E+02  0.00000000000E+00 0. -1.
          1    1    1    2  502    0  0.12158275579E+02  0.37708707971E+02  0.22934087445E+04  0.22937509541E+04  0.00000000000E+00 0. -1.
         22    1    3    3    0    0  0.44907861183E+02 -0.34255252935E+02  0.81376978787E+02  0.99057311826E+02  0.00000000000E+00 0.  1.
         22    1    3    3    0    0 -0.39795765828E+02  0.56477382270E+02  0.14248723454E+03  0.15835406434E+03  0.00000000000E+00 0.  1.
</event>
<event>
 7    1  0.7118985E-006  0.6092301E+02  0.7818608E-02  0.1441205E+00
          2   -1    0    0  502    0  0.00000000000E+00  0.00000000000E+00  0.11192377734E+04  0.11192377734E+04  0.00000000000E+00 0. -1.
          1   -1    0    0  501    0 -0.00000000000E+00 -0.00000000000E+00 -0.26425391269E+02  0.26425391269E+02  0.00000000000E+00 0. -1.
         25    2    1    2    0    0 -0.31669641473E+02  0.85939525584E+02  0.62350504406E+03  0.64247208084E+03  0.12499306553E+03 0.  0.
          2    1    1    2  501    0 -0.33266851560E+01 -0.42186460598E+02  0.14182743353E+02  0.44630869372E+02  0.00000000000E+00 0. -1.
          1    1    1    2  502    0  0.34996326629E+02 -0.43753064986E+02  0.45512459476E+03  0.45856021451E+03  0.00000000000E+00 0. -1.
         22    1    3    3    0    0 -0.52668793593E+01 -0.29783109580E+02  0.21349021461E+03  0.21562199649E+03  0.00000000000E+00 0. -1.
         22    1    3    3    0    0 -0.26402762114E+02  0.11572263516E+03  0.41001482945E+03  0.42685008435E+03  0.00000000000E+00 0. -1.
</event>
<event>
 7    1  0.7118985E-006  0.4631175E+02  0.7818608E-02  0.1510342E+00
          2   -1    0    0  502    0  0.00000000000E+00  0.00000000000E+00  0.10762616482E+04  0.10762616482E+04  0.00000000000E+00 0. -1.
          1   -1    0    0  501    0 -0.00000000000E+00 -0.00000000000E+00 -0.86719344318E+03  0.86719344318E+03  0.00000000000E+00 0. -1.
         25    2    1    2    0    0 -0.14494297767E+02  0.47269852683E+02  0.24809449952E+03  0.28217069988E+03  0.12499959815E+03 0.  0.
          2    1    1    2  501    0 -0.25256540821E+02 -0.22840537824E+02 -0.84914284581E+03  0.84982536771E+03  0.00000000000E+00 0. -1.
          1    1    1    2  502    0  0.39750838588E+02 -0.24429314859E+02  0.81011655127E+03  0.81145902375E+03  0.00000000000E+00 0. -1.
         22    1    3    3    0    0  0.66069078251E+01 -0.27803162479E+02  0.16789005140E+03  0.17030483386E+03  0.00000000000E+00 0.  1.
         22    1    3    3    0    0 -0.21101205593E+02  0.75073015162E+02  0.80204448118E+02  0.11186586602E+03  0.00000000000E+00 0.  1.
</event>
<event>
 7    1  0.7118985E-006  0.9885093E+02  0.7818608E-02  0.1284486E+00
          2   -1    0    0  502    0  0.00000000000E+00  0.00000000000E+00  0.14383652469E+04  0.14383652469E+04  0.00000000000E+00 0. -1.
          1   -1    0    0  501    0 -0.00000000000E+00 -0.00000000000E+00 -0.41067451353E+03  0.41067451353E+03  0.00000000000E+00 0. -1.
         25    2    1    2    0    0  0.10219232016E+03 -0.16186738933E+03 -0.18775923385E+03  0.29584894139E+03  0.12501497590E+03 0.  0.
          2    1    1    2  501    0 -0.34195500991E+02  0.91010708935E+02 -0.15297001615E+03  0.18125150280E+03  0.00000000000E+00 0. -1.
          1    1    1    2  502    0 -0.67996819167E+02  0.70856680392E+02  0.13684199833E+04  0.13719393162E+04  0.00000000000E+00 0. -1.
         22    1    3    3    0    0  0.69950637228E+01 -0.11300455007E+03 -0.56608071610E+02  0.12658369968E+03  0.00000000000E+00 0. -1.
         22    1    3    3    0    0  0.95197256435E+02 -0.48862839252E+02 -0.13115116224E+03  0.16926524171E+03  0.00000000000E+00 0. -1.
</event>
<event>
 7    1  0.7118985E-006  0.4529937E+02  0.7818608E-02  0.1522584E+00
          2   -1    0    0  502    0  0.00000000000E+00  0.00000000000E+00  0.19673639914E+03  0.19673639914E+03  0.00000000000E+00 0. -1.
          1   -1    0    0  501    0 -0.00000000000E+00 -0.00000000000E+00 -0.13323107303E+04  0.13323107303E+04  0.00000000000E+00 0. -1.
         25    2    1    2    0    0 -0.30048994657E+02  0.62379462826E+01  0.91227366279E+01  0.12903573247E+03  0.12500056750E+03 0.  0.
          2    1    1    2  501    0 -0.10157748123E+02 -0.30413408365E+02 -0.12678342291E+04  0.12682396413E+04  0.00000000000E+00 0. -1.
          1    1    1    2  502    0  0.40206742779E+02  0.24175462082E+02  0.12313716125E+03  0.13177175575E+03  0.00000000000E+00 0. -1.
         22    1    3    3    0    0 -0.66796752761E+02  0.40729070045E+02  0.77595839023E+01  0.78618537689E+02  0.00000000000E+00 0.  1.
         22    1    3    3    0    0  0.36747758104E+02 -0.34491123762E+02  0.13631527256E+01  0.50417194779E+02  0.00000000000E+00 0.  1.
</event>
<event>
 7    1  0.7118985E-006  0.6105557E+02  0.7818608E-02  0.1506363E+00
          2   -1    0    0  502    0  0.00000000000E+00  0.00000000000E+00  0.45712482201E+03  0.45712482201E+03  0.00000000000E+00 0. -1.
          1   -1    0    0  501    0 -0.00000000000E+00 -0.00000000000E+00 -0.19122445910E+04  0.19122445910E+04  0.00000000000E+00 0. -1.
         25    2    1    2    0    0  0.19062305727E+02 -0.59962450855E+02 -0.10176503344E+04  0.10272278546E+04  0.12500398077E+03 0.  0.
          2    1    1    2  501    0 -0.41436063310E+02  0.45692321542E+02 -0.88834591188E+03  0.89048480882E+03  0.00000000000E+00 0. -1.
          1    1    1    2  502    0  0.22373757584E+02  0.14270129313E+02  0.45087647731E+03  0.45165674955E+03  0.00000000000E+00 0. -1.
         22    1    3    3    0    0  0.32040447747E+01 -0.48032778298E+02 -0.11913533896E+03  0.12849374570E+03  0.00000000000E+00 0.  1.
         22    1    3    3    0    0  0.15858260952E+02 -0.11929672557E+02 -0.89851499545E+03  0.89873410895E+03  0.00000000000E+00 0.  1.
</event>
<event>
 7    1  0.7118985E-006  0.6139832E+02  0.7818608E-02  0.1498221E+00
          2   -1    0    0  502    0  0.00000000000E+00  0.00000000000E+00  0.22338565402E+04  0.22338565402E+04  0.00000000000E+00 0. -1.
          1   -1    0    0  501    0 -0.00000000000E+00 -0.00000000000E+00 -0.10849267529E+02  0.10849267529E+02  0.00000000000E+00 0. -1.
         25    2    1    2    0    0 -0.66780705032E+02 -0.56257654543E+02  0.16682687564E+04  0.16752227209E+04  0.12500373943E+03 0.  0.
          2    1    1    2  501    0  0.45145084413E+02  0.38637840841E+02  0.12055707870E+03  0.13440599174E+03  0.00000000000E+00 0. -1.
          1    1    1    2  502    0  0.21635620618E+02  0.17619813701E+02  0.43418143757E+03  0.43507709506E+03  0.00000000000E+00 0. -1.
         22    1    3    3    0    0 -0.71127127278E+02  0.19682553073E+02  0.66747336608E+03  0.67154088897E+03  0.00000000000E+00 0.  1.
         22    1    3    3    0    0  0.43464222463E+01 -0.75940207616E+02  0.10007953903E+04  0.10036818319E+04  0.00000000000E+00 0.  1.
</event>
<event>
 7    1  0.1039120E-005  0.1135291E+03  0.7818608E-02  0.1288917E+00
          2   -1    0    0  502    0  0.00000000000E+00  0.00000000000E+00  0.18812991166E+04  0.18812991166E+04  0.00000000000E+00 0. -1.
          1   -1    0    0  501    0 -0.00000000000E+00 -0.00000000000E+00 -0.12193589111E+04  0.12193589111E+04  0.00000000000E+00 0. -1.
         25    2    1    2    0    0  0.13890648175E+02  0.31754884764E+02 -0.41609116859E+03  0.43584225518E+03  0.12500115204E+03 0.  0.
          2    1    1    2  501    0  0.59316295037E+02  0.55445391535E+02 -0.78957664864E+03  0.79374044774E+03  0.00000000000E+00 0. -1.
          1    1    1    2  502    0 -0.73206943212E+02 -0.87200276299E+02  0.18676080227E+04  0.18710753249E+04  0.00000000000E+00 0. -1.
         22    1    3    3    0    0  0.69187198638E+02  0.13079270235E+02 -0.25329776278E+03  0.26290243893E+03  0.00000000000E+00 0.  1.
         22    1    3    3    0    0 -0.55296550463E+02  0.18675614529E+02 -0.16279340581E+03  0.17293981626E+03  0.00000000000E+00 0.  1.
</event>
<event>
 7    1  0.7118985E-006  0.1013558E+03  0.7818608E-02  0.1414531E+00
          2   -1    0    0  502    0  0.00000000000E+00  0.00000000000E+00  0.62387242477E+03  0.62387242477E+03  0.00000000000E+00 0. -1.
          1   -1    0    0  501    0 -0.00000000000E+00 -0.00000000000E+00 -0.25544479580E+04  0.25544479580E+04  0.00000000000E+00 0. -1.
         25    2    1    2    0    0 -0.19129203307E+02  0.11431608422E+03  0.49490071263E+02  0.17750579797E+03  0.12499979053E+03 0.  0.
          2    1    1    2  501    0  0.41317637317E+02 -0.92444030119E+02 -0.24889342056E+04  0.24909930802E+04  0.00000000000E+00 0. -1.
          1    1    1    2  502    0 -0.22188434010E+02 -0.21872054096E+02  0.50886860110E+03  0.50982150459E+03  0.00000000000E+00 0. -1.
         22    1    3    3    0    0  0.46318179671E+01  0.76627720652E+02 -0.33151243930E+02  0.83619772089E+02  0.00000000000E+00 0. -1.
         22    1    3    3    0    0 -0.23761021274E+02  0.37688363563E+02  0.82641315192E+02  0.93886025886E+02  0.00000000000E+00 0. -1.
</event>
<event>
 7    1  0.7118985E-006  0.5328882E+02  0.7818608E-02  0.1466123E+00
          2   -1    0    0  502    0  0.00000000000E+00  0.00000000000E+00  0.28160131536E+04  0.28160131536E+04  0.00000000000E+00 0. -1.
          1   -1    0    0  501    0 -0.00000000000E+00 -0.00000000000E+00 -0.17127628959E+03  0.17127628959E+03  0.00000000000E+00 0. -1.
         25    2    1    2    0    0 -0.54739216884E+01  0.21208520081E+02  0.10768006522E+04  0.10842527401E+04  0.12499837878E+03 0.  0.
          2    1    1    2  501    0  0.21110043351E+02  0.34333069061E+02 -0.16463926467E+03  0.16950068151E+03  0.00000000000E+00 0. -1.
          1    1    1    2  502    0 -0.15636121663E+02 -0.55541589142E+02  0.17325754765E+04  0.17335360216E+04  0.00000000000E+00 0. -1.
         22    1    3    3    0    0  0.24526705851E+02 -0.45668159040E+02  0.53749710863E+03  0.53999100162E+03  0.00000000000E+00 0.  1.
         22    1    3    3    0    0 -0.30000627539E+02  0.66876679121E+02  0.53930354360E+03  0.54426173851E+03  0.00000000000E+00 0.  1.
</event>
<event>
 7    1  0.7118985E-006  0.1503519E+03  0.7818608E-02  0.1347756E+00
          2   -1    0    0  502    0  0.00000000000E+00  0.00000000000E+00  0.12233141560E+04  0.12233141560E+04  0.00000000000E+00 0. -1.
          1   -1    0    0  501    0 -0.00000000000E+00 -0.00000000000E+00 -0.23320301997E+03  0.23320301997E+03  0.00000000000E+00 0. -1.
         25    2    1    2    0    0  0.77030567928E+02  0.16748944380E+03  0.73394089235E+02  0.23451600561E+03  0.12499856950E+03 0.  0.
          2    1    1    2  501    0 -0.15864760667E+02 -0.32521575533E+02 -0.14527877974E+03  0.14971729142E+03  0.00000000000E+00 0. -1.
          1    1    1    2  502    0 -0.61165807262E+02 -0.13496786826E+03  0.10619958266E+04  0.10722838790E+04  0.00000000000E+00 0. -1.
         22    1    3    3    0    0  0.88456088967E+01  0.15015055779E+03  0.35250835461E+02  0.15448642724E+03  0.00000000000E+00 0.  1.
         22    1    3    3    0    0  0.68184959032E+02  0.17338886006E+02  0.38143253774E+02  0.80029578373E+02  0.00000000000E+00 0.  1.
</event>
<event>
 7    1  0.7118985E-006  0.1030977E+03  0.7818608E-02  0.1313718E+00
          2   -1    0    0  502    0  0.00000000000E+00  0.00000000000E+00  0.92520872673E+03  0.92520872673E+03  0.00000000000E+00 0. -1.
          1   -1    0    0  501    0 -0.00000000000E+00 -0.00000000000E+00 -0.11261381703E+03  0.11261381703E+03  0.00000000000E+00 0. -1.
         25    2    1    2    0    0 -0.11256829358E+02  0.49786913454E+02  0.27760384347E+01  0.13503228191E+03  0.12498222997E+03 0.  0.
          2    1    1    2  501    0 -0.68003813393E+02  0.20992937642E+02 -0.13671837376E+02  0.72471657937E+02  0.00000000000E+00 0. -1.
          1    1    1    2  502    0  0.79260642751E+02 -0.70779851096E+02  0.82349070864E+03  0.83031860392E+03  0.00000000000E+00 0. -1.
         22    1    3    3    0    0 -0.13631315818E+02 -0.20547600783E+02 -0.44064560528E+02  0.50494575584E+02  0.00000000000E+00 0.  1.
         22    1    3    3    0    0  0.23744864601E+01  0.70334514237E+02  0.46840598962E+02  0.84537706322E+02  0.00000000000E+00 0.  1.
</event>
<event>
 7    1  0.7118985E-006  0.1592259E+03  0.7818608E-02  0.1324585E+00
          2   -1    0    0  502    0  0.00000000000E+00  0.00000000000E+00  0.13273315220E+04  0.13273315220E+04  0.00000000000E+00 0. -1.
          1   -1    0    0  501    0 -0.00000000000E+00 -0.00000000000E+00 -0.94642792217E+02  0.94642792217E+02  0.00000000000E+00 0. -1.
         25    2    1    2    0    0  0.91697342195E+02  0.13752992053E+03  0.41846931027E+03  0.46697037782E+03  0.12498755344E+03 0.  0.
          2    1    1    2  501    0  0.26827342890E+02 -0.32072249735E+02 -0.56309746456E+02  0.70136460386E+02  0.00000000000E+00 0. -1.
          1    1    1    2  502    0 -0.11852468508E+03 -0.10545767079E+03  0.87052916595E+03  0.88486747600E+03  0.00000000000E+00 0. -1.
         22    1    3    3    0    0  0.22873100117E+02  0.13498355867E+03  0.30350996596E+03  0.33295951594E+03  0.00000000000E+00 0.  1.
         22    1    3    3    0    0  0.68824242078E+02  0.25463618584E+01  0.11495934431E+03  0.13401086188E+03  0.00000000000E+00 0.  1.
</event>
<event>
 7    1  0.7118985E-006  0.7810662E+02  0.7818608E-02  0.1346862E+00
          2   -1    0    0  502    0  0.00000000000E+00  0.00000000000E+00  0.32713328399E+03  0.32713328399E+03  0.00000000000E+00 0. -1.
          1   -1    0    0  501    0 -0.00000000000E+00 -0.00000000000E+00 -0.42150526448E+03  0.42150526448E+03  0.00000000000E+00 0. -1.
         25    2    1    2    0    0  0.13502701533E+03  0.57538032925E+02 -0.19652546013E+03  0.27529924221E+03  0.12499798470E+03 0.  0.
          2    1    1    2  501    0 -0.64727057164E+02 -0.27148551554E+02 -0.17354447604E+03  0.18720128457E+03  0.00000000000E+00 0. -1.
          1    1    1    2  502    0 -0.70299958168E+02 -0.30389481371E+02  0.27569795567E+03  0.28613802169E+03  0.00000000000E+00 0. -1.
         22    1    3    3    0    0  0.14598409450E+03  0.62431753544E+02 -0.20594536132E+03  0.26004340320E+03  0.00000000000E+00 0.  1.
         22    1    3    3    0    0 -0.10957079168E+02 -0.48937206189E+01  0.94199011935E+01  0.15255839010E+02  0.00000000000E+00 0.  1.
</event>
<event>
 7    1  0.7118985E-006  0.1324745E+03  0.7818608E-02  0.1334402E+00
          2   -1    0    0  502    0  0.00000000000E+00  0.00000000000E+00  0.39434501163E+03  0.39434501163E+03  0.00000000000E+00 0. -1.
          1   -1    0    0  501    0 -0.00000000000E+00 -0.00000000000E+00 -0.40456609355E+03  0.40456609355E+03  0.00000000000E+00 0. -1.
         25    2    1    2    0    0 -0.15219222841E+03 -0.33934719307E+02 -0.25800219359E+03  0.32634872499E+03  0.12499727536E+03 0.  0.
          2    1    1    2  501    0  0.11269567300E+03  0.10168240224E+02 -0.81894547948E+02  0.13967972224E+03  0.00000000000E+00 0. -1.
          1    1    1    2  502    0  0.39496555410E+02  0.23766479083E+02  0.32967565962E+03  0.33288265795E+03  0.00000000000E+00 0. -1.
         22    1    3    3    0    0 -0.33823124990E+02 -0.78945464957E+01 -0.17746170319E+03  0.18082860323E+03  0.00000000000E+00 0. -1.
         22    1    3    3    0    0 -0.11836910342E+03 -0.26040172811E+02 -0.80540490400E+02  0.14552012176E+03  0.00000000000E+00 0. -1.
</event>
<event>
 7    1  0.7118985E-006  0.1548155E+03  0.7818608E-02  0.1304660E+00
          2   -1    0    0  502    0  0.00000000000E+00  0.00000000000E+00  0.20958374397E+04  0.20958374397E+04  0.00000000000E+00 0. -1.
          1   -1    0    0  501    0 -0.00000000000E+00 -0.00000000000E+00 -0.77273865899E+03  0.77273865899E+03  0.00000000000E+00 0. -1.
         25    2    1    2    0    0  0.74046421469E+02  0.17102831872E+03  0.52928667987E+03  0.57489430640E+03  0.12500206280E+03 0.  0.
          2    1    1    2  501    0  0.14359853781E+02 -0.49416482269E+02 -0.74538484621E+03  0.74715912836E+03  0.00000000000E+00 0. -1.
          1    1    1    2  502    0 -0.88406275250E+02 -0.12161183645E+03  0.15391969470E+04  0.15465226639E+04  0.00000000000E+00 0. -1.
         22    1    3    3    0    0  0.99086248066E+02  0.10028469452E+03  0.41389930171E+03  0.43725019894E+03  0.00000000000E+00 0.  1.
         22    1    3    3    0    0 -0.25039826597E+02  0.70743624198E+02  0.11538737816E+03  0.13764410746E+03  0.00000000000E+00 0.  1.
</event>
<event>
 7    1  0.7118985E-006  0.3669099E+03  0.7818608E-02  0.1235452E+00
          2   -1    0    0  502    0  0.00000000000E+00  0.00000000000E+00  0.39050882163E+04  0.39050882163E+04  0.00000000000E+00 0. -1.
          1   -1    0    0  501    0 -0.00000000000E+00 -0.00000000000E+00 -0.12305288400E+03  0.12305288400E+03  0.00000000000E+00 0. -1.
         25    2    1    2    0    0 -0.16440440059E+03 -0.33639058807E+03  0.13512623656E+04  0.14077368894E+04  0.12500293753E+03 0.  0.
          2    1    1    2  501    0  0.19621382232E+03  0.30832756201E+03  0.25833446482E+03  0.44755161187E+03  0.00000000000E+00 0. -1.
          1    1    1    2  502    0 -0.31809421732E+02  0.28063026060E+02  0.21724385019E+04  0.21728525991E+04  0.00000000000E+00 0. -1.
         22    1    3    3    0    0 -0.26340874793E+02 -0.15460270141E+03  0.40436868336E+03  0.43371634631E+03  0.00000000000E+00 0. -1.
         22    1    3    3    0    0 -0.13806352579E+03 -0.18178788666E+03  0.94689368225E+03  0.97402054309E+03  0.00000000000E+00 0. -1.
</event>
<event>
 7    1  0.7118985E-006  0.5483119E+02  0.7818608E-02  0.1478987E+00
          2   -1    0    0  502    0  0.00000000000E+00  0.00000000000E+00  0.76372717391E+03  0.76372717391E+03  0.00000000000E+00 0. -1.
          1   -1    0    0  501    0 -0.00000000000E+00 -0.00000000000E+00 -0.14881468738E+03  0.14881468738E+03  0.00000000000E+00 0. -1.
         25    2    1    2    0    0 -0.70294630442E+02  0.42777622568E+02  0.11862395041E+03  0.19096370006E+03  0.12499693223E+03 0.  0.
          2    1    1    2  501    0  0.52556073045E+02 -0.11757257465E+02 -0.10564752878E+03  0.11858235220E+03  0.00000000000E+00 0. -1.
          1    1    1    2  502    0  0.17738557397E+02 -0.31020365103E+02  0.60193606490E+03  0.60299580902E+03  0.00000000000E+00 0. -1.
         22    1    3    3    0    0 -0.44422520873E+02  0.68625024914E+02  0.17733437218E+02  0.83649442321E+02  0.00000000000E+00 0. -1.
         22    1    3    3    0    0 -0.25872109570E+02 -0.25847402346E+02  0.10089051319E+03  0.10731425774E+03  0.00000000000E+00 0. -1.
</event>
<event>
 7    1  0.7118985E-006  0.5981938E+02  0.7818608E-02  0.1443137E+00
          2   -1    0    0  502    0  0.00000000000E+00  0.00000000000E+00  0.28779386081E+03  0.28779386081E+03  0.00000000000E+00 0. -1.
          1   -1    0    0  501    0 -0.00000000000E+00 -0.00000000000E+00 -0.83354475670E+03  0.83354475670E+03  0.00000000000E+00 0. -1.
         25    2    1    2    0    0  0.26718400298E+01 -0.23832873683E+02 -0.10003984651E+03  0.16188872228E+03  0.12499937165E+03 0.  0.
          2    1    1    2  501    0  0.35073711050E+02 -0.23970678291E+02 -0.69831516796E+03  0.69960619811E+03  0.00000000000E+00 0. -1.
          1    1    1    2  502    0 -0.37745551080E+02  0.47803551974E+02  0.25260411858E+03  0.25984369712E+03  0.00000000000E+00 0. -1.
         22    1    3    3    0    0 -0.31308481415E+02 -0.25265341092E+02  0.14223152460E+02  0.42671495578E+02  0.00000000000E+00 0.  1.
         22    1    3    3    0    0  0.33980321445E+02  0.14324674090E+01 -0.11426299897E+03  0.11921722670E+03  0.00000000000E+00 0.  1.
</event>
<event>
 7    1  0.7118985E-006  0.6210214E+02  0.7818608E-02  0.1391358E+00
          2   -1    0    0  502    0  0.00000000000E+00  0.00000000000E+00  0.62674916798E+03  0.62674916798E+03  0.00000000000E+00 0. -1.
          1   -1    0    0  501    0 -0.00000000000E+00 -0.00000000000E+00 -0.64827855988E+03  0.64827855988E+03  0.00000000000E+00 0. -1.
         25    2    1    2    0    0  0.22327321904E+02  0.28140740451E+01 -0.37392181410E+03  0.39489855099E+03  0.12498365572E+03 0.  0.
          2    1    1    2  501    0 -0.73730469969E-01 -0.61042739929E+02 -0.25873115764E+03  0.26583459795E+03  0.00000000000E+00 0. -1.
          1    1    1    2  502    0 -0.22253591434E+02  0.58228665884E+02  0.61112357983E+03  0.61429457892E+03  0.00000000000E+00 0. -1.
         22    1    3    3    0    0 -0.40670060926E+02  0.69871181449E+01 -0.27122903335E+03  0.27435025462E+03  0.00000000000E+00 0.  1.
         22    1    3    3    0    0  0.62997382830E+02 -0.41730440999E+01 -0.10269278074E+03  0.12054829637E+03  0.00000000000E+00 0.  1.
</event>
<event>
 7    1  0.7118985E-006  0.1227726E+03  0.7818608E-02  0.1299176E+00
          2   -1    0    0  502    0  0.00000000000E+00  0.00000000000E+00  0.18892504077E+04  0.18892504077E+04  0.00000000000E+00 0. -1.
          1   -1    0    0  501    0 -0.00000000000E+00 -0.00000000000E+00 -0.24828262743E+03  0.24828262743E+03  0.00000000000E+00 0. -1.
         25    2    1    2    0    0  0.19263661411E+02 -0.14100462488E+03 -0.50692170311E+01  0.18949583360E+03  0.12501832307E+03 0.  0.
          2    1    1    2  501    0  0.43075102176E+02  0.11323130600E+03 -0.12593776763E+03  0.17474871788E+03  0.00000000000E+00 0. -1.
          1    1    1    2  502    0 -0.62338763587E+02  0.27773318885E+02  0.17719747649E+04  0.17732884836E+04  0.00000000000E+00 0. -1.
         22    1    3    3    0    0  0.17206104058E+02 -0.16248015749E+03 -0.17946022675E+02  0.16437126064E+03  0.00000000000E+00 0.  1.
         22    1    3    3    0    0  0.20575573531E+01  0.21475532606E+02  0.12876805644E+02  0.25124572963E+02  0.00000000000E+00 0.  1.
</event>
<event>
 7    1  0.7118985E-006  0.7145860E+02  0.7818608E-02  0.1411998E+00
          2   -1    0    0  502    0  0.00000000000E+00  0.00000000000E+00  0.18926196091E+03  0.18926196091E+03  0.00000000000E+00 0. -1.
          1   -1    0    0  501    0 -0.00000000000E+00 -0.00000000000E+00 -0.30576703664E+04  0.30576703664E+04  0.00000000000E+00 0. -1.
         25    2    1    2    0    0 -0.54895403025E+02  0.12898188258E+02 -0.14053605083E+03  0.19635978288E+03  0.12500765663E+03 0.  0.
          2    1    1    2  501    0  0.64842937000E+02  0.31059673912E+02 -0.28856186427E+04  0.28865142059E+04  0.00000000000E+00 0. -1.
          1    1    1    2  502    0 -0.99475339747E+01 -0.43957862170E+02  0.15774628799E+03  0.16405833857E+03  0.00000000000E+00 0. -1.
         22    1    3    3    0    0 -0.68196873093E+02 -0.17020919069E+02 -0.14704096852E+03  0.16297721193E+03  0.00000000000E+00 0. -1.
         22    1    3    3    0    0  0.13301470068E+02  0.29919107328E+02  0.65049176866E+01  0.33382570952E+02  0.00000000000E+00 0. -1.
</event>
<event>
 7    1  0.7118985E-006  0.1220690E+03  0.7818608E-02  0.1384601E+00
          2   -1    0    0  502    0  0.00000000000E+00  0.00000000000E+00  0.26514155145E+04  0.26514155145E+04  0.00000000000E+00 0. -1.
          1   -1    0    0  501    0 -0.00000000000E+00 -0.00000000000E+00 -0.63334477385E+02  0.63334477385E+02  0.00000000000E+00 0. -1.
         25    2    1    2    0    0  0.12402741851E+03 -0.53178012957E+02  0.20775732027E+03  0.27748856184E+03  0.12500438482E+03 0.  0.
          2    1    1    2  501    0 -0.94801883926E+02  0.68053270077E+02  0.91736602573E+02  0.14843937825E+03  0.00000000000E+00 0. -1.
          1    1    1    2  502    0 -0.29225534579E+02 -0.14875257120E+02  0.22885871142E+04  0.22888220518E+04  0.00000000000E+00 0. -1.
         22    1    3    3    0    0 -0.21636863797E+02 -0.29094616973E+02  0.38474249112E+02  0.52866988343E+02  0.00000000000E+00 0.  1.
         22    1    3    3    0    0  0.14566428230E+03 -0.24083395984E+02  0.16928307116E+03  0.22462157350E+03  0.00000000000E+00 0.  1.
</event>
<event>
 7    1  0.7118985E-006  0.1006172E+03  0.7818608E-02  0.1311884E+00
          2   -1    0    0  502    0  0.00000000000E+00  0.00000000000E+00  0.24070621771E+03  0.24070621771E+03  0.00000000000E+00 0. -1.
          1   -1    0    0  501    0 -0.00000000000E+00 -0.00000000000E+00 -0.72508054441E+03  0.72508054441E+03  0.00000000000E+00 0. -1.
         25    2    1    2    0    0 -0.22533141261E+02 -0.32336453123E+02 -0.13030777924E+03  0.18481891282E+03  0.12499809818E+03 0.  0.
          2    1    1    2  501    0  0.61629906037E+02  0.95333837397E+02 -0.55515683706E+03  0.56664442078E+03  0.00000000000E+00 0. -1.
          1    1    1    2  502    0 -0.39096764775E+02 -0.62997384273E+02  0.20109028960E+03  0.21432342852E+03  0.00000000000E+00 0. -1.
         22    1    3    3    0    0  0.37106648402E+02 -0.38452882327E+02 -0.10863991192E+03  0.12107087997E+03  0.00000000000E+00 0. -1.
         22    1    3    3    0    0 -0.59639789663E+02  0.61164292039E+01 -0.21667867318E+02  0.63748032843E+02  0.00000000000E+00 0. -1.
</event>
<event>
 7    1  0.7118985E-006  0.4872563E+02  0.7818608E-02  0.1566496E+00
          2   -1    0    0  502    0  0.00000000000E+00  0.00000000000E+00  0.18155925484E+04  0.18155925484E+04  0.00000000000E+00 0. -1.
          1   -1    0    0  501    0 -0.00000000000E+00 -0.00000000000E+00 -0.17768220459E+02  0.17768220459E+02  0.00000000000E+00 0. -1.
         25    2    1    2    0    0 -0.48331524977E+02 -0.10583010627E+02  0.46755470657E+03  0.48649731421E+03  0.12499718667E+03 0.  0.
          2    1    1    2  501    0  0.10150985295E+02 -0.20008851113E+02  0.81986464144E+01  0.23887537092E+02  0.00000000000E+00 0. -1.
          1    1    1    2  502    0  0.38180539682E+02  0.30591861740E+02  0.13220709749E+04  0.13229759175E+04  0.00000000000E+00 0. -1.
         22    1    3    3    0    0 -0.83396387237E+02 -0.27169128058E+02  0.23715067115E+03  0.25285086464E+03  0.00000000000E+00 0.  1.
         22    1    3    3    0    0  0.35064862260E+02  0.16586117432E+02  0.23040403542E+03  0.23364644957E+03  0.00000000000E+00 0.  1.
</event>
<event>
 7    1  0.7118985E-006  0.1221823E+03  0.7818608E-02  0.1325244E+00
          2   -1    0    0  502    0  0.00000000000E+00  0.00000000000E+00  0.23796636416E+03  0.23796636416E+03  0.00000000000E+00 0. -1.
          1   -1    0    0  501    0 -0.00000000000E+00 -0.00000000000E+00 -0.47083371473E+03  0.47083371473E+03  0.00000000000E+00 0. -1.
         25    2    1    2    0    0  0.92497370885E+02  0.65918786863E+02 -0.11585326278E+03  0.20481109343E+03  0.12499822165E+03 0.  0.
          2    1    1    2  501    0 -0.32577708710E+02  0.43282869631E+02 -0.28766084476E+03  0.29271739873E+03  0.00000000000E+00 0. -1.
          1    1    1    2  502    0 -0.59919662175E+02 -0.10920165649E+03  0.17064675696E+03  0.21127158673E+03  0.00000000000E+00 0. -1.
         22    1    3    3    0    0  0.43979721800E+02 -0.23824393576E+02 -0.84304201791E+02  0.98025588998E+02  0.00000000000E+00 0. -1.
         22    1    3    3    0    0  0.48517649085E+02  0.89743180439E+02 -0.31549060988E+02  0.10678550443E+03  0.00000000000E+00 0. -1.
</event>
<event>
 7    1  0.7118985E-006  0.4907230E+02  0.7818608E-02  0.1451212E+00
          2   -1    0    0  502    0  0.00000000000E+00  0.00000000000E+00  0.87512608355E+02  0.87512608355E+02  0.00000000000E+00 0. -1.
          1   -1    0    0  501    0 -0.00000000000E+00 -0.00000000000E+00 -0.41007139796E+03  0.41007139796E+03  0.00000000000E+00 0. -1.
         25    2    1    2    0    0  0.95060485390E+01 -0.85770388478E+01 -0.76162302665E+02  0.14693267223E+03  0.12499833306E+03 0.  0.
          2    1    1    2  501    0  0.42412639727E+02  0.24683168380E+02 -0.28162916576E+03  0.28587248524E+03  0.00000000000E+00 0. -1.
          1    1    1    2  502    0 -0.51918688266E+02 -0.16106129532E+02  0.35232678826E+02  0.64778848840E+02  0.00000000000E+00 0. -1.
         22    1    3    3    0    0 -0.20558186680E+02  0.47817916588E+02 -0.62934886947E+02  0.81670020090E+02  0.00000000000E+00 0.  1.
         22    1    3    3    0    0  0.30064235219E+02 -0.56394955436E+02 -0.13227415717E+02  0.65262652141E+02  0.00000000000E+00 0.  1.
</event>
<event>
 7    1  0.7118985E-006  0.1009451E+03  0.7818608E-02  0.1304278E+00
          2   -1    0    0  502    0  0.00000000000E+00  0.00000000000E+00  0.29806105800E+03  0.29806105800E+03  0.00000000000E+00 0. -1.
          1   -1    0    0  501    0 -0.00000000000E+00 -0.00000000000E+00 -0.23420293661E+03  0.23420293661E+03  0.00000000000E+00 0. -1.
         25    2    1    2    0    0  0.11510808981E+03 -0.10087721360E+03  0.15581652997E+03  0.25165534508E+03  0.12500214852E+03 0.  0.
          2    1    1    2  501    0 -0.40710066822E+02  0.67935166836E+02 -0.15739318286E+03  0.17619622710E+03  0.00000000000E+00 0. -1.
          1    1    1    2  502    0 -0.74398022993E+02  0.32942046765E+02  0.65434774286E+02  0.10441242242E+03  0.00000000000E+00 0. -1.
         22    1    3    3    0    0 -0.92304241629E+01 -0.52063518796E+02  0.98337062579E+01  0.53782083433E+02  0.00000000000E+00 0. -1.
         22    1    3    3    0    0  0.12433851398E+03 -0.48813694805E+02  0.14598282371E+03  0.19787326165E+03  0.00000000000E+00 0. -1.
</event>
<event>
 7    1  0.7118985E-006  0.1142764E+03  0.7818608E-02  0.1390645E+00
          2   -1    0    0  502    0  0.00000000000E+00  0.00000000000E+00  0.43644487088E+03  0.43644487088E+03  0.00000000000E+00 0. -1.
          1   -1    0    0  501    0 -0.00000000000E+00 -0.00000000000E+00 -0.18453056041E+04  0.18453056041E+04  0.00000000000E+00 0. -1.
         25    2    1    2    0    0  0.39118691605E+02  0.88209938053E+02 -0.50800723922E+02  0.16587776218E+03  0.12499381277E+03 0.  0.
          2    1    1    2  501    0 -0.20563570615E+02  0.26272550550E+02 -0.17279269803E+04  0.17282490435E+04  0.00000000000E+00 0. -1.
          1    1    1    2  502    0 -0.18555120990E+02 -0.11448248860E+03  0.36986697099E+03  0.38762366923E+03  0.00000000000E+00 0. -1.
         22    1    3    3    0    0 -0.15798729867E+02  0.47502759276E+02 -0.77688311872E+02  0.92420700093E+02  0.00000000000E+00 0. -1.
         22    1    3    3    0    0  0.54917421472E+02  0.40707178777E+02  0.26887587950E+02  0.73457062089E+02  0.00000000000E+00 0. -1.
</event>
<event>
 7    1  0.7118985E-006  0.5791830E+02  0.7818608E-02  0.1407661E+00
          2   -1    0    0  502    0  0.00000000000E+00  0.00000000000E+00  0.10247270722E+03  0.10247270722E+03  0.00000000000E+00 0. -1.
          1   -1    0    0  501    0 -0.00000000000E+00 -0.00000000000E+00 -0.17755500025E+03  0.17755500025E+03  0.00000000000E+00 0. -1.
         25    2    1    2    0    0 -0.66068199545E+02 -0.58072340681E+01 -0.49325033382E+02  0.14985422087E+03  0.12499839053E+03 0.  0.
          2    1    1    2  501    0  0.33910659919E+02 -0.46461561610E+02 -0.36141270060E+02  0.67932326361E+02  0.00000000000E+00 0. -1.
          1    1    1    2  502    0  0.32157539626E+02  0.52268795678E+02  0.10384010412E+02  0.62241160245E+02  0.00000000000E+00 0. -1.
         22    1    3    3    0    0 -0.25752510059E+02 -0.60633633496E+02 -0.12079424872E+00  0.65875973439E+02  0.00000000000E+00 0. -1.
         22    1    3    3    0    0 -0.40315689486E+02  0.54826399428E+02 -0.49204239134E+02  0.83978247431E+02  0.00000000000E+00 0. -1.
</event>
<event>
 7    1  0.7118985E-006  0.8216608E+02  0.7818608E-02  0.1376630E+00
          2   -1    0    0  502    0  0.00000000000E+00  0.00000000000E+00  0.22437504823E+04  0.22437504823E+04  0.00000000000E+00 0. -1.
          1   -1    0    0  501    0 -0.00000000000E+00 -0.00000000000E+00 -0.22274526692E+03  0.22274526692E+03  0.00000000000E+00 0. -1.
         25    2    1    2    0    0  0.88301115987E+02  0.85494574083E+02  0.58980499572E+03  0.61530564136E+03  0.12499876009E+03 0.  0.
          2    1    1    2  501    0 -0.73518734386E+02 -0.35652350825E+02 -0.20161761759E+03  0.21754484169E+03  0.00000000000E+00 0. -1.
          1    1    1    2  502    0 -0.14782381601E+02 -0.49842223258E+02  0.16328178373E+04  0.16336452662E+04  0.00000000000E+00 0. -1.
         22    1    3    3    0    0  0.36744825924E+02  0.95887705749E+02  0.23271998157E+03  0.25436828452E+03  0.00000000000E+00 0.  1.
         22    1    3    3    0    0  0.51556290063E+02 -0.10393131666E+02  0.35708501415E+03  0.36093735684E+03  0.00000000000E+00 0.  1.
</event>
<event>
 7    1  0.7118985E-006  0.1091427E+03  0.7818608E-02  0.1269572E+00
          2   -1    0    0  502    0  0.00000000000E+00  0.00000000000E+00  0.58747200249E+02  0.58747200249E+02  0.00000000000E+00 0. -1.
          1   -1    0    0  501    0 -0.00000000000E+00 -0.00000000000E+00 -0.67696108846E+03  0.67696108846E+03  0.00000000000E+00 0. -1.
         25    2    1    2    0    0 -0.85141790362E+02 -0.55331482636E+02 -0.25312614108E+03  0.30001425119E+03  0.12500004073E+03 0.  0.
          2    1    1    2  501    0  0.69314972648E+02 -0.74216024811E+02 -0.20798903525E+03  0.23145630810E+03  0.00000000000E+00 0. -1.
          1    1    1    2  502    0  0.15826817714E+02  0.12954750745E+03 -0.15709871187E+03  0.20423772942E+03  0.00000000000E+00 0. -1.
         22    1    3    3    0    0 -0.99530855391E+02 -0.65506552253E+02 -0.25579948878E+03  0.28218943641E+03  0.00000000000E+00 0. -1.
         22    1    3    3    0    0  0.14389065029E+02  0.10175069616E+02  0.26733476972E+01  0.17824814782E+02  0.00000000000E+00 0. -1.
</event>
<event>
 7    1  0.7118985E-006  0.1372252E+03  0.7818608E-02  0.1391481E+00
          2   -1    0    0  502    0  0.00000000000E+00  0.00000000000E+00  0.67192638232E+03  0.67192638232E+03  0.00000000000E+00 0. -1.
          1   -1    0    0  501    0 -0.00000000000E+00 -0.00000000000E+00 -0.10597806570E+03  0.10597806570E+03  0.00000000000E+00 0. -1.
         25    2    1    2    0    0  0.71163979705E+02 -0.94141804052E+02  0.12020138725E+03  0.20976793702E+03  0.12500889019E+03 0.  0.
          2    1    1    2  501    0  0.26176143200E+02 -0.87443874890E+01 -0.47511802156E+02  0.54945665248E+02  0.00000000000E+00 0. -1.
          1    1    1    2  502    0 -0.97340122905E+02  0.10288619154E+03  0.49325873153E+03  0.51319084576E+03  0.00000000000E+00 0. -1.
         22    1    3    3    0    0  0.12483081858E+02 -0.41948991250E+02  0.12364113706E+03  0.13115897214E+03  0.00000000000E+00 0. -1.
         22    1    3    3    0    0  0.58680897847E+02 -0.52192812801E+02 -0.34397498107E+01  0.78608964877E+02  0.00000000000E+00 0. -1.
</event>
<event>
 7    1  0.7118985E-006  0.1583599E+03  0.7818608E-02  0.1320586E+00
          2   -1    0    0  502    0  0.00000000000E+00  0.00000000000E+00  0.61926585800E+03  0.61926585800E+03  0.00000000000E+00 0. -1.
          1   -1    0    0  501    0 -0.00000000000E+00 -0.00000000000E+00 -0.73045877199E+03  0.73045877199E+03  0.00000000000E+00 0. -1.
         25    2    1    2    0    0 -0.15288500939E+03 -0.79703324740E+02 -0.18720385681E+03  0.28354236091E+03  0.12499816141E+03 0.  0.
          2    1    1    2  501    0  0.11642752245E+03  0.10355148267E+03 -0.48195590270E+03  0.50651729457E+03  0.00000000000E+00 0. -1.
          1    1    1    2  502    0  0.36457486941E+02 -0.23848157932E+02  0.55796684553E+03  0.55966497451E+03  0.00000000000E+00 0. -1.
         22    1    3    3    0    0 -0.51557350116E+02 -0.18270600578E+02 -0.14950034106E+03  0.15919273594E+03  0.00000000000E+00 0. -1.
         22    1    3    3    0    0 -0.10132765927E+03 -0.61432724161E+02 -0.37703515745E+02  0.12434962498E+03  0.00000000000E+00 0. -1.
</event>
<event>
 7    1  0.7118985E-006  0.1015542E+03  0.7818608E-02  0.1288449E+00
          2   -1    0    0  502    0  0.00000000000E+00  0.00000000000E+00  0.39556524458E+04  0.39556524458E+04  0.00000000000E+00 0. -1.
          1   -1    0    0  501    0 -0.00000000000E+00 -0.00000000000E+00 -0.17856923852E+03  0.17856923852E+03  0.00000000000E+00 0. -1.
         25    2    1    2    0    0 -0.12017444086E+03  0.12136719550E+03  0.16665664840E+04  0.16799529621E+04  0.12500486717E+03 0.  0.
          2    1    1    2  501    0  0.34821383967E+02 -0.84256346363E+02 -0.15876500481E+03  0.18307918351E+03  0.00000000000E+00 0. -1.
          1    1    1    2  502    0  0.85353056896E+02 -0.37110849138E+02  0.22692817281E+04  0.22711895388E+04  0.00000000000E+00 0. -1.
         22    1    3    3    0    0 -0.43219032231E+02  0.22981675605E+02  0.14048996208E+03  0.14877322207E+03  0.00000000000E+00 0.  1.
         22    1    3    3    0    0 -0.76955408632E+02  0.98385519896E+02  0.15260765219E+04  0.15311797400E+04  0.00000000000E+00 0.  1.
</event>
<event>
 7    1  0.7118985E-006  0.3094140E+03  0.7818608E-02  0.1182705E+00
          2   -1    0    0  502    0  0.00000000000E+00  0.00000000000E+00  0.11771920126E+04  0.11771920126E+04  0.00000000000E+00 0. -1.
          1   -1    0    0  501    0 -0.00000000000E+00 -0.00000000000E+00 -0.80579254370E+03  0.80579254370E+03  0.00000000000E+00 0. -1.
         25    2    1    2    0    0 -0.25818061388E+03 -0.43504672700E+02 -0.22077608854E+03  0.36458692279E+03  0.12502662545E+03 0.  0.
          2    1    1    2  501    0  0.34087374113E+03  0.74872178313E+02 -0.45167971180E+03  0.57080234103E+03  0.00000000000E+00 0. -1.
          1    1    1    2  502    0 -0.82693127249E+02 -0.31367505613E+02  0.10438552692E+04  0.10475952925E+04  0.00000000000E+00 0. -1.
         22    1    3    3    0    0 -0.45928588775E+02  0.21806592196E+01  0.10715744719E+02  0.47212474267E+02  0.00000000000E+00 0. -1.
         22    1    3    3    0    0 -0.21225202511E+03 -0.45685331920E+02 -0.23149183325E+03  0.31737444853E+03  0.00000000000E+00 0. -1.
</event>
<event>
 7    1  0.7118985E-006  0.9957775E+02  0.7818608E-02  0.1365254E+00
          2   -1    0    0  502    0  0.00000000000E+00  0.00000000000E+00  0.96218314443E+03  0.96218314443E+03  0.00000000000E+00 0. -1.
          1   -1    0    0  501    0 -0.00000000000E+00 -0.00000000000E+00 -0.30165805987E+03  0.30165805987E+03  0.00000000000E+00 0. -1.
         25    2    1    2    0    0 -0.26776145618E+02  0.88134964261E+02  0.47829006516E+03  0.50286293458E+03  0.12500004256E+03 0.  0.
          2    1    1    2  501    0 -0.45986848813E+02 -0.10306417605E+02 -0.28136918053E+03  0.28528867531E+03  0.00000000000E+00 0. -1.
          1    1    1    2  502    0  0.72762994431E+02 -0.77828546656E+02  0.46360419993E+03  0.47568959441E+03  0.00000000000E+00 0. -1.
         22    1    3    3    0    0 -0.48217940278E+02  0.11193206092E+03  0.34916998648E+03  0.36982892732E+03  0.00000000000E+00 0. -1.
         22    1    3    3    0    0  0.21441794660E+02 -0.23797096657E+02  0.12912007869E+03  0.13303400726E+03  0.00000000000E+00 0. -1.
</event>
<event>
 7    1  0.7118985E-006  0.1410143E+03  0.7818608E-02  0.1315498E+00
          2   -1    0    0  502    0  0.00000000000E+00  0.00000000000E+00  0.14024346694E+04  0.14024346694E+04  0.00000000000E+00 0. -1.
          1   -1    0    0  501    0 -0.00000000000E+00 -0.00000000000E+00 -0.11681503070E+04  0.11681503070E+04  0.00000000000E+00 0. -1.
         25    2    1    2    0    0  0.17510210367E+02  0.17728417424E+03 -0.58042617636E+03  0.61987777406E+03  0.12497048717E+03 0.  0.
          2    1    1    2  501    0 -0.19304160064E+02 -0.12610978394E+03 -0.56035187125E+03  0.57469169805E+03  0.00000000000E+00 0. -1.
          1    1    1    2  502    0  0.17939496965E+01 -0.51174390303E+02  0.13750624100E+04  0.13760155042E+04  0.00000000000E+00 0. -1.
         22    1    3    3    0    0  0.46619373183E+02  0.10728565365E+02 -0.10853272704E+03  0.11860784506E+03  0.00000000000E+00 0.  1.
         22    1    3    3    0    0 -0.29109162816E+02  0.16655560888E+03 -0.47189344932E+03  0.50126992900E+03  0.00000000000E+00 0.  1.
</event>
<event>
 7    1  0.7118985E-006  0.9000281E+02  0.7818608E-02  0.1345168E+00
          2   -1    0    0  502    0  0.00000000000E+00  0.00000000000E+00  0.24826887961E+03  0.24826887961E+03  0.00000000000E+00 0. -1.
          1   -1    0    0  501    0 -0.00000000000E+00 -0.00000000000E+00 -0.17764053724E+03  0.17764053724E+03  0.00000000000E+00 0. -1.
         25    2    1    2    0    0 -0.38369346123E+02 -0.89842887929E+02  0.37095163165E+02  0.16292683523E+03  0.12500060510E+03 0.  0.
          2    1    1    2  501    0 -0.42235024429E+02  0.45121968639E+02 -0.89797083156E+02  0.10901057511E+03  0.00000000000E+00 0. -1.
          1    1    1    2  502    0  0.80604370552E+02  0.44720919290E+02  0.12333026236E+03  0.15397200651E+03  0.00000000000E+00 0. -1.
         22    1    3    3    0    0 -0.23414715755E+02 -0.95958900831E+02 -0.22395339546E+02  0.10128134476E+03  0.00000000000E+00 0.  1.
         22    1    3    3    0    0 -0.14954630368E+02  0.61160129018E+01  0.59490502711E+02  0.61645490476E+02  0.00000000000E+00 0.  1.
</event>
<event>
 7    1  0.7118985E-006  0.9327208E+02  0.7818608E-02  0.1387421E+00
          2   -1    0    0  502    0  0.00000000000E+00  0.00000000000E+00  0.26540736387E+03  0.26540736387E+03  0.00000000000E+00 0. -1.
          1   -1    0    0  501    0 -0.00000000000E+00 -0.00000000000E+00 -0.52273431092E+03  0.52273431092E+03  0.00000000000E+00 0. -1.
         25    2    1    2    0    0  0.41275857108E+02 -0.82216222478E+02 -0.72630523960E+02  0.17135753191E+03  0.12500002845E+03 0.  0.
          2    1    1    2  501    0 -0.75003224217E+02  0.57269667575E+02 -0.39306511285E+03  0.40423443867E+03  0.00000000000E+00 0. -1.
          1    1    1    2  502    0  0.33727367109E+02  0.24946554903E+02  0.20836868976E+03  0.21254970422E+03  0.00000000000E+00 0. -1.
         22    1    3    3    0    0 -0.44423925176E+02 -0.37445962654E+02 -0.33366055023E+02  0.66999842350E+02  0.00000000000E+00 0.  1.
         22    1    3    3    0    0  0.85699782285E+02 -0.44770259825E+02 -0.39264468937E+02  0.10435768956E+03  0.00000000000E+00 0.  1.
</event>
<event>
 7    1  0.7118985E-006  0.1504205E+03  0.7818608E-02  0.1263225E+00
          2   -1    0    0  502    0  0.00000000000E+00  0.00000000000E+00  0.30852662403E+03  0.30852662403E+03  0.00000000000E+00 0. -1.
          1   -1    0    0  501    0 -0.00000000000E+00 -0.00000000000E+00 -0.19412014542E+03  0.19412014542E+03  0.00000000000E+00 0. -1.
         25    2    1    2    0    0 -0.10991079912E+03 -0.22066277038E+01  0.65028243696E+02  0.17871491453E+03  0.12500038091E+03 0.  0.
          2    1    1    2  501    0 -0.77723758549E+02  0.10086788297E+02 -0.66902721728E+02  0.10304707718E+03  0.00000000000E+00 0. -1.
          1    1    1    2  502    0  0.18763455767E+03 -0.78801605934E+01  0.11628095664E+03  0.22088477774E+03  0.00000000000E+00 0. -1.
         22    1    3    3    0    0  0.77718296690E+01 -0.28720225642E+01  0.60372444359E+02  0.60938344972E+02  0.00000000000E+00 0. -1.
         22    1    3    3    0    0 -0.11768262879E+03  0.66539486033E+00  0.46557993364E+01  0.11777656955E+03  0.00000000000E+00 0. -1.
</event>
<event>
 7    1  0.7118985E-006  0.1129723E+03  0.7818608E-02  0.1295349E+00
          2   -1    0    0  502    0  0.00000000000E+00  0.00000000000E+00  0.19422109304E+04  0.19422109304E+04  0.00000000000E+00 0. -1.
          1   -1    0    0  501    0 -0.00000000000E+00 -0.00000000000E+00 -0.16176907841E+04  0.16176907841E+04  0.00000000000E+00 0. -1.
         25    2    1    2    0    0  0.15445958862E+02  0.10455178470E+03  0.68013876400E+03  0.69955964922E+03  0.12500124476E+03 0.  0.
          2    1    1    2  501    0 -0.85796182463E+02 -0.73643240851E+02 -0.16048106997E+04  0.16087888903E+04  0.00000000000E+00 0. -1.
          1    1    1    2  502    0  0.70350223601E+02 -0.30908543849E+02  0.12491920820E+04  0.12515531750E+04  0.00000000000E+00 0. -1.
         22    1    3    3    0    0  0.10512033000E+02  0.26443632300E+02  0.52525428508E+03  0.52602455505E+03  0.00000000000E+00 0. -1.
         22    1    3    3    0    0  0.49339258628E+01  0.78108152400E+02  0.15488447892E+03  0.17353509416E+03  0.00000000000E+00 0. -1.
</event>
<event>
 7    1  0.7118985E-006  0.5607388E+02  0.7818608E-02  0.1437215E+00
          2   -1    0    0  502    0  0.00000000000E+00  0.00000000000E+00  0.22152063878E+03  0.22152063878E+03  0.00000000000E+00 0. -1.
          1   -1    0    0  501    0 -0.00000000000E+00 -0.00000000000E+00 -0.31518956550E+04  0.31518956550E+04  0.00000000000E+00 0. -1.
         25    2    1    2    0    0 -0.25077921794E+01 -0.14729568740E+02 -0.20494754847E+03  0.24052076846E+03  0.12499397273E+03 0.  0.
          2    1    1    2  501    0 -0.32713018268E+02  0.46406685478E+02 -0.29261288469E+04  0.29266796461E+04  0.00000000000E+00 0. -1.
          1    1    1    2  502    0  0.35220810447E+02 -0.31677116738E+02  0.20070137921E+03  0.20621587920E+03  0.00000000000E+00 0. -1.
         22    1    3    3    0    0 -0.28764629662E+02 -0.21445617477E+02 -0.21750591123E+01  0.35945087435E+02  0.00000000000E+00 0. -1.
         22    1    3    3    0    0  0.26256837483E+02  0.67160487372E+01 -0.20277248936E+03  0.20457568103E+03  0.00000000000E+00 0. -1.
</event>
<event>
 7    1  0.7118985E-006  0.3005910E+03  0.7818608E-02  0.1328511E+00
          2   -1    0    0  502    0  0.00000000000E+00  0.00000000000E+00  0.33622729252E+03  0.33622729252E+03  0.00000000000E+00 0. -1.
          1   -1    0    0  501    0 -0.00000000000E+00 -0.00000000000E+00 -0.20330751663E+04  0.20330751663E+04  0.00000000000E+00 0. -1.
         25    2    1    2    0    0 -0.20499222220E+03  0.24228082628E+03 -0.66634771329E+03  0.74857649452E+03  0.12500273270E+03 0.  0.
          2    1    1    2  501    0  0.42083206339E+01 -0.20975089185E+02 -0.12498571715E+04  0.12500402448E+04  0.00000000000E+00 0. -1.
          1    1    1    2  502    0  0.20078390157E+03 -0.22130573710E+03  0.21935701101E+03  0.37068571955E+03  0.00000000000E+00 0. -1.
         22    1    3    3    0    0 -0.18051741804E+03  0.25436020674E+03 -0.63135869872E+03  0.70420129185E+03  0.00000000000E+00 0.  1.
         22    1    3    3    0    0 -0.24474804158E+02 -0.12079380461E+02 -0.34989014575E+02  0.44375202668E+02  0.00000000000E+00 0.  1.
</event>
<event>
 7    1  0.7118985E-006  0.4978280E+02  0.7818608E-02  0.1454530E+00
          2   -1    0    0  502    0  0.00000000000E+00  0.00000000000E+00  0.17615133282E+03  0.17615133282E+03  0.00000000000E+00 0. -1.
          1   -1    0    0  501    0 -0.00000000000E+00 -0.00000000000E+00 -0.17834013228E+03  0.17834013228E+03  0.00000000000E+00 0. -1.
         25    2    1    2    0    0 -0.65047893651E+01 -0.62707781842E+01  0.83955130872E+01  0.12560707279E+03  0.12500006860E+03 0.  0.
          2    1    1    2  501    0  0.82232756841E+01  0.53170121452E+02 -0.10805233577E+03  0.12070621916E+03  0.00000000000E+00 0. -1.
          1    1    1    2  502    0 -0.17184863190E+01 -0.46899343268E+02  0.97468023228E+02  0.10817817315E+03  0.00000000000E+00 0. -1.
         22    1    3    3    0    0 -0.62817466041E+02 -0.20503656751E+01  0.23583203434E+02  0.67129766299E+02  0.00000000000E+00 0.  1.
         22    1    3    3    0    0  0.56312676676E+02 -0.42204125090E+01 -0.15187690347E+02  0.58477306489E+02  0.00000000000E+00 0.  1.
</event>
<event>
 7    1  0.7118985E-006  0.2116733E+03  0.7818608E-02  0.1301513E+00
          2   -1    0    0  502    0  0.00000000000E+00  0.00000000000E+00  0.34638050203E+04  0.34638050203E+04  0.00000000000E+00 0. -1.
          1   -1    0    0  501    0 -0.00000000000E+00 -0.00000000000E+00 -0.27998533109E+03  0.27998533109E+03  0.00000000000E+00 0. -1.
         25    2    1    2    0    0 -0.18620854022E+03  0.15045747403E+03 -0.42091846280E+02  0.27332823736E+03  0.12500211948E+03 0.  0.
          2    1    1    2  501    0  0.38735182119E+02  0.61902105174E+00 -0.11578962436E+03  0.12209846285E+03  0.00000000000E+00 0. -1.
          1    1    1    2  502    0  0.14747335810E+03 -0.15107649508E+03  0.33417011599E+04  0.33483636512E+04  0.00000000000E+00 0. -1.
         22    1    3    3    0    0 -0.18076289236E+03  0.15287108115E+03 -0.68346597227E+02  0.24640626628E+03  0.00000000000E+00 0. -1.
         22    1    3    3    0    0 -0.54456478611E+01 -0.24136071225E+01  0.26254750947E+02  0.26921971088E+02  0.00000000000E+00 0. -1.
</event>
<event>
 7    1  0.7118985E-006  0.1010069E+03  0.7818608E-02  0.1412284E+00
          2   -1    0    0  502    0  0.00000000000E+00  0.00000000000E+00  0.21130374421E+04  0.21130374421E+04  0.00000000000E+00 0. -1.
          1   -1    0    0  501    0 -0.00000000000E+00 -0.00000000000E+00 -0.16575033831E+04  0.16575033831E+04  0.00000000000E+00 0. -1.
         25    2    1    2    0    0 -0.11757340341E+02 -0.12927368557E+03 -0.40203614020E+03  0.44057678930E+03  0.12499971363E+03 0.  0.
          2    1    1    2  501    0  0.11149341053E+02  0.97465313768E+02 -0.12341295132E+04  0.12380223950E+04  0.00000000000E+00 0. -1.
          1    1    1    2  502    0  0.60799928846E+00  0.31808371799E+02  0.20916997124E+04  0.20919416409E+04  0.00000000000E+00 0. -1.
         22    1    3    3    0    0  0.15657000923E+02 -0.70235767555E+02 -0.63912149396E+02  0.96244311844E+02  0.00000000000E+00 0. -1.
         22    1    3    3    0    0 -0.27414341265E+02 -0.59037918013E+02 -0.33812399081E+03  0.34433247745E+03  0.00000000000E+00 0. -1.
</event>
<event>
 7    1  0.7118985E-006  0.8476548E+02  0.7818608E-02  0.1403970E+00
          2   -1    0    0  502    0  0.00000000000E+00  0.00000000000E+00  0.50392433431E+03  0.50392433431E+03  0.00000000000E+00 0. -1.
          1   -1    0    0  501    0 -0.00000000000E+00 -0.00000000000E+00 -0.10074870841E+03  0.10074870841E+03  0.00000000000E+00 0. -1.
         25    2    1    2    0    0 -0.17937354830E+02 -0.11462721426E+03  0.22000376396E+03  0.27836594988E+03  0.12499919579E+03 0.  0.
          2    1    1    2  501    0 -0.57034947917E+01  0.81794798253E+02 -0.45712032885E+02  0.93874963779E+02  0.00000000000E+00 0. -1.
          1    1    1    2  502    0  0.23640849621E+02  0.32832416005E+02  0.22888389483E+03  0.23243212907E+03  0.00000000000E+00 0. -1.
         22    1    3    3    0    0 -0.60859753700E+02 -0.71425921271E+02  0.18669940095E+03  0.20895511041E+03  0.00000000000E+00 0. -1.
         22    1    3    3    0    0  0.42922398871E+02 -0.43201292987E+02  0.33304363005E+02  0.69410839469E+02  0.00000000000E+00 0. -1.
</event>
<event>
 7    1  0.7118985E-006  0.8025269E+02  0.7818608E-02  0.1367010E+00
          2   -1    0    0  502    0  0.00000000000E+00  0.00000000000E+00  0.29921094688E+04  0.29921094688E+04  0.00000000000E+00 0. -1.
          1   -1    0    0  501    0 -0.00000000000E+00 -0.00000000000E+00 -0.92413276987E+02  0.92413276987E+02  0.00000000000E+00 0. -1.
         25    2    1    2    0    0 -0.38267324403E+02  0.73032920427E+02  0.23119410610E+04  0.23167854868E+04  0.12500130698E+03 0.  0.
          2    1    1    2  501    0 -0.19137833869E+02 -0.78085526177E+02 -0.70521288584E+02  0.10694324769E+03  0.00000000000E+00 0. -1.
          1    1    1    2  502    0  0.57405158272E+02  0.50526057494E+01  0.65827641942E+03  0.66079401131E+03  0.00000000000E+00 0. -1.
         22    1    3    3    0    0 -0.45345460521E+02 -0.23227171949E+02  0.61783669606E+03  0.61993378300E+03  0.00000000000E+00 0.  1.
         22    1    3    3    0    0  0.70781361178E+01  0.96260092376E+02  0.16941043649E+04  0.16968517038E+04  0.00000000000E+00 0.  1.
</event>
<event>
 7    1  0.7118985E-006  0.1260529E+03  0.7818608E-02  0.1373888E+00
          2   -1    0    0  502    0  0.00000000000E+00  0.00000000000E+00  0.82276429055E+03  0.82276429055E+03  0.00000000000E+00 0. -1.
          1   -1    0    0  501    0 -0.00000000000E+00 -0.00000000000E+00 -0.22837672320E+03  0.22837672320E+03  0.00000000000E+00 0. -1.
         25    2    1    2    0    0 -0.71877287520E+02  0.65155971412E+02 -0.23521491617E+02  0.15997057747E+03  0.12500272003E+03 0.  0.
          2    1    1    2  501    0 -0.34070607228E+02  0.63625894287E+01 -0.12891132964E+03  0.13348939932E+03  0.00000000000E+00 0. -1.
          1    1    1    2  502    0  0.10594789475E+03 -0.71518560841E+02  0.74682038861E+03  0.75768103697E+03  0.00000000000E+00 0. -1.
         22    1    3    3    0    0 -0.23396787116E+02  0.70081550294E+02 -0.63123923182E+02  0.97177482046E+02  0.00000000000E+00 0.  1.
         22    1    3    3    0    0 -0.48480500404E+02 -0.49255788818E+01  0.39602431565E+02  0.62793095422E+02  0.00000000000E+00 0.  1.
</event>
<event>
 7    1  0.7118985E-006  0.1033865E+03  0.7818608E-02  0.1293097E+00
          2   -1    0    0  502    0  0.00000000000E+00  0.00000000000E+00  0.79146710547E+03  0.79146710547E+03  0.00000000000E+00 0. -1.
          1   -1    0    0  501    0 -0.00000000000E+00 -0.00000000000E+00 -0.82010245305E+03  0.82010245305E+03  0.00000000000E+00 0. -1.
         25    2    1    2    0    0 -0.45359765544E+02  0.54119595860E+02  0.21290310603E+03  0.25678713933E+03  0.12500185351E+03 0.  0.
          2    1    1    2  501    0 -0.72518476781E+02 -0.45747472723E+02 -0.78954075802E+03  0.79418283116E+03  0.00000000000E+00 0. -1.
          1    1    1    2  502    0  0.11787824233E+03 -0.83721231368E+01  0.54800230442E+03  0.56059958804E+03  0.00000000000E+00 0. -1.
         22    1    3    3    0    0 -0.45550355578E+01  0.88498166884E+02  0.11379363246E+03  0.14422782214E+03  0.00000000000E+00 0. -1.
         22    1    3    3    0    0 -0.40804729987E+02 -0.34378571024E+02  0.99109473563E+02  0.11255931718E+03  0.00000000000E+00 0. -1.
</event>
<event>
 7    1  0.7118985E-006  0.1244436E+03  0.7818608E-02  0.1336661E+00
          2   -1    0    0  502    0  0.00000000000E+00  0.00000000000E+00  0.17405475186E+03  0.17405475186E+03  0.00000000000E+00 0. -1.
          1   -1    0    0  501    0 -0.00000000000E+00 -0.00000000000E+00 -0.87257946154E+03  0.87257946154E+03  0.00000000000E+00 0. -1.
         25    2    1    2    0    0 -0.16715735046E+02 -0.91567353714E+02 -0.15421452589E+03  0.21925167638E+03  0.12500072614E+03 0.  0.
          2    1    1    2  501    0  0.29774266904E+02 -0.37793742861E+02 -0.65491702230E+03  0.65668194742E+03  0.00000000000E+00 0. -1.
          1    1    1    2  502    0 -0.13058531858E+02  0.12936109657E+03  0.11060683851E+03  0.17070058959E+03  0.00000000000E+00 0. -1.
         22    1    3    3    0    0 -0.28721631854E+02  0.19512068573E+02 -0.87060303285E+01  0.35797317224E+02  0.00000000000E+00 0. -1.
         22    1    3    3    0    0  0.12005896808E+02 -0.11107942229E+03 -0.14550849556E+03  0.18345435916E+03  0.00000000000E+00 0. -1.
</event>
<event>
 7    1  0.7118985E-006  0.1398253E+03  0.7818608E-02  0.1222877E+00
          2   -1    0    0  502    0  0.00000000000E+00  0.00000000000E+00  0.21158236377E+04  0.21158236377E+04  0.00000000000E+00 0. -1.
          1   -1    0    0  501    0 -0.00000000000E+00 -0.00000000000E+00 -0.13695614252E+04  0.13695614252E+04  0.00000000000E+00 0. -1.
         25    2    1    2    0    0 -0.13959785785E+03 -0.19009454845E+03  0.30145937222E+03  0.40264808403E+03  0.12499690878E+03 0.  0.
          2    1    1    2  501    0  0.20205964681E+02  0.12514373512E+03 -0.13132922609E+04  0.13193959974E+04  0.00000000000E+00 0. -1.
          1    1    1    2  502    0  0.11939189317E+03  0.64950813335E+02  0.17580951012E+04  0.17633409815E+04  0.00000000000E+00 0. -1.
         22    1    3    3    0    0 -0.12207750915E+03 -0.77551700235E+02  0.21730189189E+03  0.26103121781E+03  0.00000000000E+00 0.  1.
         22    1    3    3    0    0 -0.17520348697E+02 -0.11254284821E+03  0.84157480333E+02  0.14161686622E+03  0.00000000000E+00 0.  1.
</event>
<event>
 7    1  0.7118985E-006  0.7431826E+02  0.7818608E-02  0.1376654E+00
          2   -1    0    0  502    0  0.00000000000E+00  0.00000000000E+00  0.87163233891E+03  0.87163233891E+03  0.00000000000E+00 0. -1.
          1   -1    0    0  501    0 -0.00000000000E+00 -0.00000000000E+00 -0.60398556702E+03  0.60398556702E+03  0.00000000000E+00 0. -1.
         25    2    1    2    0    0  0.11482748789E+03 -0.59373339470E+02 -0.94399694708E+02  0.20309365490E+03  0.12500073955E+03 0.  0.
          2    1    1    2  501    0 -0.44998517311E+02  0.35743008810E+02 -0.45175259438E+03  0.45539305635E+03  0.00000000000E+00 0. -1.
          1    1    1    2  502    0 -0.69828970576E+02  0.23630330660E+02  0.81379906098E+03  0.81713119468E+03  0.00000000000E+00 0. -1.
         22    1    3    3    0    0  0.28786517704E+02  0.30061852440E+02 -0.62268174387E+02  0.74897958017E+02  0.00000000000E+00 0. -1.
         22    1    3    3    0    0  0.86040970183E+02 -0.89435191910E+02 -0.32131520320E+02  0.12819569689E+03  0.00000000000E+00 0. -1.
</event>
<event>
 7    1  0.7118985E-006  0.1023593E+03  0.7818608E-02  0.1342329E+00
          2   -1    0    0  502    0  0.00000000000E+00  0.00000000000E+00  0.20184898708E+04  0.20184898708E+04  0.00000000000E+00 0. -1.
          1   -1    0    0  501    0 -0.00000000000E+00 -0.00000000000E+00 -0.98683310008E+03  0.98683310008E+03  0.00000000000E+00 0. -1.
         25    2    1    2    0    0  0.12672124225E+03  0.29344380486E+02  0.64155491934E+03  0.66644445212E+03  0.12504450136E+03 0.  0.
          2    1    1    2  501    0 -0.10037362770E+03  0.19717494059E+02 -0.97113276391E+03  0.97650524312E+03  0.00000000000E+00 0. -1.
          1    1    1    2  502    0 -0.26347614549E+02 -0.49061874546E+02  0.13612346153E+04  0.13623732756E+04  0.00000000000E+00 0. -1.
         22    1    3    3    0    0  0.18831435403E+02  0.35618686666E+02  0.45942217572E+02  0.61106473917E+02  0.00000000000E+00 0.  1.
         22    1    3    3    0    0  0.10788980684E+03 -0.62743061800E+01  0.59561270177E+03  0.60533797820E+03  0.00000000000E+00 0.  1.
</event>
<event>
 7    1  0.7118985E-006  0.9985963E+02  0.7818608E-02  0.1411224E+00
          2   -1    0    0  502    0  0.00000000000E+00  0.00000000000E+00  0.12609405346E+04  0.12609405346E+04  0.00000000000E+00 0. -1.
          1   -1    0    0  501    0 -0.00000000000E+00 -0.00000000000E+00 -0.60285417874E+02  0.60285417874E+02  0.00000000000E+00 0. -1.
         25    2    1    2    0    0 -0.20446662598E+02  0.93608112078E+02  0.10213331517E+04  0.10334053403E+04  0.12499858403E+03 0.  0.
          2    1    1    2  501    0 -0.32032970293E+02  0.51623540435E+01 -0.33973953717E+02  0.46978618714E+02  0.00000000000E+00 0. -1.
          1    1    1    2  502    0  0.52479632891E+02 -0.98770466121E+02  0.21329591875E+03  0.24084199344E+03  0.00000000000E+00 0. -1.
         22    1    3    3    0    0  0.30455797133E+02 -0.90125014661E+01  0.98608360829E+02  0.10359724701E+03  0.00000000000E+00 0.  1.
         22    1    3    3    0    0 -0.50902459730E+02  0.10262061354E+03  0.92272479088E+03  0.92980809334E+03  0.00000000000E+00 0.  1.
</event>
<event>
 7    1  0.7118985E-006  0.3627575E+02  0.7818608E-02  0.1592251E+00
          2   -1    0    0  502    0  0.00000000000E+00  0.00000000000E+00  0.28919124287E+03  0.28919124287E+03  0.00000000000E+00 0. -1.
          1   -1    0    0  501    0 -0.00000000000E+00 -0.00000000000E+00 -0.67309516608E+03  0.67309516608E+03  0.00000000000E+00 0. -1.
         25    2    1    2    0    0 -0.43468592049E+02  0.29561526509E+02 -0.83964585187E+02  0.15949030104E+03  0.12499480875E+03 0.  0.
          2    1    1    2  501    0  0.76612259681E+01 -0.24534141333E+02 -0.54976590929E+03  0.55036639932E+03  0.00000000000E+00 0. -1.
          1    1    1    2  502    0  0.35807366081E+02 -0.50273851766E+01  0.24982657127E+03  0.25242970859E+03  0.00000000000E+00 0. -1.
         22    1    3    3    0    0 -0.23686968280E+02 -0.46752997310E+02 -0.53718804097E+02  0.75050817033E+02  0.00000000000E+00 0. -1.
         22    1    3    3    0    0 -0.19781623769E+02  0.76314523820E+02 -0.30245781090E+02  0.84439484002E+02  0.00000000000E+00 0. -1.
</event>
<event>
 7    1  0.7118985E-006  0.1069564E+03  0.7818608E-02  0.1423196E+00
          2   -1    0    0  502    0  0.00000000000E+00  0.00000000000E+00  0.48178425042E+03  0.48178425042E+03  0.00000000000E+00 0. -1.
          1   -1    0    0  501    0 -0.00000000000E+00 -0.00000000000E+00 -0.90991725175E+02  0.90991725175E+02  0.00000000000E+00 0. -1.
         25    2    1    2    0    0  0.11778645561E+03 -0.35641506978E+02  0.71387287916E+02  0.18938138169E+03  0.12500078684E+03 0.  0.
          2    1    1    2  501    0 -0.95923485648E+02  0.18765830187E+02  0.45000558767E+02  0.10760353977E+03  0.00000000000E+00 0. -1.
          1    1    1    2  502    0 -0.21862969962E+02  0.16875676791E+02  0.27440467856E+03  0.27579105413E+03  0.00000000000E+00 0. -1.
         22    1    3    3    0    0  0.58961807168E+02  0.37211420998E+02 -0.30096119048E+01  0.69787121455E+02  0.00000000000E+00 0. -1.
         22    1    3    3    0    0  0.58824648442E+02 -0.72852927976E+02  0.74396899820E+02  0.11959426024E+03  0.00000000000E+00 0. -1.
</event>
<event>
 7    1  0.7118985E-006  0.6621841E+02  0.7818608E-02  0.1448893E+00
          2   -1    0    0  502    0  0.00000000000E+00  0.00000000000E+00  0.94934096475E+03  0.94934096475E+03  0.00000000000E+00 0. -1.
          1   -1    0    0  501    0 -0.00000000000E+00 -0.00000000000E+00 -0.18893417317E+04  0.18893417317E+04  0.00000000000E+00 0. -1.
         25    2    1    2    0    0  0.11879773924E+02 -0.48414132527E+02  0.19292062681E+02  0.13595291140E+03  0.12500381265E+03 0.  0.
          2    1    1    2  501    0 -0.33727159148E+02 -0.14658786369E+02 -0.18295484627E+04  0.18299180251E+04  0.00000000000E+00 0. -1.
          1    1    1    2  502    0  0.21847385224E+02  0.63072918896E+02  0.87025563308E+03  0.87281175992E+03  0.00000000000E+00 0. -1.
         22    1    3    3    0    0 -0.53742758878E+02 -0.27551890416E+01  0.15133300069E+02  0.55900733174E+02  0.00000000000E+00 0.  1.
         22    1    3    3    0    0  0.65622532802E+02 -0.45658943486E+02  0.41587626124E+01  0.80052178222E+02  0.00000000000E+00 0.  1.
</event>
<event>
 7    1  0.7118985E-006  0.7874940E+02  0.7818608E-02  0.1473403E+00
          2   -1    0    0  502    0  0.00000000000E+00  0.00000000000E+00  0.21189146736E+04  0.21189146736E+04  0.00000000000E+00 0. -1.
          1   -1    0    0  501    0 -0.00000000000E+00 -0.00000000000E+00 -0.52920147504E+03  0.52920147504E+03  0.00000000000E+00 0. -1.
         25    2    1    2    0    0  0.10279070353E+03  0.16374780475E+02  0.11510975751E+04  0.11625342389E+04  0.12500466881E+03 0.  0.
          2    1    1    2  501    0 -0.78269235918E+02 -0.80782988391E+01 -0.52035068947E+03  0.52626625603E+03  0.00000000000E+00 0. -1.
          1    1    1    2  502    0 -0.24521467608E+02 -0.82964816362E+01  0.95896631297E+03  0.95931565368E+03  0.00000000000E+00 0. -1.
         22    1    3    3    0    0  0.64725412902E+02 -0.39682753580E+02  0.32888852793E+03  0.33753779612E+03  0.00000000000E+00 0.  1.
         22    1    3    3    0    0  0.38065290624E+02  0.56057534055E+02  0.82220904713E+03  0.82499644282E+03  0.00000000000E+00 0.  1.
</event>
<event>
 7    1  0.7118985E-006  0.1317741E+03  0.7818608E-02  0.1294134E+00
          2   -1    0    0  502    0  0.00000000000E+00  0.00000000000E+00  0.41239419109E+03  0.41239419109E+03  0.00000000000E+00 0. -1.
          1   -1    0    0  501    0 -0.00000000000E+00 -0.00000000000E+00 -0.25679591670E+04  0.25679591670E+04  0.00000000000E+00 0. -1.
         25    2    1    2    0    0  0.66237824736E+02 -0.17412488662E+03 -0.77098762141E+03  0.80296552512E+03  0.12499918643E+03 0.  0.
          2    1    1    2  501    0 -0.24513382720E+02  0.12218275804E+03 -0.17759842476E+04  0.17803509711E+04  0.00000000000E+00 0. -1.
          1    1    1    2  502    0 -0.41724442016E+02  0.51942128584E+02  0.39140689309E+03  0.39703686195E+03  0.00000000000E+00 0. -1.
         22    1    3    3    0    0  0.11834460365E+02  0.15779606373E+02 -0.15060150280E+03  0.15188766597E+03  0.00000000000E+00 0.  1.
         22    1    3    3    0    0  0.54403364371E+02 -0.18990449299E+03 -0.62038611861E+03  0.65107785915E+03  0.00000000000E+00 0.  1.
</event>
<event>
 7    1  0.7118985E-006  0.1059317E+03  0.7818608E-02  0.1399873E+00
          2   -1    0    0  502    0  0.00000000000E+00  0.00000000000E+00  0.31865289096E+04  0.31865289096E+04  0.00000000000E+00 0. -1.
          1   -1    0    0  501    0 -0.00000000000E+00 -0.00000000000E+00 -0.35810875302E+02  0.35810875302E+02  0.00000000000E+00 0. -1.
         25    2    1    2    0    0 -0.10893124312E+03  0.66797642129E+02  0.67588031743E+03  0.69911857541E+03  0.12499855308E+03 0.  0.
          2    1    1    2  501    0  0.96317354310E+02 -0.35829723373E+02  0.85591998545E+02  0.13374151200E+03  0.00000000000E+00 0. -1.
          1    1    1    2  502    0  0.12613888813E+02 -0.30967918756E+02  0.23892457183E+04  0.23894796975E+04  0.00000000000E+00 0. -1.
         22    1    3    3    0    0 -0.38641309320E+02 -0.29606599727E+02  0.10270138903E+03  0.11365419853E+03  0.00000000000E+00 0.  1.
         22    1    3    3    0    0 -0.70289933803E+02  0.96404241855E+02  0.57317892840E+03  0.58546437688E+03  0.00000000000E+00 0.  1.
</event>
<event>
 7    1  0.7118985E-006  0.9803514E+02  0.7818608E-02  0.1384380E+00
          2   -1    0    0  502    0  0.00000000000E+00  0.00000000000E+00  0.69004314552E+03  0.69004314552E+03  0.00000000000E+00 0. -1.
          1   -1    0    0  501    0 -0.00000000000E+00 -0.00000000000E+00 -0.28854013483E+03  0.28854013483E+03  0.00000000000E+00 0. -1.
         25    2    1    2    0    0  0.44523251419E+02 -0.68346161106E+02  0.65862935226E+02  0.16314822529E+03  0.12500359804E+03 0.  0.
          2    1    1    2  501    0  0.38806222675E+02  0.12937623271E+02 -0.23375814466E+03  0.23731029309E+03  0.00000000000E+00 0. -1.
          1    1    1    2  502    0 -0.83329474094E+02  0.55408537835E+02  0.56939822012E+03  0.57812476197E+03  0.00000000000E+00 0. -1.
         22    1    3    3    0    0 -0.42010140447E+02 -0.37600934590E+02  0.15781658772E+02  0.58546929347E+02  0.00000000000E+00 0.  1.
         22    1    3    3    0    0  0.86533391866E+02 -0.30745226516E+02  0.50081276454E+02  0.10460129594E+03  0.00000000000E+00 0.  1.
</event>
<event>
 7    1  0.7118985E-006  0.5678868E+02  0.7818608E-02  0.1451599E+00
          2   -1    0    0  502    0  0.00000000000E+00  0.00000000000E+00  0.21525790320E+04  0.21525790320E+04  0.00000000000E+00 0. -1.
          1   -1    0    0  501    0 -0.00000000000E+00 -0.00000000000E+00 -0.21423937221E+03  0.21423937221E+03  0.00000000000E+00 0. -1.
         25    2    1    2    0    0  0.73033292132E+02  0.13158346629E+02  0.12068867509E+02  0.14587851168E+03  0.12501151451E+03 0.  0.
          2    1    1    2  501    0 -0.32536321115E+02  0.26614693847E+02 -0.14393940682E+03  0.14995168207E+03  0.00000000000E+00 0. -1.
          1    1    1    2  502    0 -0.40496971017E+02 -0.39773040477E+02  0.20702101991E+04  0.20709882105E+04  0.00000000000E+00 0. -1.
         22    1    3    3    0    0  0.10624748703E+03  0.25815416913E+02  0.39027383581E+01  0.10940838916E+03  0.00000000000E+00 0. -1.
         22    1    3    3    0    0 -0.33214194902E+02 -0.12657070284E+02  0.81661291510E+01  0.36470122518E+02  0.00000000000E+00 0. -1.
</event>
<event>
 7    1  0.7118985E-006  0.2242136E+02  0.7818608E-02  0.1704184E+00
          2   -1    0    0  502    0  0.00000000000E+00  0.00000000000E+00  0.19378074996E+03  0.19378074996E+03  0.00000000000E+00 0. -1.
          1   -1    0    0  501    0 -0.00000000000E+00 -0.00000000000E+00 -0.32583049470E+03  0.32583049470E+03  0.00000000000E+00 0. -1.
         25    2    1    2    0    0  0.18399179502E+02  0.14726860812E+02 -0.19024960854E+03  0.22885552215E+03  0.12499810492E+03 0.  0.
          2    1    1    2  501    0  0.26620963549E+01 -0.22417117011E+02 -0.11445047732E+03  0.11665558560E+03  0.00000000000E+00 0. -1.
          1    1    1    2  502    0 -0.21061275857E+02  0.76902561993E+01  0.17265034112E+03  0.17410013690E+03  0.00000000000E+00 0. -1.
         22    1    3    3    0    0 -0.34861342061E+02  0.37719967623E+02 -0.14918837693E+03  0.15778238476E+03  0.00000000000E+00 0. -1.
         22    1    3    3    0    0  0.53260521563E+02 -0.22993106811E+02 -0.41061231608E+02  0.71073137395E+02  0.00000000000E+00 0. -1.
</event>
<event>
 7    1  0.9266889E-006  0.7516349E+02  0.7818608E-02  0.1396021E+00
          2   -1    0    0  502    0  0.00000000000E+00  0.00000000000E+00  0.17418444015E+04  0.17418444015E+04  0.00000000000E+00 0. -1.
          1   -1    0    0  501    0 -0.00000000000E+00 -0.00000000000E+00 -0.19935159507E+04  0.19935159507E+04  0.00000000000E+00 0. -1.
         25    2    1    2    0    0 -0.88107787738E+02 -0.64443631384E+02 -0.23770826614E+03  0.28991082309E+03  0.12500840639E+03 0.  0.
          2    1    1    2  501    0  0.15295601094E+02  0.46120142306E+02 -0.17285434169E+04  0.17292262336E+04  0.00000000000E+00 0. -1.
          1    1    1    2  502    0  0.72812186644E+02  0.18323489078E+02  0.17145801338E+04  0.17162232955E+04  0.00000000000E+00 0. -1.
         22    1    3    3    0    0 -0.11186275839E+03 -0.75329320122E+02 -0.22098766964E+03  0.25888865042E+03  0.00000000000E+00 0.  1.
         22    1    3    3    0    0  0.23754970650E+02  0.10885688739E+02 -0.16720596506E+02  0.31022172674E+02  0.00000000000E+00 0.  1.
</event>
<event>
 7    1  0.7118985E-006  0.1040250E+03  0.7818608E-02  0.1307128E+00
          2   -1    0    0  502    0  0.00000000000E+00  0.00000000000E+00  0.46796183845E+03  0.46796183845E+03  0.00000000000E+00 0. -1.
          1   -1    0    0  501    0 -0.00000000000E+00 -0.00000000000E+00 -0.20590992600E+03  0.20590992600E+03  0.00000000000E+00 0. -1.
         25    2    1    2    0    0 -0.10753993228E+03  0.27563716268E+02  0.15539252722E+03  0.22824040960E+03  0.12498900580E+03 0.  0.
          2    1    1    2  501    0  0.44567234759E+02  0.60172100332E+02 -0.14973857292E+03  0.16741732376E+03  0.00000000000E+00 0. -1.
          1    1    1    2  502    0  0.62972697518E+02 -0.87735816600E+02  0.25639795816E+03  0.27821403109E+03  0.00000000000E+00 0. -1.
         22    1    3    3    0    0 -0.10699184293E+03 -0.18554153614E+02  0.14467002965E+03  0.18088927151E+03  0.00000000000E+00 0. -1.
         22    1    3    3    0    0 -0.54808934937E+00  0.46117869883E+02  0.10722497570E+02  0.47351138092E+02  0.00000000000E+00 0. -1.
</event>
<event>
 7    1  0.7118985E-006  0.1367929E+03  0.7818608E-02  0.1372767E+00
          2   -1    0    0  502    0  0.00000000000E+00  0.00000000000E+00  0.14178774208E+04  0.14178774208E+04  0.00000000000E+00 0. -1.
          1   -1    0    0  501    0 -0.00000000000E+00 -0.00000000000E+00 -0.80087602499E+02  0.80087602499E+02  0.00000000000E+00 0. -1.
         25    2    1    2    0    0  0.97293933443E+02 -0.11313539073E+03  0.87250940023E+03  0.89395928912E+03  0.12499932393E+03 0.  0.
          2    1    1    2  501    0  0.27066781993E+01  0.32121010373E+02 -0.57335853504E+02  0.65776025353E+02  0.00000000000E+00 0. -1.
          1    1    1    2  502    0 -0.10000061164E+03  0.81014380355E+02  0.52261627154E+03  0.53822970879E+03  0.00000000000E+00 0. -1.
         22    1    3    3    0    0 -0.16355267210E+02 -0.67896982846E+02  0.38881898670E+03  0.39504138956E+03  0.00000000000E+00 0.  1.
         22    1    3    3    0    0  0.11364920065E+03 -0.45238407882E+02  0.48369041353E+03  0.49891789956E+03  0.00000000000E+00 0.  1.
</event>
<event>
 7    1  0.7118985E-006  0.1471000E+03  0.7818608E-02  0.1297545E+00
          2   -1    0    0  502    0  0.00000000000E+00  0.00000000000E+00  0.18355675943E+04  0.18355675943E+04  0.00000000000E+00 0. -1.
          1   -1    0    0  501    0 -0.00000000000E+00 -0.00000000000E+00 -0.21603090727E+04  0.21603090727E+04  0.00000000000E+00 0. -1.
         25    2    1    2    0    0 -0.17835841811E+03  0.64369451474E+02 -0.39874913342E+03  0.45889175283E+03  0.12500247123E+03 0.  0.
          2    1    1    2  501    0  0.12165158321E+03 -0.75683097729E+02 -0.17280603052E+04  0.17339894629E+04  0.00000000000E+00 0. -1.
          1    1    1    2  502    0  0.56706834903E+02  0.11313646255E+02  0.18020679603E+04  0.18029954512E+04  0.00000000000E+00 0. -1.
         22    1    3    3    0    0 -0.63156025217E+02  0.66066255873E+02 -0.27509493387E+03  0.28988041729E+03  0.00000000000E+00 0.  1.
         22    1    3    3    0    0 -0.11520239290E+03 -0.16968043992E+01 -0.12365419956E+03  0.16901133554E+03  0.00000000000E+00 0.  1.
</event>
<event>
 7    1  0.7118985E-006  0.8318515E+02  0.7818608E-02  0.1348700E+00
          2   -1    0    0  502    0  0.00000000000E+00  0.00000000000E+00  0.75773784419E+03  0.75773784419E+03  0.00000000000E+00 0. -1.
          1   -1    0    0  501    0 -0.00000000000E+00 -0.00000000000E+00 -0.19822513715E+03  0.19822513715E+03  0.00000000000E+00 0. -1.
         25    2    1    2    0    0 -0.80560237087E+02 -0.63071434413E+02  0.57818204898E+03  0.60032327663E+03  0.12500238825E+03 0.  0.
          2    1    1    2  501    0  0.63771038236E+02 -0.11921385682E+02 -0.17216403397E+03  0.18398184516E+03  0.00000000000E+00 0. -1.
          1    1    1    2  502    0  0.16789198851E+02  0.74992820095E+02  0.15349469203E+03  0.17165785955E+03  0.00000000000E+00 0. -1.
         22    1    3    3    0    0  0.14971070942E+02 -0.63915476383E+02  0.21618363650E+03  0.22593071012E+03  0.00000000000E+00 0.  1.
         22    1    3    3    0    0 -0.95531308029E+02  0.84404196974E+00  0.36199841249E+03  0.37439256652E+03  0.00000000000E+00 0.  1.
</event>
<event>
 7    1  0.7118985E-006  0.5443145E+02  0.7818608E-02  0.1554209E+00
          2   -1    0    0  502    0  0.00000000000E+00  0.00000000000E+00  0.43626991408E+03  0.43626991408E+03  0.00000000000E+00 0. -1.
          1   -1    0    0  501    0 -0.00000000000E+00 -0.00000000000E+00 -0.32979452870E+03  0.32979452870E+03  0.00000000000E+00 0. -1.
         25    2    1    2    0    0 -0.36464818457E+01  0.60802029535E+02 -0.15272708660E+03  0.20654463534E+03  0.12499975912E+03 0.  0.
          2    1    1    2  501    0 -0.18621228025E+02 -0.11162319696E+02 -0.14755315787E+03  0.14914181812E+03  0.00000000000E+00 0. -1.
          1    1    1    2  502    0  0.22267709870E+02 -0.49639709839E+02  0.40675562986E+03  0.41037798932E+03  0.00000000000E+00 0. -1.
         22    1    3    3    0    0  0.19966140417E+02 -0.26683378725E+02 -0.56622173301E+01  0.33803996338E+02  0.00000000000E+00 0.  1.
         22    1    3    3    0    0 -0.23612622263E+02  0.87485408260E+02 -0.14706486927E+03  0.17274063900E+03  0.00000000000E+00 0.  1.
</event>
<event>
 7    1  0.7118985E-006  0.6350034E+02  0.7818608E-02  0.1456243E+00
          2   -1    0    0  502    0  0.00000000000E+00  0.00000000000E+00  0.20130525366E+04  0.20130525366E+04  0.00000000000E+00 0. -1.
          1   -1    0    0  501    0 -0.00000000000E+00 -0.00000000000E+00 -0.12506742597E+03  0.12506742597E+03  0.00000000000E+00 0. -1.
         25    2    1    2    0    0 -0.42263868307E+01  0.44306505605E+02  0.88107967045E+03  0.89101454249E+03  0.12499840185E+03 0.  0.
          2    1    1    2  501    0 -0.30108347462E+02 -0.56195499171E+02 -0.11132352262E+03  0.12828629468E+03  0.00000000000E+00 0. -1.
          1    1    1    2  502    0  0.34334734292E+02  0.11888993566E+02  0.11182289628E+04  0.11188191254E+04  0.00000000000E+00 0. -1.
         22    1    3    3    0    0 -0.64066351904E+02  0.20530695943E+02  0.50516512762E+03  0.50962516920E+03  0.00000000000E+00 0.  1.
         22    1    3    3    0    0  0.59839965073E+02  0.23775809662E+02  0.37591454283E+03  0.38138937329E+03  0.00000000000E+00 0.  1.
</event>
<event>
 7    1  0.7118985E-006  0.4837979E+02  0.7818608E-02  0.1532173E+00
          2   -1    0    0  502    0  0.00000000000E+00  0.00000000000E+00  0.22718195282E+03  0.22718195282E+03  0.00000000000E+00 0. -1.
          1   -1    0    0  501    0 -0.00000000000E+00 -0.00000000000E+00 -0.17009795408E+04  0.17009795408E+04  0.00000000000E+00 0. -1.
         25    2    1    2    0    0 -0.31986969533E+01 -0.47342869011E+02 -0.89973361472E+03  0.90961363966E+03  0.12499926835E+03 0.  0.
          2    1    1    2  501    0  0.27624313652E+02  0.55509782250E+01 -0.79341703029E+03  0.79391718712E+03  0.00000000000E+00 0. -1.
          1    1    1    2  502    0 -0.24425616699E+02  0.41791890786E+02  0.21935305700E+03  0.22463066687E+03  0.00000000000E+00 0. -1.
         22    1    3    3    0    0 -0.12301907145E+01 -0.33689154894E+02 -0.89406361466E+03  0.89469895472E+03  0.00000000000E+00 0.  1.
         22    1    3    3    0    0 -0.19685062388E+01 -0.13653714117E+02 -0.56700000589E+01  0.14914684934E+02  0.00000000000E+00 0.  1.
</event>
<event>
 7    1  0.7118985E-006  0.1183767E+03  0.7818608E-02  0.1345633E+00
          2   -1    0    0  502    0  0.00000000000E+00  0.00000000000E+00  0.20899592918E+04  0.20899592918E+04  0.00000000000E+00 0. -1.
          1   -1    0    0  501    0 -0.00000000000E+00 -0.00000000000E+00 -0.59814794889E+02  0.59814794889E+02  0.00000000000E+00 0. -1.
         25    2    1    2    0    0  0.35148381096E+02  0.12194745709E+03  0.11992195486E+04  0.12123775845E+04  0.12500116245E+03 0.  0.
          2    1    1    2  501    0 -0.72417869490E+02 -0.93636094368E+02  0.14074571416E+02  0.11920637378E+03  0.00000000000E+00 0. -1.
          1    1    1    2  502    0  0.37269488394E+02 -0.28311362723E+02  0.81685037687E+03  0.81819012841E+03  0.00000000000E+00 0. -1.
         22    1    3    3    0    0  0.26375143267E+01  0.16516955540E+02  0.73637701963E+03  0.73656695646E+03  0.00000000000E+00 0. -1.
         22    1    3    3    0    0  0.32510866770E+02  0.10543050155E+03  0.46284252896E+03  0.47581062802E+03  0.00000000000E+00 0. -1.
</event>
<event>
 7    1  0.7118985E-006  0.7864307E+02  0.7818608E-02  0.1337386E+00
          2   -1    0    0  502    0  0.00000000000E+00  0.00000000000E+00  0.26485181480E+03  0.26485181480E+03  0.00000000000E+00 0. -1.
          1   -1    0    0  501    0 -0.00000000000E+00 -0.00000000000E+00 -0.14337888286E+03  0.14337888286E+03  0.00000000000E+00 0. -1.
         25    2    1    2    0    0 -0.85739961588E+02  0.65113636534E+00  0.11422599187E+03  0.18980176236E+03  0.12500146713E+03 0.  0.
          2    1    1    2  501    0  0.48840002533E+02  0.65394777103E+02 -0.72020798752E+02  0.10885227684E+03  0.00000000000E+00 0. -1.
          1    1    1    2  502    0  0.36899959055E+02 -0.66045913468E+02  0.79267738824E+02  0.10957665847E+03  0.00000000000E+00 0. -1.
         22    1    3    3    0    0 -0.24174980692E+01 -0.49087028975E+02  0.15898759340E+02  0.51654150453E+02  0.00000000000E+00 0.  1.
         22    1    3    3    0    0 -0.83322463519E+02  0.49738165340E+02  0.98327232527E+02  0.13814761190E+03  0.00000000000E+00 0.  1.
</event>
<event>
 7    1  0.7118985E-006  0.6335696E+02  0.7818608E-02  0.1423558E+00
          2   -1    0    0  502    0  0.00000000000E+00  0.00000000000E+00  0.13522558997E+04  0.13522558997E+04  0.00000000000E+00 0. -1.
          1   -1    0    0  501    0 -0.00000000000E+00 -0.00000000000E+00 -0.30545009163E+02  0.30545009163E+02  0.00000000000E+00 0. -1.
         25    2    1    2    0    0  0.48367072623E+02  0.39838007829E+02  0.51000913912E+03  0.52883027813E+03  0.12500280196E+03 0.  0.
          2    1    1    2  501    0 -0.64844910367E+02  0.36392867004E+01  0.31141928544E+02  0.72027262350E+02  0.00000000000E+00 0. -1.
          1    1    1    2  502    0  0.16477837744E+02 -0.43477294529E+02  0.78055982290E+03  0.78194336841E+03  0.00000000000E+00 0. -1.
         22    1    3    3    0    0  0.65061682984E+02 -0.84983036127E+01  0.42177379922E+03  0.42684702350E+03  0.00000000000E+00 0. -1.
         22    1    3    3    0    0 -0.16694610360E+02  0.48336311441E+02  0.88235339898E+02  0.10198325463E+03  0.00000000000E+00 0. -1.
</event>
<event>
 7    1  0.7118985E-006  0.1658588E+03  0.7818608E-02  0.1256375E+00
          2   -1    0    0  502    0  0.00000000000E+00  0.00000000000E+00  0.51489664892E+03  0.51489664892E+03  0.00000000000E+00 0. -1.
          1   -1    0    0  501    0 -0.00000000000E+00 -0.00000000000E+00 -0.12323895566E+04  0.12323895566E+04  0.00000000000E+00 0. -1.
         25    2    1    2    0    0 -0.44282490384E+02 -0.11122881941E+03 -0.22457807675E+02  0.17453174155E+03  0.12499674580E+03 0.  0.
          2    1    1    2  501    0 -0.73781154764E+02 -0.18361832998E+02 -0.11150412201E+04  0.11176304122E+04  0.00000000000E+00 0. -1.
          1    1    1    2  502    0  0.11806364515E+03  0.12959065240E+03  0.42000612016E+03  0.45512405173E+03  0.00000000000E+00 0. -1.
         22    1    3    3    0    0 -0.79068940307E+02 -0.10967221888E+03 -0.30927207691E+02  0.13869529585E+03  0.00000000000E+00 0. -1.
         22    1    3    3    0    0  0.34786449923E+02 -0.15566005221E+01  0.84694000162E+01  0.35836445695E+02  0.00000000000E+00 0. -1.
</event>
<event>
 7    1  0.7118985E-006  0.4209226E+03  0.7818608E-02  0.1077154E+00
          2   -1    0    0  502    0  0.00000000000E+00  0.00000000000E+00  0.48897028043E+03  0.48897028043E+03  0.00000000000E+00 0. -1.
          1   -1    0    0  501    0 -0.00000000000E+00 -0.00000000000E+00 -0.99635935036E+03  0.99635935036E+03  0.00000000000E+00 0. -1.
         25    2    1    2    0    0  0.28377981375E+03 -0.10648550492E+02  0.86279197988E+02  0.32204860528E+03  0.12500731913E+03 0.  0.
          2    1    1    2  501    0 -0.44311385561E+03 -0.16663269416E+03 -0.74372928455E+03  0.88161759992E+03  0.00000000000E+00 0. -1.
          1    1    1    2  502    0  0.15933404186E+03  0.17728124465E+03  0.15006101663E+03  0.28166342558E+03  0.00000000000E+00 0. -1.
         22    1    3    3    0    0  0.21962403169E+03 -0.21695600970E+02  0.11730684489E+03  0.24993261143E+03  0.00000000000E+00 0. -1.
         22    1    3    3    0    0  0.64155782065E+02  0.11047050478E+02 -0.31027646904E+02  0.72115993850E+02  0.00000000000E+00 0. -1.
</event>
<event>
 7    1  0.7118985E-006  0.8177827E+02  0.7818608E-02  0.1460473E+00
          2   -1    0    0  502    0  0.00000000000E+00  0.00000000000E+00  0.10650606349E+03  0.10650606349E+03  0.00000000000E+00 0. -1.
          1   -1    0    0  501    0 -0.00000000000E+00 -0.00000000000E+00 -0.19369525187E+04  0.19369525187E+04  0.00000000000E+00 0. -1.
         25    2    1    2    0    0  0.54986841304E+02 -0.24775766366E+02 -0.94434112611E+02  0.16786855160E+03  0.12499863070E+03 0.  0.
          2    1    1    2  501    0  0.27345372158E+02 -0.83525427814E+00 -0.17790236320E+04  0.17792339785E+04  0.00000000000E+00 0. -1.
          1    1    1    2  502    0 -0.82332213462E+02  0.25611020645E+02  0.43011289420E+02  0.96356052065E+02  0.00000000000E+00 0. -1.
         22    1    3    3    0    0  0.56607024191E+02 -0.20178568234E+02  0.12033894561E+02  0.61289023667E+02  0.00000000000E+00 0. -1.
         22    1    3    3    0    0 -0.16201828872E+01 -0.45971981324E+01 -0.10646800717E+03  0.10657952793E+03  0.00000000000E+00 0. -1.
</event>
<event>
 7    1  0.7118985E-006  0.1363566E+03  0.7818608E-02  0.1421881E+00
          2   -1    0    0  502    0  0.00000000000E+00  0.00000000000E+00  0.42871807466E+03  0.42871807466E+03  0.00000000000E+00 0. -1.
          1   -1    0    0  501    0 -0.00000000000E+00 -0.00000000000E+00 -0.96190108070E+03  0.96190108070E+03  0.00000000000E+00 0. -1.
         25    2    1    2    0    0  0.13436173182E+02  0.13834136473E+03 -0.22611918544E+02  0.18829432822E+03  0.12499836493E+03 0.  0.
          2    1    1    2  501    0 -0.34346987528E+02 -0.13189129257E+03 -0.85067197870E+03  0.86152065788E+03  0.00000000000E+00 0. -1.
          1    1    1    2  502    0  0.20910814347E+02 -0.64500721614E+01  0.34010089120E+03  0.34080416926E+03  0.00000000000E+00 0. -1.
         22    1    3    3    0    0  0.93259867975E+01  0.27763397286E+02  0.48573619203E+02  0.56720161681E+02  0.00000000000E+00 0.  1.
         22    1    3    3    0    0  0.41101863843E+01  0.11057796745E+03 -0.71185537747E+02  0.13157416654E+03  0.00000000000E+00 0.  1.
</event>
<event>
 7    1  0.7118985E-006  0.1565362E+03  0.7818608E-02  0.1362162E+00
          2   -1    0    0  502    0  0.00000000000E+00  0.00000000000E+00  0.84587515862E+03  0.84587515862E+03  0.00000000000E+00 0. -1.
          1   -1    0    0  501    0 -0.00000000000E+00 -0.00000000000E+00 -0.15192534203E+04  0.15192534203E+04  0.00000000000E+00 0. -1.
         25    2    1    2    0    0 -0.87624200235E+02 -0.95043865936E+02 -0.14303754397E+03  0.22977119413E+03  0.12499490288E+03 0.  0.
          2    1    1    2  501    0 -0.93296233335E+01 -0.29315187493E+02 -0.13249226774E+04  0.13252797905E+04  0.00000000000E+00 0. -1.
          1    1    1    2  502    0  0.96953823568E+02  0.12435905343E+03  0.79458195969E+03  0.81007759427E+03  0.00000000000E+00 0. -1.
         22    1    3    3    0    0 -0.51065729604E+02 -0.11975749265E+03 -0.79941199697E+02  0.15277487096E+03  0.00000000000E+00 0. -1.
         22    1    3    3    0    0 -0.36558470631E+02  0.24713626718E+02 -0.63096344277E+02  0.76996323169E+02  0.00000000000E+00 0. -1.
</event>
<event>
 7    1  0.7118985E-006  0.5263769E+02  0.7818608E-02  0.1533193E+00
          2   -1    0    0  502    0  0.00000000000E+00  0.00000000000E+00  0.22523943917E+04  0.22523943917E+04  0.00000000000E+00 0. -1.
          1   -1    0    0  501    0 -0.00000000000E+00 -0.00000000000E+00 -0.14117539286E+03  0.14117539286E+03  0.00000000000E+00 0. -1.
         25    2    1    2    0    0 -0.52743710462E+01  0.32573982413E+02  0.27432144140E+02  0.13215762948E+03  0.12499693267E+03 0.  0.
          2    1    1    2  501    0  0.17629834814E+02  0.18732938716E+02 -0.86622422511E+02  0.90361375323E+02  0.00000000000E+00 0. -1.
          1    1    1    2  502    0 -0.12355463768E+02 -0.51306921129E+02  0.21704092772E+04  0.21710507797E+04  0.00000000000E+00 0. -1.
         22    1    3    3    0    0  0.23738243971E+02  0.62001877090E+02 -0.19914351796E+02  0.69313190642E+02  0.00000000000E+00 0.  1.
         22    1    3    3    0    0 -0.29012615017E+02 -0.29427894678E+02  0.47346495936E+02  0.62844438837E+02  0.00000000000E+00 0.  1.
</event>
<event>
 7    1  0.7118985E-006  0.7547840E+02  0.7818608E-02  0.1379531E+00
          2   -1    0    0  502    0  0.00000000000E+00  0.00000000000E+00  0.34244081408E+03  0.34244081408E+03  0.00000000000E+00 0. -1.
          1   -1    0    0  501    0 -0.00000000000E+00 -0.00000000000E+00 -0.67408868479E+03  0.67408868479E+03  0.00000000000E+00 0. -1.
         25    2    1    2    0    0  0.21946418297E+02 -0.33277137872E+02 -0.27731124276E+01  0.13123661668E+03  0.12500538478E+03 0.  0.
          2    1    1    2  501    0  0.12911069514E+02  0.76165954100E+02 -0.60184556851E+03  0.60678335229E+03  0.00000000000E+00 0. -1.
          1    1    1    2  502    0 -0.34857487811E+02 -0.42888816228E+02  0.27297081022E+03  0.27850952990E+03  0.00000000000E+00 0. -1.
         22    1    3    3    0    0 -0.17297480995E+02  0.15212670431E+02 -0.48633010996E+02  0.53812618864E+02  0.00000000000E+00 0. -1.
         22    1    3    3    0    0  0.39243899292E+02 -0.48489808303E+02  0.45859898569E+02  0.77423997815E+02  0.00000000000E+00 0. -1.
</event>
<event>
 7    1  0.7118985E-006  0.1124490E+03  0.7818608E-02  0.1297443E+00
          2   -1    0    0  502    0  0.00000000000E+00  0.00000000000E+00  0.17816316428E+04  0.17816316428E+04  0.00000000000E+00 0. -1.
          1   -1    0    0  501    0 -0.00000000000E+00 -0.00000000000E+00 -0.23551869915E+03  0.23551869915E+03  0.00000000000E+00 0. -1.
         25    2    1    2    0    0 -0.13887965760E+03  0.12529274957E+03  0.92677623659E+03  0.95369022170E+03  0.12500005549E+03 0.  0.
          2    1    1    2  501    0  0.82988090697E+02 -0.74216229537E+02 -0.20626518359E+03  0.23439368141E+03  0.00000000000E+00 0. -1.
          1    1    1    2  502    0  0.55891566905E+02 -0.51076520038E+02  0.82560189070E+03  0.82906643888E+03  0.00000000000E+00 0. -1.
         22    1    3    3    0    0 -0.20098302790E+02  0.70440979337E+02  0.16184305378E+03  0.17764866282E+03  0.00000000000E+00 0.  1.
         22    1    3    3    0    0 -0.11878135481E+03  0.54851770237E+02  0.76493318281E+03  0.77604155888E+03  0.00000000000E+00 0.  1.
</event>
<event>
 7    1  0.7118985E-006  0.1080268E+03  0.7818608E-02  0.1339901E+00
          2   -1    0    0  502    0  0.00000000000E+00  0.00000000000E+00  0.50910839401E+03  0.50910839401E+03  0.00000000000E+00 0. -1.
          1   -1    0    0  501    0 -0.00000000000E+00 -0.00000000000E+00 -0.10045329164E+04  0.10045329164E+04  0.00000000000E+00 0. -1.
         25    2    1    2    0    0 -0.34647027082E+02  0.68497990479E+02  0.22492155631E+03  0.26852757273E+03  0.12499983855E+03 0.  0.
          2    1    1    2  501    0  0.88265074017E+02 -0.63121615369E+02 -0.97692706261E+03  0.98293516942E+03  0.00000000000E+00 0. -1.
          1    1    1    2  502    0 -0.53618046935E+02 -0.53763751098E+01  0.25658098390E+03  0.26217856828E+03  0.00000000000E+00 0. -1.
         22    1    3    3    0    0 -0.48787124223E+02 -0.95705870806E+01  0.15498759420E+03  0.16276650141E+03  0.00000000000E+00 0. -1.
         22    1    3    3    0    0  0.14140097141E+02  0.78068577560E+02  0.69933962117E+02  0.10576107132E+03  0.00000000000E+00 0. -1.
</event>
<event>
 7    1  0.7118985E-006  0.6888141E+02  0.7818608E-02  0.1426546E+00
          2   -1    0    0  502    0  0.00000000000E+00  0.00000000000E+00  0.86520162915E+03  0.86520162915E+03  0.00000000000E+00 0. -1.
          1   -1    0    0  501    0 -0.00000000000E+00 -0.00000000000E+00 -0.22229705536E+03  0.22229705536E+03  0.00000000000E+00 0. -1.
         25    2    1    2    0    0  0.97026283348E+02  0.12500488331E+02  0.48099249718E+03  0.50650688787E+03  0.12500033301E+03 0.  0.
          2    1    1    2  501    0 -0.66673874964E+02  0.16241503105E+02 -0.20269495592E+03  0.21399634852E+03  0.00000000000E+00 0. -1.
          1    1    1    2  502    0 -0.30352408384E+02 -0.28741991435E+02  0.36460703253E+03  0.36699544812E+03  0.00000000000E+00 0. -1.
         22    1    3    3    0    0  0.53515572908E+02 -0.55539948208E+02  0.26103598618E+03  0.27219182293E+03  0.00000000000E+00 0.  1.
         22    1    3    3    0    0  0.43510710440E+02  0.68040436539E+02  0.21995651100E+03  0.23431506494E+03  0.00000000000E+00 0.  1.
</event>
<event>
 7    1  0.7118985E-006  0.8538982E+02  0.7818608E-02  0.1340244E+00
          2   -1    0    0  502    0  0.00000000000E+00  0.00000000000E+00  0.46579656640E+03  0.46579656640E+03  0.00000000000E+00 0. -1.
          1   -1    0    0  501    0 -0.00000000000E+00 -0.00000000000E+00 -0.61790777759E+03  0.61790777759E+03  0.00000000000E+00 0. -1.
         25    2    1    2    0    0  0.11483249693E+03 -0.73653737933E+02  0.27155737727E+03  0.32860513198E+03  0.12500619245E+03 0.  0.
          2    1    1    2  501    0 -0.47468947600E+02  0.48648179686E+02 -0.57951404046E+03  0.58348647754E+03  0.00000000000E+00 0. -1.
          1    1    1    2  502    0 -0.67363549333E+02  0.25005558247E+02  0.15584545200E+03  0.17161273447E+03  0.00000000000E+00 0. -1.
         22    1    3    3    0    0  0.10235950746E+03 -0.16278460343E+02  0.24115690730E+03  0.26248640151E+03  0.00000000000E+00 0.  1.
         22    1    3    3    0    0  0.12472989471E+02 -0.57375277590E+02  0.30400469977E+02  0.66118730475E+02  0.00000000000E+00 0.  1.
</event>
<event>
 7    1  0.7118985E-006  0.3634951E+02  0.7818608E-02  0.1605181E+00
          2   -1    0    0  502    0  0.00000000000E+00  0.00000000000E+00  0.56229313824E+03  0.56229313824E+03  0.00000000000E+00 0. -1.
          1   -1    0    0  501    0 -0.00000000000E+00 -0.00000000000E+00 -0.35599903415E+03  0.35599903415E+03  0.00000000000E+00 0. -1.
         25    2    1    2    0    0 -0.70366408982E+01 -0.20849581307E+02  0.15880492825E+03  0.20329256066E+03  0.12499856250E+03 0.  0.
          2    1    1    2  501    0 -0.23727317084E+02  0.91903123702E-01 -0.33242819543E+03  0.33327391007E+03  0.00000000000E+00 0. -1.
          1    1    1    2  502    0  0.30763957982E+02  0.20757678184E+02  0.37991737127E+03  0.38172570166E+03  0.00000000000E+00 0. -1.
         22    1    3    3    0    0  0.62969240840E+01  0.36481981455E+02  0.34752800486E+01  0.37184187435E+02  0.00000000000E+00 0. -1.
         22    1    3    3    0    0 -0.13333564982E+02 -0.57331562762E+02  0.15532964820E+03  0.16610837322E+03  0.00000000000E+00 0. -1.
</event>
<event>
 7    1  0.7118985E-006  0.1552373E+03  0.7818608E-02  0.1403426E+00
          2   -1    0    0  502    0  0.00000000000E+00  0.00000000000E+00  0.65644383797E+03  0.65644383797E+03  0.00000000000E+00 0. -1.
          1   -1    0    0  501    0 -0.00000000000E+00 -0.00000000000E+00 -0.12941996228E+04  0.12941996228E+04  0.00000000000E+00 0. -1.
         25    2    1    2    0    0 -0.16002847017E+03 -0.56237752661E+02 -0.22472306639E+03  0.30805409463E+03  0.12500029023E+03 0.  0.
          2    1    1    2  501    0  0.13929507447E+03  0.64134610946E+02 -0.10218878580E+04  0.10333301314E+04  0.00000000000E+00 0. -1.
          1    1    1    2  502    0  0.20733395700E+02 -0.78968582852E+01  0.60885513961E+03  0.60925923472E+03  0.00000000000E+00 0. -1.
         22    1    3    3    0    0 -0.12005803264E+03 -0.40798022441E+02 -0.23219206132E+03  0.26455918652E+03  0.00000000000E+00 0.  1.
         22    1    3    3    0    0 -0.39970437532E+02 -0.15439730220E+02  0.74689949237E+01  0.43494908103E+02  0.00000000000E+00 0.  1.
</event>
<event>
 7    1  0.7118985E-006  0.9310920E+02  0.7818608E-02  0.1359607E+00
          2   -1    0    0  502    0  0.00000000000E+00  0.00000000000E+00  0.19059382572E+04  0.19059382572E+04  0.00000000000E+00 0. -1.
          1   -1    0    0  501    0 -0.00000000000E+00 -0.00000000000E+00 -0.41355943642E+02  0.41355943642E+02  0.00000000000E+00 0. -1.
         25    2    1    2    0    0 -0.83391832348E+02 -0.10623202260E+03  0.10320279169E+04  0.10483056577E+04  0.12499476168E+03 0.  0.
          2    1    1    2  501    0  0.36912445711E+02  0.37811872275E+02 -0.88072685179E+01  0.53570834528E+02  0.00000000000E+00 0. -1.
          1    1    1    2  502    0  0.46479386637E+02  0.68420150323E+02  0.84136166517E+03  0.84541770858E+03  0.00000000000E+00 0. -1.
         22    1    3    3    0    0  0.25039974332E+02 -0.37952886204E+02  0.14203069247E+03  0.14913128273E+03  0.00000000000E+00 0.  1.
         22    1    3    3    0    0 -0.10843180668E+03 -0.68279136394E+02  0.88999722442E+03  0.89917437500E+03  0.00000000000E+00 0.  1.
</event>
<event>
 7    1  0.7118985E-006  0.1290157E+03  0.7818608E-02  0.1259540E+00
          2   -1    0    0  502    0  0.00000000000E+00  0.00000000000E+00  0.75337024506E+03  0.75337024506E+03  0.00000000000E+00 0. -1.
          1   -1    0    0  501    0 -0.00000000000E+00 -0.00000000000E+00 -0.16863069755E+03  0.16863069755E+03  0.00000000000E+00 0. -1.
         25    2    1    2    0    0 -0.11495616887E+02 -0.21168238045E+03  0.17938486750E+03  0.30454141873E+03  0.12499986252E+03 0.  0.
          2    1    1    2  501    0  0.98970781265E+01  0.11695495998E+03 -0.67370791035E+02  0.13533380326E+03  0.00000000000E+00 0. -1.
          1    1    1    2  502    0  0.15985387602E+01  0.94727420473E+02  0.47272547105E+03  0.48212572063E+03  0.00000000000E+00 0. -1.
         22    1    3    3    0    0 -0.61809209738E+02 -0.66061635846E+02  0.83232611349E+02  0.12293163031E+03  0.00000000000E+00 0. -1.
         22    1    3    3    0    0  0.50313592851E+02 -0.14562074461E+03  0.96152256149E+02  0.18160978842E+03  0.00000000000E+00 0. -1.
</event>
<event>
 7    1  0.7118985E-006  0.8482293E+02  0.7818608E-02  0.1416498E+00
          2   -1    0    0  502    0  0.00000000000E+00  0.00000000000E+00  0.68260129339E+03  0.68260129339E+03  0.00000000000E+00 0. -1.
          1   -1    0    0  501    0 -0.00000000000E+00 -0.00000000000E+00 -0.62983906422E+03  0.62983906422E+03  0.00000000000E+00 0. -1.
         25    2    1    2    0    0  0.28390484297E+00  0.11414929665E+03 -0.29786152111E+03  0.34260171878E+03  0.12499723768E+03 0.  0.
          2    1    1    2  501    0 -0.18649606823E+02 -0.31569221723E+02 -0.30579780473E+03  0.30798818317E+03  0.00000000000E+00 0. -1.
          1    1    1    2  502    0  0.18365701980E+02 -0.82580074923E+02  0.65642155500E+03  0.66185045566E+03  0.00000000000E+00 0. -1.
         22    1    3    3    0    0  0.25683923567E+02  0.86449070481E+02 -0.29066767112E+03  0.30433665693E+03  0.00000000000E+00 0.  1.
         22    1    3    3    0    0 -0.25400018724E+02  0.27700226165E+02 -0.71938499867E+01  0.38265061850E+02  0.00000000000E+00 0.  1.
</event>
<event>
 7    1  0.7118985E-006  0.4882660E+02  0.7818608E-02  0.1455314E+00
          2   -1    0    0  502    0  0.00000000000E+00  0.00000000000E+00  0.81649407195E+03  0.81649407195E+03  0.00000000000E+00 0. -1.
          1   -1    0    0  501    0 -0.00000000000E+00 -0.00000000000E+00 -0.41185349597E+03  0.41185349597E+03  0.00000000000E+00 0. -1.
         25    2    1    2    0    0  0.80441463748E+01  0.32973135646E+02 -0.76491931563E+02  0.15042277074E+03  0.12499623353E+03 0.  0.
          2    1    1    2  501    0  0.40394930605E+02 -0.25134937614E+02 -0.29572073155E+03  0.29952339904E+03  0.00000000000E+00 0. -1.
          1    1    1    2  502    0 -0.48439076979E+02 -0.78381980327E+01  0.77685323909E+03  0.77840139813E+03  0.00000000000E+00 0. -1.
         22    1    3    3    0    0 -0.78120314769E+01  0.78494777246E+02 -0.33030878031E+02  0.85518984992E+02  0.00000000000E+00 0.  1.
         22    1    3    3    0    0  0.15856177852E+02 -0.45521641599E+02 -0.43461053532E+02  0.64903785745E+02  0.00000000000E+00 0.  1.
</event>
<event>
 7    1  0.7118985E-006  0.1272167E+03  0.7818608E-02  0.1398052E+00
          2   -1    0    0  502    0  0.00000000000E+00  0.00000000000E+00  0.64404625370E+03  0.64404625370E+03  0.00000000000E+00 0. -1.
          1   -1    0    0  501    0 -0.00000000000E+00 -0.00000000000E+00 -0.58022540620E+03  0.58022540620E+03  0.00000000000E+00 0. -1.
         25    2    1    2    0    0  0.46812066753E+02  0.11000614068E+03 -0.23550972868E+03  0.29220291510E+03  0.12499996284E+03 0.  0.
          2    1    1    2  501    0 -0.23706802359E+02  0.15361581508E+02 -0.30911958521E+03  0.31040764911E+03  0.00000000000E+00 0. -1.
          1    1    1    2  502    0 -0.23105264394E+02 -0.12536772219E+03  0.60845016139E+03  0.62166109570E+03  0.00000000000E+00 0. -1.
         22    1    3    3    0    0 -0.27166753796E+00  0.21051995800E+02 -0.17180342100E+03  0.17308863567E+03  0.00000000000E+00 0.  1.
         22    1    3    3    0    0  0.47083734291E+02  0.88954144877E+02 -0.63706307672E+02  0.11911427942E+03  0.00000000000E+00 0.  1.
</event>
<event>
 7    1  0.7118985E-006  0.1226917E+03  0.7818608E-02  0.1288530E+00
          2   -1    0    0  502    0  0.00000000000E+00  0.00000000000E+00  0.56824698970E+03  0.56824698970E+03  0.00000000000E+00 0. -1.
          1   -1    0    0  501    0 -0.00000000000E+00 -0.00000000000E+00 -0.30593076678E+04  0.30593076678E+04  0.00000000000E+00 0. -1.
         25    2    1    2    0    0  0.71040798516E+02 -0.23614128812E+01 -0.35761917998E+03  0.38544889677E+03  0.12500801098E+03 0.  0.
          2    1    1    2  501    0 -0.11535839433E+03 -0.58644779783E+02 -0.26836429654E+04  0.26867613096E+04  0.00000000000E+00 0. -1.
          1    1    1    2  502    0  0.44317595815E+02  0.61006192664E+02  0.55020146723E+03  0.55534445112E+03  0.00000000000E+00 0. -1.
         22    1    3    3    0    0  0.41145407443E+02 -0.18248961660E+02 -0.34708739359E+03  0.34999375415E+03  0.00000000000E+00 0.  1.
         22    1    3    3    0    0  0.29895391074E+02  0.15887548779E+02 -0.10531786388E+02  0.35455142620E+02  0.00000000000E+00 0.  1.
</event>
<event>
 7    1  0.7118985E-006  0.8681401E+02  0.7818608E-02  0.1373144E+00
          2   -1    0    0  502    0  0.00000000000E+00  0.00000000000E+00  0.66238097272E+02  0.66238097272E+02  0.00000000000E+00 0. -1.
          1   -1    0    0  501    0 -0.00000000000E+00 -0.00000000000E+00 -0.11520190754E+04  0.11520190754E+04  0.00000000000E+00 0. -1.
         25    2    1    2    0    0 -0.85820673706E+02  0.84630089726E+02 -0.96151015207E+03  0.97706357398E+03  0.12499605968E+03 0.  0.
          2    1    1    2  501    0  0.71600814761E+01 -0.50125712576E+02 -0.14435792775E+03  0.15298060378E+03  0.00000000000E+00 0. -1.
          1    1    1    2  502    0  0.78660592230E+02 -0.34504377150E+02  0.20087101718E+02  0.88212994893E+02  0.00000000000E+00 0. -1.
         22    1    3    3    0    0 -0.12602423357E+02  0.52305839594E+02 -0.73244742517E+03  0.73442082797E+03  0.00000000000E+00 0.  1.
         22    1    3    3    0    0 -0.73218250349E+02  0.32324250132E+02 -0.22906272691E+03  0.24264274601E+03  0.00000000000E+00 0.  1.
</event>
<event>
 7    1  0.7118985E-006  0.5311306E+02  0.7818608E-02  0.1431387E+00
          2   -1    0    0  502    0  0.00000000000E+00  0.00000000000E+00  0.15399572811E+04  0.15399572811E+04  0.00000000000E+00 0. -1.
          1   -1    0    0  501    0 -0.00000000000E+00 -0.00000000000E+00 -0.59373015923E+03  0.59373015923E+03  0.00000000000E+00 0. -1.
         25    2    1    2    0    0  0.63146679853E+01  0.49132219693E+01  0.40604335293E+03  0.42492372686E+03  0.12499981766E+03 0.  0.
          2    1    1    2  501    0  0.48695059453E+02 -0.18959286875E+02 -0.58240278354E+03  0.58474239255E+03  0.00000000000E+00 0. -1.
          1    1    1    2  502    0 -0.55009727438E+02  0.14046064905E+02  0.11225865525E+04  0.11240213210E+04  0.00000000000E+00 0. -1.
         22    1    3    3    0    0 -0.29434951932E+02  0.55508328899E+02  0.22292561513E+03  0.23161049383E+03  0.00000000000E+00 0. -1.
         22    1    3    3    0    0  0.35749619917E+02 -0.50595106930E+02  0.18311773780E+03  0.19331323303E+03  0.00000000000E+00 0. -1.
</event>
<event>
 7    1  0.7118985E-006  0.1216867E+03  0.7818608E-02  0.1293311E+00
          2   -1    0    0  502    0  0.00000000000E+00  0.00000000000E+00  0.94204324876E+03  0.94204324876E+03  0.00000000000E+00 0. -1.
          1   -1    0    0  501    0 -0.00000000000E+00 -0.00000000000E+00 -0.26783198061E+03  0.26783198061E+03  0.00000000000E+00 0. -1.
         25    2    1    2    0    0  0.82593691913E+02  0.17393160270E+03  0.64963717763E+03  0.68900526096E+03  0.12500346680E+03 0.  0.
          2    1    1    2  501    0 -0.55994672909E+02 -0.10626923999E+03 -0.22818099376E+03  0.25786647838E+03  0.00000000000E+00 0. -1.
          1    1    1    2  502    0 -0.26599019004E+02 -0.67662362713E+02  0.25275508428E+03  0.26300349003E+03  0.00000000000E+00 0. -1.
         22    1    3    3    0    0  0.84682271619E+02  0.63726909672E+02  0.43494598624E+03  0.44767199722E+03  0.00000000000E+00 0. -1.
         22    1    3    3    0    0 -0.20885797065E+01  0.11020469303E+03  0.21469119139E+03  0.24133326375E+03  0.00000000000E+00 0. -1.
</event>
<event>
 7    1  0.7118985E-006  0.1858324E+03  0.7818608E-02  0.1254726E+00
          2   -1    0    0  502    0  0.00000000000E+00  0.00000000000E+00  0.15307483229E+04  0.15307483229E+04  0.00000000000E+00 0. -1.
          1   -1    0    0  501    0 -0.00000000000E+00 -0.00000000000E+00 -0.43614131095E+03  0.43614131095E+03  0.00000000000E+00 0. -1.
         25    2    1    2    0    0 -0.17159416086E+03 -0.10682898309E+03  0.58748982997E+03  0.63373986139E+03  0.12499969572E+03 0.  0.
          2    1    1    2  501    0  0.18161994212E+03  0.38584939374E+02 -0.39075888906E+03  0.43262814322E+03  0.00000000000E+00 0. -1.
          1    1    1    2  502    0 -0.10025781258E+02  0.68244043714E+02  0.89787607101E+03  0.90052162921E+03  0.00000000000E+00 0. -1.
         22    1    3    3    0    0 -0.74566909697E+02 -0.53247220904E+01  0.90968294591E+02  0.11774466998E+03  0.00000000000E+00 0. -1.
         22    1    3    3    0    0 -0.97027251165E+02 -0.10150426100E+03  0.49652153538E+03  0.51599519141E+03  0.00000000000E+00 0. -1.
</event>
<event>
 7    1  0.7118985E-006  0.7654260E+02  0.7818608E-02  0.1364011E+00
          2   -1    0    0  502    0  0.00000000000E+00  0.00000000000E+00  0.31915784012E+03  0.31915784012E+03  0.00000000000E+00 0. -1.
          1   -1    0    0  501    0 -0.00000000000E+00 -0.00000000000E+00 -0.18089766636E+03  0.18089766636E+03  0.00000000000E+00 0. -1.
         25    2    1    2    0    0 -0.10904646253E+03 -0.75045399787E+02  0.40686905852E+02  0.18656257060E+03  0.12500890136E+03 0.  0.
          2    1    1    2  501    0  0.45475126712E+02  0.42068825389E+02 -0.91960418221E+02  0.11088052912E+03  0.00000000000E+00 0. -1.
          1    1    1    2  502    0  0.63571335816E+02  0.32976574398E+02  0.18953368613E+03  0.20261240676E+03  0.00000000000E+00 0. -1.
         22    1    3    3    0    0  0.22369824406E+02 -0.11464714956E+02  0.31478903090E+02  0.40283620402E+02  0.00000000000E+00 0.  1.
         22    1    3    3    0    0 -0.13141628693E+03 -0.63580684831E+02  0.92080027623E+01  0.14627895019E+03  0.00000000000E+00 0.  1.
</event>
<event>
 7    1  0.7118985E-006  0.1948195E+03  0.7818608E-02  0.1210046E+00
          2   -1    0    0  502    0  0.00000000000E+00  0.00000000000E+00  0.11374454838E+04  0.11374454838E+04  0.00000000000E+00 0. -1.
          1   -1    0    0  501    0 -0.00000000000E+00 -0.00000000000E+00 -0.47077190191E+03  0.47077190191E+03  0.00000000000E+00 0. -1.
         25    2    1    2    0    0 -0.29249895188E+03 -0.24796409022E+02  0.36099607186E+03  0.48178151401E+03  0.12499905838E+03 0.  0.
          2    1    1    2  501    0  0.18938617164E+03  0.98917375014E+01 -0.38434835944E+03  0.42858911545E+03  0.00000000000E+00 0. -1.
          1    1    1    2  502    0  0.10311278024E+03  0.14904671520E+02  0.69002586944E+03  0.69784675623E+03  0.00000000000E+00 0. -1.
         22    1    3    3    0    0 -0.17098893453E+02  0.28655944504E+02  0.70165503251E+02  0.77696416643E+02  0.00000000000E+00 0.  1.
         22    1    3    3    0    0 -0.27540005843E+03 -0.53452353525E+02  0.29083056861E+03  0.40408509737E+03  0.00000000000E+00 0.  1.
</event>
<event>
 7    1  0.7118985E-006  0.8586352E+02  0.7818608E-02  0.1323951E+00
          2   -1    0    0  502    0  0.00000000000E+00  0.00000000000E+00  0.18939106997E+03  0.18939106997E+03  0.00000000000E+00 0. -1.
          1   -1    0    0  501    0 -0.00000000000E+00 -0.00000000000E+00 -0.21647878096E+04  0.21647878096E+04  0.00000000000E+00 0. -1.
         25    2    1    2    0    0 -0.20783794680E+02  0.10091405694E+03 -0.15551729097E+03  0.22454896345E+03  0.12498398373E+03 0.  0.
          2    1    1    2  501    0  0.74177754013E+02 -0.44086515737E+02 -0.19639320832E+04  0.19658268457E+04  0.00000000000E+00 0. -1.
          1    1    1    2  502    0 -0.53393959333E+02 -0.56827541199E+02  0.14405263456E+03  0.16380307035E+03  0.00000000000E+00 0. -1.
         22    1    3    3    0    0  0.10880657152E+02  0.37612062393E+02 -0.14832362317E+03  0.15340454076E+03  0.00000000000E+00 0. -1.
         22    1    3    3    0    0 -0.31664451832E+02  0.63301994543E+02 -0.71936677972E+01  0.71144422686E+02  0.00000000000E+00 0. -1.
</event>
<event>
 7    1  0.7118985E-006  0.1367166E+03  0.7818608E-02  0.1319826E+00
          2   -1    0    0  502    0  0.00000000000E+00  0.00000000000E+00  0.15811955686E+04  0.15811955686E+04  0.00000000000E+00 0. -1.
          1   -1    0    0  501    0 -0.00000000000E+00 -0.00000000000E+00 -0.91014413384E+03  0.91014413384E+03  0.00000000000E+00 0. -1.
         25    2    1    2    0    0  0.16241592351E+03  0.47844412676E+02 -0.76058356143E+03  0.78916443452E+03  0.12500052306E+03 0.  0.
          2    1    1    2  501    0 -0.25865850658E+02 -0.43727721438E+02 -0.12740508457E+03  0.13716126066E+03  0.00000000000E+00 0. -1.
          1    1    1    2  502    0 -0.13655007285E+03 -0.41166912374E+01  0.15590400808E+04  0.15650140073E+04  0.00000000000E+00 0. -1.
         22    1    3    3    0    0 -0.10840051306E+02  0.25876399926E+02 -0.49002086350E+02  0.56465026805E+02  0.00000000000E+00 0.  1.
         22    1    3    3    0    0  0.17325597481E+03  0.21968012750E+02 -0.71158147508E+03  0.73269940771E+03  0.00000000000E+00 0.  1.
</event>
<event>
 7    1  0.7118985E-006  0.4690086E+02  0.7818608E-02  0.1466740E+00
          2   -1    0    0  502    0  0.00000000000E+00  0.00000000000E+00  0.11943230932E+04  0.11943230932E+04  0.00000000000E+00 0. -1.
          1   -1    0    0  501    0 -0.00000000000E+00 -0.00000000000E+00 -0.15097893206E+03  0.15097893206E+03  0.00000000000E+00 0. -1.
         25    2    1    2    0    0 -0.63794068667E+00 -0.46781827797E+02  0.39252974117E+01  0.13352946136E+03  0.12500305081E+03 0.  0.
          2    1    1    2  501    0  0.40265418916E+02  0.21381353785E+02 -0.79617637117E+02  0.91746576995E+02  0.00000000000E+00 0. -1.
          1    1    1    2  502    0 -0.39627478230E+02  0.25400474012E+02  0.11190365008E+04  0.11200259869E+04  0.00000000000E+00 0. -1.
         22    1    3    3    0    0  0.58661611579E+02 -0.81870297950E+01 -0.13310391930E+02  0.60707319684E+02  0.00000000000E+00 0.  1.
         22    1    3    3    0    0 -0.59299552265E+02 -0.38594798002E+02  0.17235689341E+02  0.72822141679E+02  0.00000000000E+00 0.  1.
</event>
<event>
 7    1  0.7118985E-006  0.5798217E+02  0.7818608E-02  0.1527780E+00
          2   -1    0    0  502    0  0.00000000000E+00  0.00000000000E+00  0.88363399989E+03  0.88363399989E+03  0.00000000000E+00 0. -1.
          1   -1    0    0  501    0 -0.00000000000E+00 -0.00000000000E+00 -0.19054913109E+03  0.19054913109E+03  0.00000000000E+00 0. -1.
         25    2    1    2    0    0 -0.10824088740E+02 -0.39704355844E+02  0.57533990887E+02  0.14362617456E+03  0.12499888456E+03 0.  0.
          2    1    1    2  501    0 -0.38139514592E+01  0.58977139724E+02 -0.14138708336E+03  0.15324215013E+03  0.00000000000E+00 0. -1.
          1    1    1    2  502    0  0.14638040199E+02 -0.19272783880E+02  0.77693796127E+03  0.77731480629E+03  0.00000000000E+00 0. -1.
         22    1    3    3    0    0  0.32941750755E+02 -0.55227594782E+02  0.70490073773E+02  0.95415390104E+02  0.00000000000E+00 0. -1.
         22    1    3    3    0    0 -0.43765839495E+02  0.15523238938E+02 -0.12956082886E+02  0.48210784453E+02  0.00000000000E+00 0. -1.
</event>
<event>
 7    1  0.7118985E-006  0.3028857E+03  0.7818608E-02  0.1297416E+00
          2   -1    0    0  502    0  0.00000000000E+00  0.00000000000E+00  0.67263773119E+03  0.67263773119E+03  0.00000000000E+00 0. -1.
          1   -1    0    0  501    0 -0.00000000000E+00 -0.00000000000E+00 -0.92938012415E+03  0.92938012415E+03  0.00000000000E+00 0. -1.
         25    2    1    2    0    0 -0.91067567303E+01  0.32834156498E+03 -0.36399013121E+03  0.50596983975E+03  0.12500218718E+03 0.  0.
          2    1    1    2  501    0 -0.33100643747E+01 -0.27920964961E+02 -0.45637417264E+03  0.45723945834E+03  0.00000000000E+00 0. -1.
          1    1    1    2  502    0  0.12416821105E+02 -0.30042060002E+03  0.56362191090E+03  0.63880855725E+03  0.00000000000E+00 0. -1.
         22    1    3    3    0    0 -0.13048042163E+02  0.19880277042E+02 -0.90943192186E+02  0.94000750128E+02  0.00000000000E+00 0.  1.
         22    1    3    3    0    0  0.39412854330E+01  0.30846128794E+03 -0.27304693903E+03  0.41196908962E+03  0.00000000000E+00 0.  1.
</event>
<event>
 7    1  0.7118985E-006  0.6779037E+02  0.7818608E-02  0.1378731E+00
          2   -1    0    0  502    0  0.00000000000E+00  0.00000000000E+00  0.42647404750E+03  0.42647404750E+03  0.00000000000E+00 0. -1.
          1   -1    0    0  501    0 -0.00000000000E+00 -0.00000000000E+00 -0.38762825569E+04  0.38762825569E+04  0.00000000000E+00 0. -1.
         25    2    1    2    0    0 -0.90521669125E+01 -0.70310978468E+01 -0.13017789061E+04  0.13078171896E+04  0.12500441146E+03 0.  0.
          2    1    1    2  501    0  0.11623183005E+02 -0.60838244610E+02 -0.25683853891E+04  0.25691321292E+04  0.00000000000E+00 0. -1.
          1    1    1    2  502    0 -0.25710160929E+01  0.67869342456E+02  0.42035578584E+03  0.42580728558E+03  0.00000000000E+00 0. -1.
         22    1    3    3    0    0  0.37028722446E+02 -0.37873248363E+02 -0.96930083514E+03  0.97074693831E+03  0.00000000000E+00 0. -1.
         22    1    3    3    0    0 -0.46080889359E+02  0.30842150517E+02 -0.33247807096E+03  0.33707025126E+03  0.00000000000E+00 0. -1.
</event>
<event>
 7    1  0.7118985E-006  0.1173240E+03  0.7818608E-02  0.1314333E+00
          2   -1    0    0  502    0  0.00000000000E+00  0.00000000000E+00  0.19253754166E+04  0.19253754166E+04  0.00000000000E+00 0. -1.
          1   -1    0    0  501    0 -0.00000000000E+00 -0.00000000000E+00 -0.39544390545E+03  0.39544390545E+03  0.00000000000E+00 0. -1.
         25    2    1    2    0    0  0.19697814007E+02  0.85821923011E+02  0.12317569263E+03  0.19634328643E+03  0.12500011410E+03 0.  0.
          2    1    1    2  501    0  0.62180050562E+02  0.13409385853E+01 -0.35412194692E+03  0.35954208390E+03  0.00000000000E+00 0. -1.
          1    1    1    2  502    0 -0.81877864569E+02 -0.87162861597E+02  0.17608777655E+04  0.17649339518E+04  0.00000000000E+00 0. -1.
         22    1    3    3    0    0  0.13392126470E+02 -0.16195088445E+02 -0.14017349013E+02  0.25260958304E+02  0.00000000000E+00 0. -1.
         22    1    3    3    0    0  0.63056875372E+01  0.10201701146E+03  0.13719304164E+03  0.17108232813E+03  0.00000000000E+00 0. -1.
</event>
<event>
 7    1  0.7118985E-006  0.2099629E+03  0.7818608E-02  0.1334921E+00
          2   -1    0    0  502    0  0.00000000000E+00  0.00000000000E+00  0.21185721300E+04  0.21185721300E+04  0.00000000000E+00 0. -1.
          1   -1    0    0  501    0 -0.00000000000E+00 -0.00000000000E+00 -0.18738379631E+03  0.18738379631E+03  0.00000000000E+00 0. -1.
         25    2    1    2    0    0  0.17533073043E+03  0.49032340988E+02 -0.75781269123E+02  0.23347904495E+03  0.12499851272E+03 0.  0.
          2    1    1    2  501    0  0.28351954312E+02  0.58655513051E+01 -0.19596658883E+02  0.34960935983E+02  0.00000000000E+00 0. -1.
          1    1    1    2  502    0 -0.20368268475E+03 -0.54897892293E+02  0.20265662617E+04  0.20375159454E+04  0.00000000000E+00 0. -1.
         22    1    3    3    0    0  0.54021351687E+02 -0.21869907987E+02 -0.72380751339E+02  0.92927780980E+02  0.00000000000E+00 0.  1.
         22    1    3    3    0    0  0.12130937875E+03  0.70902248975E+02 -0.34005177837E+01  0.14055126397E+03  0.00000000000E+00 0.  1.
</event>
<event>
 7    1  0.7118985E-006  0.8870835E+03  0.7818608E-02  0.1072585E+00
          2   -1    0    0  502    0  0.00000000000E+00  0.00000000000E+00  0.52117585464E+03  0.52117585464E+03  0.00000000000E+00 0. -1.
          1   -1    0    0  501    0 -0.00000000000E+00 -0.00000000000E+00 -0.23912009399E+04  0.23912009399E+04  0.00000000000E+00 0. -1.
         25    2    1    2    0    0 -0.80284419232E+03 -0.25823259372E+03 -0.64236370135E+03  0.10674732155E+04  0.12500028588E+03 0.  0.
          2    1    1    2  501    0  0.83834227423E+03  0.37323185103E+03 -0.13759679548E+04  0.16539067676E+04  0.00000000000E+00 0. -1.
          1    1    1    2  502    0 -0.35498081902E+02 -0.11499925730E+03  0.14830657087E+03  0.19099681139E+03  0.00000000000E+00 0. -1.
         22    1    3    3    0    0 -0.22898061209E+03 -0.29722370701E+02 -0.22204339630E+03  0.32034170798E+03  0.00000000000E+00 0. -1.
         22    1    3    3    0    0 -0.57386358023E+03 -0.22851022302E+03 -0.42032030505E+03  0.74713150756E+03  0.00000000000E+00 0. -1.
</event>
<event>
 7    1  0.7118985E-006  0.1039656E+03  0.7818608E-02  0.1310951E+00
          2   -1    0    0  502    0  0.00000000000E+00  0.00000000000E+00  0.21678943822E+04  0.21678943822E+04  0.00000000000E+00 0. -1.
          1   -1    0    0  501    0 -0.00000000000E+00 -0.00000000000E+00 -0.21222138997E+03  0.21222138997E+03  0.00000000000E+00 0. -1.
         25    2    1    2    0    0  0.70780512550E+02 -0.80888054138E+02  0.13296407898E+04  0.13398217320E+04  0.12499954111E+03 0.  0.
          2    1    1    2  501    0 -0.65513066967E+02 -0.30733644465E+02 -0.19691716953E+03  0.20979249391E+03  0.00000000000E+00 0. -1.
          1    1    1    2  502    0 -0.52674455837E+01  0.11162169860E+03  0.82294937193E+03  0.83050154626E+03  0.00000000000E+00 0. -1.
         22    1    3    3    0    0  0.89277586098E+02 -0.33057110727E+02  0.52596464063E+03  0.53451105054E+03  0.00000000000E+00 0.  1.
         22    1    3    3    0    0 -0.18497073548E+02 -0.47830943411E+02  0.80367614920E+03  0.80531068146E+03  0.00000000000E+00 0.  1.
</event>
<event>
 7    1  0.7118985E-006  0.1091286E+03  0.7818608E-02  0.1369083E+00
          2   -1    0    0  502    0  0.00000000000E+00  0.00000000000E+00  0.21908095465E+04  0.21908095465E+04  0.00000000000E+00 0. -1.
          1   -1    0    0  501    0 -0.00000000000E+00 -0.00000000000E+00 -0.13640351959E+04  0.13640351959E+04  0.00000000000E+00 0. -1.
         25    2    1    2    0    0 -0.27923487040E+02  0.14300855307E+03 -0.20301105741E+03  0.27940798769E+03  0.12499666706E+03 0.  0.
          2    1    1    2  501    0  0.79287263533E+01 -0.10646534023E+03 -0.11200857226E+04  0.11251621036E+04  0.00000000000E+00 0. -1.
          1    1    1    2  502    0  0.19994760686E+02 -0.36543212841E+02  0.21498711307E+04  0.21502746511E+04  0.00000000000E+00 0. -1.
         22    1    3    3    0    0 -0.61825294995E+02  0.14383191494E+03 -0.17929188820E+03  0.23802430135E+03  0.00000000000E+00 0. -1.
         22    1    3    3    0    0  0.33901807956E+02 -0.82336187110E+00 -0.23719169207E+02  0.41383686342E+02  0.00000000000E+00 0. -1.
</event>
<event>
 7    1  0.7118985E-006  0.4209135E+02  0.7818608E-02  0.1504750E+00
          2   -1    0    0  502    0  0.00000000000E+00  0.00000000000E+00  0.90001569790E+03  0.90001569790E+03  0.00000000000E+00 0. -1.
          1   -1    0    0  501    0 -0.00000000000E+00 -0.00000000000E+00 -0.55273453725E+03  0.55273453725E+03  0.00000000000E+00 0. -1.
         25    2    1    2    0    0  0.20449756258E+02 -0.39124335579E+02  0.33600883485E+02  0.13675685675E+03  0.12499804932E+03 0.  0.
          2    1    1    2  501    0  0.18453726724E+02  0.38012849228E+02 -0.49979978590E+03  0.50158283734E+03  0.00000000000E+00 0. -1.
          1    1    1    2  502    0 -0.38903482982E+02  0.11114863510E+01  0.81348006305E+03  0.81441054105E+03  0.00000000000E+00 0. -1.
         22    1    3    3    0    0  0.15462174604E+02 -0.35811860624E+02  0.80512799634E+02  0.89464401354E+02  0.00000000000E+00 0. -1.
         22    1    3    3    0    0  0.49875816541E+01 -0.33124749547E+01 -0.46911916148E+02  0.47292455400E+02  0.00000000000E+00 0. -1.
</event>
<event>
 7    1  0.7118985E-006  0.2358394E+03  0.7818608E-02  0.1267324E+00
          2   -1    0    0  502    0  0.00000000000E+00  0.00000000000E+00  0.10094060346E+04  0.10094060346E+04  0.00000000000E+00 0. -1.
          1   -1    0    0  501    0 -0.00000000000E+00 -0.00000000000E+00 -0.21190781094E+04  0.21190781094E+04  0.00000000000E+00 0. -1.
         25    2    1    2    0    0  0.26757543794E+01 -0.20605138301E+03 -0.33690421618E+03  0.41423874189E+03  0.12499980921E+03 0.  0.
          2    1    1    2  501    0 -0.36739261140E+02  0.23991470401E+03 -0.17344574707E+04  0.17513570613E+04  0.00000000000E+00 0. -1.
          1    1    1    2  502    0  0.34063506761E+02 -0.33863320998E+02  0.96168961209E+03  0.96288834088E+03  0.00000000000E+00 0. -1.
         22    1    3    3    0    0  0.22570298269E+02 -0.20992513469E+03 -0.26116766618E+03  0.33583705930E+03  0.00000000000E+00 0. -1.
         22    1    3    3    0    0 -0.19894543890E+02  0.38737516759E+01 -0.75736549993E+02  0.78401682593E+02  0.00000000000E+00 0. -1.
</event>
<event>
 7    1  0.7118985E-006  0.2170421E+03  0.7818608E-02  0.1211613E+00
          2   -1    0    0  502    0  0.00000000000E+00  0.00000000000E+00  0.25104505008E+04  0.25104505008E+04  0.00000000000E+00 0. -1.
          1   -1    0    0  501    0 -0.00000000000E+00 -0.00000000000E+00 -0.74253926510E+03  0.74253926510E+03  0.00000000000E+00 0. -1.
         25    2    1    2    0    0 -0.13299980290E+03  0.13306621155E+03 -0.15585607121E+03  0.27442650888E+03  0.12499291825E+03 0.  0.
          2    1    1    2  501    0  0.21531176065E+03 -0.92043985419E+02 -0.50049161229E+03  0.55256049759E+03  0.00000000000E+00 0. -1.
          1    1    1    2  502    0 -0.82311957752E+02 -0.41022226132E+02  0.24242589192E+04  0.24260027594E+04  0.00000000000E+00 0. -1.
         22    1    3    3    0    0 -0.46666887475E+02  0.12682606959E+03 -0.68731188347E+02  0.15161341157E+03  0.00000000000E+00 0.  1.
         22    1    3    3    0    0 -0.86332915422E+02  0.62401419579E+01 -0.87124882865E+02  0.12281309731E+03  0.00000000000E+00 0.  1.
</event>
<event>
 7    1  0.7118985E-006  0.6239904E+02  0.7818608E-02  0.1401423E+00
          2   -1    0    0  502    0  0.00000000000E+00  0.00000000000E+00  0.17061354462E+03  0.17061354462E+03  0.00000000000E+00 0. -1.
          1   -1    0    0  501    0 -0.00000000000E+00 -0.00000000000E+00 -0.56914322835E+03  0.56914322835E+03  0.00000000000E+00 0. -1.
         25    2    1    2    0    0  0.39873670518E+00  0.89185486452E+02 -0.24907021280E+03  0.29260087346E+03  0.12500036106E+03 0.  0.
          2    1    1    2  501    0 -0.37965150313E+02 -0.47553945896E+02 -0.28975159343E+03  0.29607214713E+03  0.00000000000E+00 0. -1.
          1    1    1    2  502    0  0.37566413607E+02 -0.41631540556E+02  0.14029212250E+03  0.15108375239E+03  0.00000000000E+00 0. -1.
         22    1    3    3    0    0 -0.17006696888E+02  0.64105931238E+02 -0.25324800102E+03  0.26178874724E+03  0.00000000000E+00 0. -1.
         22    1    3    3    0    0  0.17405433593E+02  0.25079555213E+02  0.41777882230E+01  0.30812126228E+02  0.00000000000E+00 0. -1.
</event>
<event>
 7    1  0.7118985E-006  0.4153175E+02  0.7818608E-02  0.1570866E+00
          2   -1    0    0  502    0  0.00000000000E+00  0.00000000000E+00  0.32546654753E+04  0.32546654753E+04  0.00000000000E+00 0. -1.
          1   -1    0    0  501    0 -0.00000000000E+00 -0.00000000000E+00 -0.64861466136E+01  0.64861466136E+01  0.00000000000E+00 0. -1.
         25    2    1    2    0    0  0.16079484408E+02 -0.71469915855E+01  0.18249440766E+04  0.18293046672E+04  0.12500021459E+03 0.  0.
          2    1    1    2  501    0 -0.36859789320E+02  0.22118398152E+02  0.10630169013E+03  0.11466436643E+03  0.00000000000E+00 0. -1.
          1    1    1    2  502    0  0.20780304912E+02 -0.14971406567E+02  0.13169335620E+04  0.13171825882E+04  0.00000000000E+00 0. -1.
         22    1    3    3    0    0 -0.41900346977E+02  0.10370592094E+02  0.13253141035E+04  0.13260168404E+04  0.00000000000E+00 0.  1.
         22    1    3    3    0    0  0.57979831385E+02 -0.17517583679E+02  0.49962997311E+03  0.50328782681E+03  0.00000000000E+00 0.  1.
</event>
<event>
 7    1  0.7118985E-006  0.1027202E+03  0.7818608E-02  0.1402218E+00
          2   -1    0    0  502    0  0.00000000000E+00  0.00000000000E+00  0.13926469262E+04  0.13926469262E+04  0.00000000000E+00 0. -1.
          1   -1    0    0  501    0 -0.00000000000E+00 -0.00000000000E+00 -0.44617295832E+02  0.44617295832E+02  0.00000000000E+00 0. -1.
         25    2    1    2    0    0 -0.64968864736E+02  0.32143666608E+02  0.20335223628E+03  0.24946142339E+03  0.12499880427E+03 0.  0.
          2    1    1    2  501    0 -0.26998850544E+02  0.20418332673E+02 -0.41485216912E+01  0.34103613768E+02  0.00000000000E+00 0. -1.
          1    1    1    2  502    0  0.91967715280E+02 -0.52561999281E+02  0.11488259158E+04  0.11536991849E+04  0.00000000000E+00 0. -1.
         22    1    3    3    0    0 -0.26995836033E+02 -0.40283701448E+02  0.13307414732E+03  0.14163431946E+03  0.00000000000E+00 0. -1.
         22    1    3    3    0    0 -0.37973028703E+02  0.72427368056E+02  0.70278088963E+02  0.10782710392E+03  0.00000000000E+00 0. -1.
</event>
<event>
 7    1  0.7118985E-006  0.7113763E+02  0.7818608E-02  0.1524182E+00
          2   -1    0    0  502    0  0.00000000000E+00  0.00000000000E+00  0.98450735795E+03  0.98450735795E+03  0.00000000000E+00 0. -1.
          1   -1    0    0  501    0 -0.00000000000E+00 -0.00000000000E+00 -0.96147133410E+02  0.96147133410E+02  0.00000000000E+00 0. -1.
         25    2    1    2    0    0 -0.35278974227E+02  0.43881079935E+02  0.34830050864E+03  0.37431047545E+03  0.12499973007E+03 0.  0.
          2    1    1    2  501    0  0.32747615279E+02 -0.63924278290E+02 -0.67431099056E+02  0.98517372992E+02  0.00000000000E+00 0. -1.
          1    1    1    2  502    0  0.25313589486E+01  0.20043198355E+02  0.60749081496E+03  0.60782664292E+03  0.00000000000E+00 0. -1.
         22    1    3    3    0    0 -0.36966401695E+02  0.84923848924E+02  0.27636991889E+03  0.29147711237E+03  0.00000000000E+00 0. -1.
         22    1    3    3    0    0  0.16874274672E+01 -0.41042768988E+02  0.71930589748E+02  0.82833363080E+02  0.00000000000E+00 0. -1.
</event>
<event>
 7    1  0.7118985E-006  0.5866060E+02  0.7818608E-02  0.1522101E+00
          2   -1    0    0  502    0  0.00000000000E+00  0.00000000000E+00  0.40162741675E+03  0.40162741675E+03  0.00000000000E+00 0. -1.
          1   -1    0    0  501    0 -0.00000000000E+00 -0.00000000000E+00 -0.39942534619E+03  0.39942534619E+03  0.00000000000E+00 0. -1.
         25    2    1    2    0    0 -0.78827051392E+02  0.11239033171E+02  0.51076923908E+02  0.15676032026E+03  0.12499970381E+03 0.  0.
          2    1    1    2  501    0  0.21240597191E+02 -0.12881104605E+02 -0.34334367417E+03  0.34424114283E+03  0.00000000000E+00 0. -1.
          1    1    1    2  502    0  0.57586454201E+02  0.16420714343E+01  0.29446882083E+03  0.30005129986E+03  0.00000000000E+00 0. -1.
         22    1    3    3    0    0 -0.35729625078E+02  0.41996603536E+02  0.79435315361E+02  0.96696898313E+02  0.00000000000E+00 0. -1.
         22    1    3    3    0    0 -0.43097426314E+02 -0.30757570364E+02 -0.28358391453E+02  0.60063421942E+02  0.00000000000E+00 0. -1.
</event>
<event>
 7    1  0.7118985E-006  0.3740582E+02  0.7818608E-02  0.1554792E+00
          2   -1    0    0  502    0  0.00000000000E+00  0.00000000000E+00  0.13198672061E+03  0.13198672061E+03  0.00000000000E+00 0. -1.
          1   -1    0    0  501    0 -0.00000000000E+00 -0.00000000000E+00 -0.37174430469E+03  0.37174430469E+03  0.00000000000E+00 0. -1.
         25    2    1    2    0    0 -0.54111488373E+02 -0.26347466823E+02 -0.53790221914E+02  0.14880514839E+03  0.12500936777E+03 0.  0.
          2    1    1    2  501    0  0.17388489205E+02  0.26235834655E+02 -0.26548166750E+03  0.26734097022E+03  0.00000000000E+00 0. -1.
          1    1    1    2  502    0  0.36722999168E+02  0.11163216810E+00  0.79514305325E+02  0.87584906696E+02  0.00000000000E+00 0. -1.
         22    1    3    3    0    0 -0.67248759647E+02 -0.30810324093E+02  0.17635800038E+02  0.76044021381E+02  0.00000000000E+00 0.  1.
         22    1    3    3    0    0  0.13137271274E+02  0.44628572707E+01 -0.71426021952E+02  0.72761127008E+02  0.00000000000E+00 0.  1.
</event>
<event>
 7    1  0.7118985E-006  0.5305790E+02  0.7818608E-02  0.1546734E+00
          2   -1    0    0  502    0  0.00000000000E+00  0.00000000000E+00  0.11948144038E+04  0.11948144038E+04  0.00000000000E+00 0. -1.
          1   -1    0    0  501    0 -0.00000000000E+00 -0.00000000000E+00 -0.40246405047E+03  0.40246405047E+03  0.00000000000E+00 0. -1.
         25    2    1    2    0    0  0.50154648706E+02  0.11911578053E+02 -0.70218814885E+01  0.13539863096E+03  0.12500443179E+03 0.  0.
          2    1    1    2  501    0 -0.89373134620E+01  0.21590626452E+02 -0.33021686622E+03  0.33104260973E+03  0.00000000000E+00 0. -1.
          1    1    1    2  502    0 -0.41217335244E+02 -0.33502204505E+02  0.11295891010E+04  0.11308372136E+04  0.00000000000E+00 0. -1.
         22    1    3    3    0    0  0.83075069360E+02 -0.54184610766E+01  0.24343636640E+02  0.86737762909E+02  0.00000000000E+00 0. -1.
         22    1    3    3    0    0 -0.32920420654E+02  0.17330039129E+02 -0.31365518128E+02  0.48660868053E+02  0.00000000000E+00 0. -1.
</event>
<event>
 7    1  0.7118985E-006  0.9026357E+02  0.7818608E-02  0.1462709E+00
          2   -1    0    0  502    0  0.00000000000E+00  0.00000000000E+00  0.87706961968E+03  0.87706961968E+03  0.00000000000E+00 0. -1.
          1   -1    0    0  501    0 -0.00000000000E+00 -0.00000000000E+00 -0.45292993499E+03  0.45292993499E+03  0.00000000000E+00 0. -1.
         25    2    1    2    0    0  0.79753756439E+02 -0.18452664973E+02  0.17001835458E+03  0.22634740658E+03  0.12500298021E+03 0.  0.
          2    1    1    2  501    0  0.11655301720E+02  0.21422430920E+02 -0.42133099121E+03  0.42203621972E+03  0.00000000000E+00 0. -1.
          1    1    1    2  502    0 -0.91409058159E+02 -0.29697659469E+01  0.67545232132E+03  0.68161592837E+03  0.00000000000E+00 0. -1.
         22    1    3    3    0    0  0.84822188152E+02  0.36999878067E+02  0.11966718522E+03  0.15127468327E+03  0.00000000000E+00 0.  1.
         22    1    3    3    0    0 -0.50684317130E+01 -0.55452543040E+02  0.50351169362E+02  0.75072723314E+02  0.00000000000E+00 0.  1.
</event>
<event>
 7    1  0.7118985E-006  0.6939076E+02  0.7818608E-02  0.1384182E+00
          2   -1    0    0  502    0  0.00000000000E+00  0.00000000000E+00  0.20022845329E+04  0.20022845329E+04  0.00000000000E+00 0. -1.
          1   -1    0    0  501    0 -0.00000000000E+00 -0.00000000000E+00 -0.19151637998E+04  0.19151637998E+04  0.00000000000E+00 0. -1.
         25    2    1    2    0    0 -0.14235947669E+01  0.63666643614E+02  0.17222208785E+03  0.22212691327E+03  0.12499779968E+03 0.  0.
          2    1    1    2  501    0  0.54930124413E+02 -0.18256578516E+02 -0.18890858107E+04  0.18899724394E+04  0.00000000000E+00 0. -1.
          1    1    1    2  502    0 -0.53506529646E+02 -0.45410065099E+02  0.18039844559E+04  0.18053489801E+04  0.00000000000E+00 0. -1.
         22    1    3    3    0    0 -0.38509364889E+02  0.51889203368E+02  0.24078148779E+02  0.68958087698E+02  0.00000000000E+00 0.  1.
         22    1    3    3    0    0  0.37085770122E+02  0.11777440247E+02  0.14814393907E+03  0.15316882557E+03  0.00000000000E+00 0.  1.
</event>
<event>
 7    1  0.7118985E-006  0.1520658E+03  0.7818608E-02  0.1284023E+00
          2   -1    0    0  502    0  0.00000000000E+00  0.00000000000E+00  0.95969661559E+03  0.95969661559E+03  0.00000000000E+00 0. -1.
          1   -1    0    0  501    0 -0.00000000000E+00 -0.00000000000E+00 -0.84849700556E+03  0.84849700556E+03  0.00000000000E+00 0. -1.
         25    2    1    2    0    0  0.14153769923E+03  0.64173895832E+02 -0.97805689614E+01  0.19967708803E+03  0.12499628293E+03 0.  0.
          2    1    1    2  501    0 -0.39694642672E+02  0.49535010823E+02 -0.73565417074E+03  0.73838773072E+03  0.00000000000E+00 0. -1.
          1    1    1    2  502    0 -0.10184305656E+03 -0.11370890666E+03  0.85663434973E+03  0.87012880239E+03  0.00000000000E+00 0. -1.
         22    1    3    3    0    0  0.12459265980E+03  0.98032698563E+02 -0.21627479218E+02  0.16000465218E+03  0.00000000000E+00 0. -1.
         22    1    3    3    0    0  0.16945039434E+02 -0.33858802731E+02  0.11846910256E+02  0.39672435851E+02  0.00000000000E+00 0. -1.
</event>
<event>
 7    1  0.7118985E-006  0.3194415E+02  0.7818608E-02  0.1581095E+00
          2   -1    0    0  502    0  0.00000000000E+00  0.00000000000E+00  0.25248096462E+04  0.25248096462E+04  0.00000000000E+00 0. -1.
          1   -1    0    0  501    0 -0.00000000000E+00 -0.00000000000E+00 -0.72209117879E+02  0.72209117879E+02  0.00000000000E+00 0. -1.
         25    2    1    2    0    0  0.11285565050E+02  0.31838074042E+02  0.21770224615E+03  0.25329979043E+03  0.12500195566E+03 0.  0.
          2    1    1    2  501    0 -0.31250692519E+02 -0.77967149053E+01 -0.49527563313E+02  0.59079387894E+02  0.00000000000E+00 0. -1.
          1    1    1    2  502    0  0.19965127469E+02 -0.24041359137E+02  0.22844258455E+04  0.22846395858E+04  0.00000000000E+00 0. -1.
         22    1    3    3    0    0  0.20673658609E+02 -0.40068595482E+02  0.13970132418E+03  0.14679697708E+03  0.00000000000E+00 0.  1.
         22    1    3    3    0    0 -0.93880935586E+01  0.71906669524E+02  0.78000921969E+02  0.10650281335E+03  0.00000000000E+00 0.  1.
</event>
<event>
 7    1  0.7118985E-006  0.6652689E+02  0.7818608E-02  0.1531135E+00
          2   -1    0    0  502    0  0.00000000000E+00  0.00000000000E+00  0.61043037484E+03  0.61043037484E+03  0.00000000000E+00 0. -1.
          1   -1    0    0  501    0 -0.00000000000E+00 -0.00000000000E+00 -0.38999542174E+03  0.38999542174E+03  0.00000000000E+00 0. -1.
         25    2    1    2    0    0  0.78233525107E+02  0.67910244233E+01  0.20735792470E+03  0.25453563568E+03  0.12499791372E+03 0.  0.
          2    1    1    2  501    0 -0.63063917757E+02 -0.20773904417E+02 -0.36311358974E+03  0.36913424642E+03  0.00000000000E+00 0. -1.
          1    1    1    2  502    0 -0.15169607349E+02  0.13982879993E+02  0.37619061814E+03  0.37675591448E+03  0.00000000000E+00 0. -1.
         22    1    3    3    0    0  0.51362982470E+02 -0.22231170759E+02  0.20757068958E+03  0.21498365541E+03  0.00000000000E+00 0.  1.
         22    1    3    3    0    0  0.26870542637E+02  0.29022195182E+02 -0.21276487921E+00  0.39551980275E+02  0.00000000000E+00 0.  1.
</event>
<event>
 7    1  0.7118985E-006  0.1003065E+03  0.7818608E-02  0.1331320E+00
          2   -1    0    0  502    0  0.00000000000E+00  0.00000000000E+00  0.70889875127E+03  0.70889875127E+03  0.00000000000E+00 0. -1.
          1   -1    0    0  501    0 -0.00000000000E+00 -0.00000000000E+00 -0.23818956587E+03  0.23818956587E+03  0.00000000000E+00 0. -1.
         25    2    1    2    0    0 -0.13007913597E+03  0.40487757651E+02 -0.11961221085E+01  0.18490566030E+03  0.12501532853E+03 0.  0.
          2    1    1    2  501    0  0.95054098024E+02  0.11329205841E+02 -0.12754849511E+03  0.15947492298E+03  0.00000000000E+00 0. -1.
          1    1    1    2  502    0  0.35025037945E+02 -0.51816963491E+02  0.59945380262E+03  0.60270773387E+03  0.00000000000E+00 0. -1.
         22    1    3    3    0    0 -0.87916889782E+02  0.78322286734E+02 -0.29782398712E+02  0.12145267136E+03  0.00000000000E+00 0.  1.
         22    1    3    3    0    0 -0.42162246187E+02 -0.37834529083E+02  0.28586276603E+02  0.63452988933E+02  0.00000000000E+00 0.  1.
</event>
<event>
 7    1  0.7118985E-006  0.1071562E+03  0.7818608E-02  0.1385457E+00
          2   -1    0    0  502    0  0.00000000000E+00  0.00000000000E+00  0.14053468011E+04  0.14053468011E+04  0.00000000000E+00 0. -1.
          1   -1    0    0  501    0 -0.00000000000E+00 -0.00000000000E+00 -0.20331469860E+03  0.20331469860E+03  0.00000000000E+00 0. -1.
         25    2    1    2    0    0 -0.96133175583E+02 -0.36602962470E+02  0.98833614857E+02  0.18966721755E+03  0.12499682267E+03 0.  0.
          2    1    1    2  501    0  0.82022429126E+02  0.70914010885E+02 -0.13897419923E+03  0.17626770513E+03  0.00000000000E+00 0. -1.
          1    1    1    2  502    0  0.14110746457E+02 -0.34311048415E+02  0.12421726869E+04  0.12427265771E+04  0.00000000000E+00 0. -1.
         22    1    3    3    0    0 -0.11055139540E+03  0.39551768628E-02  0.37383602007E+02  0.11670109142E+03  0.00000000000E+00 0.  1.
         22    1    3    3    0    0  0.14418219816E+02 -0.36606917647E+02  0.61450012851E+02  0.72966126125E+02  0.00000000000E+00 0.  1.
</event>
<event>
 7    1  0.7118985E-006  0.9079147E+02  0.7818608E-02  0.1301784E+00
          2   -1    0    0  502    0  0.00000000000E+00  0.00000000000E+00  0.57643581650E+03  0.57643581650E+03  0.00000000000E+00 0. -1.
          1   -1    0    0  501    0 -0.00000000000E+00 -0.00000000000E+00 -0.28448234485E+03  0.28448234485E+03  0.00000000000E+00 0. -1.
         25    2    1    2    0    0 -0.30973974806E+02 -0.61591552007E+02  0.82518052985E+01  0.14299021310E+03  0.12500080943E+03 0.  0.
          2    1    1    2  501    0  0.89098165851E+02 -0.13364369351E+02 -0.20298681295E+03  0.22208272278E+03  0.00000000000E+00 0. -1.
          1    1    1    2  502    0 -0.58124191045E+02  0.74955921358E+02  0.48668847931E+03  0.49584522547E+03  0.00000000000E+00 0. -1.
         22    1    3    3    0    0  0.16085077312E+02 -0.50700557696E+02 -0.46020368900E+02  0.70335983796E+02  0.00000000000E+00 0. -1.
         22    1    3    3    0    0 -0.47059052118E+02 -0.10890994311E+02  0.54272174199E+02  0.72654229303E+02  0.00000000000E+00 0. -1.
</event>
<event>
 7    1  0.7118985E-006  0.9459428E+02  0.7818608E-02  0.1376501E+00
          2   -1    0    0  502    0  0.00000000000E+00  0.00000000000E+00  0.51630838668E+03  0.51630838668E+03  0.00000000000E+00 0. -1.
          1   -1    0    0  501    0 -0.00000000000E+00 -0.00000000000E+00 -0.52011727630E+03  0.52011727630E+03  0.00000000000E+00 0. -1.
         25    2    1    2    0    0 -0.10798775407E+03 -0.53005558426E+02  0.82640675509E+02  0.19215687290E+03  0.12499535311E+03 0.  0.
          2    1    1    2  501    0  0.43249578152E+02 -0.13152896486E+02 -0.45857814161E+03  0.46080086443E+03  0.00000000000E+00 0. -1.
          1    1    1    2  502    0  0.64738175922E+02  0.66158454911E+02  0.37212857647E+03  0.38346792565E+03  0.00000000000E+00 0. -1.
         22    1    3    3    0    0 -0.63953569098E+02  0.79759396257E+01  0.96133558454E+02  0.11573822046E+03  0.00000000000E+00 0. -1.
         22    1    3    3    0    0 -0.44034184976E+02 -0.60981498051E+02 -0.13492882946E+02  0.76418652443E+02  0.00000000000E+00 0. -1.
</event>
<event>
 7    1  0.7118985E-006  0.1458571E+03  0.7818608E-02  0.1410664E+00
          2   -1    0    0  502    0  0.00000000000E+00  0.00000000000E+00  0.28009121629E+03  0.28009121629E+03  0.00000000000E+00 0. -1.
          1   -1    0    0  501    0 -0.00000000000E+00 -0.00000000000E+00 -0.65312490977E+03  0.65312490977E+03  0.00000000000E+00 0. -1.
         25    2    1    2    0    0  0.14383337182E+03 -0.40849869013E+02  0.66990157308E+02  0.20607853292E+03  0.12499571957E+03 0.  0.
          2    1    1    2  501    0 -0.13270512866E+03  0.60187711853E+02 -0.57354455171E+03  0.59176563320E+03  0.00000000000E+00 0. -1.
          1    1    1    2  502    0 -0.11128243156E+02 -0.19337842840E+02  0.13352070093E+03  0.13537195994E+03  0.00000000000E+00 0. -1.
         22    1    3    3    0    0  0.14477532008E+03  0.16797960176E+01  0.26189035724E+02  0.14713456634E+03  0.00000000000E+00 0. -1.
         22    1    3    3    0    0 -0.94194826829E+00 -0.42529665031E+02  0.40801121584E+02  0.58943966584E+02  0.00000000000E+00 0. -1.
</event>
<event>
 7    1  0.7118985E-006  0.8325968E+02  0.7818608E-02  0.1372653E+00
          2   -1    0    0  502    0  0.00000000000E+00  0.00000000000E+00  0.49515146256E+03  0.49515146256E+03  0.00000000000E+00 0. -1.
          1   -1    0    0  501    0 -0.00000000000E+00 -0.00000000000E+00 -0.12910748326E+04  0.12910748326E+04  0.00000000000E+00 0. -1.
         25    2    1    2    0    0  0.23371996946E+02  0.79655462939E+02  0.13510478465E+02  0.15066111696E+03  0.12499998447E+03 0.  0.
          2    1    1    2  501    0  0.44184498850E+02 -0.29288787668E+02 -0.12176192610E+04  0.12187726482E+04  0.00000000000E+00 0. -1.
          1    1    1    2  502    0 -0.67556495795E+02 -0.50366675270E+02  0.40818541253E+03  0.41679253005E+03  0.00000000000E+00 0. -1.
         22    1    3    3    0    0  0.57592302962E+02  0.41098275005E+02  0.50744138636E+02  0.87068416632E+02  0.00000000000E+00 0.  1.
         22    1    3    3    0    0 -0.34220306017E+02  0.38557187934E+02 -0.37233660171E+02  0.63592700328E+02  0.00000000000E+00 0.  1.
</event>
<event>
 7    1  0.7118985E-006  0.7116246E+02  0.7818608E-02  0.1383788E+00
          2   -1    0    0  502    0  0.00000000000E+00  0.00000000000E+00  0.24411657245E+02  0.24411657245E+02  0.00000000000E+00 0. -1.
          1   -1    0    0  501    0 -0.00000000000E+00 -0.00000000000E+00 -0.18123959422E+04  0.18123959422E+04  0.00000000000E+00 0. -1.
         25    2    1    2    0    0 -0.11689895317E+03 -0.37928504900E+02 -0.86527345802E+03  0.88285175340E+03  0.12500049838E+03 0.  0.
          2    1    1    2  501    0  0.55227571045E+02  0.12499279920E+02 -0.86168907753E+03  0.86354755685E+03  0.00000000000E+00 0. -1.
          1    1    1    2  502    0  0.61671382126E+02  0.25429224980E+02 -0.61021749432E+02  0.90408289222E+02  0.00000000000E+00 0. -1.
         22    1    3    3    0    0 -0.11309753392E+03  0.33702170198E+01 -0.39886649514E+03  0.41460450008E+03  0.00000000000E+00 0. -1.
         22    1    3    3    0    0 -0.38014192485E+01 -0.41298721920E+02 -0.46640696288E+03  0.46824725333E+03  0.00000000000E+00 0. -1.
</event>
<event>
 7    1  0.7118985E-006  0.9099737E+02  0.7818608E-02  0.1356264E+00
          2   -1    0    0  502    0  0.00000000000E+00  0.00000000000E+00  0.20229831656E+03  0.20229831656E+03  0.00000000000E+00 0. -1.
          1   -1    0    0  501    0 -0.00000000000E+00 -0.00000000000E+00 -0.27140187179E+03  0.27140187179E+03  0.00000000000E+00 0. -1.
         25    2    1    2    0    0 -0.43402235763E+02 -0.91368936467E+02  0.43773424012E+02  0.16665390329E+03  0.12500149683E+03 0.  0.
          2    1    1    2  501    0 -0.34696812758E+02  0.43462177366E+02 -0.18325932324E+03  0.19151190363E+03  0.00000000000E+00 0. -1.
          1    1    1    2  502    0  0.78099048522E+02  0.47906759102E+02  0.70382343994E+02  0.11553438144E+03  0.00000000000E+00 0. -1.
         22    1    3    3    0    0  0.73512401334E+01  0.29079899371E+02  0.58681506348E+01  0.30563319041E+02  0.00000000000E+00 0.  1.
         22    1    3    3    0    0 -0.50753475897E+02 -0.12044883584E+03  0.37905273377E+02  0.13609058425E+03  0.00000000000E+00 0.  1.
</event>
<event>
 7    1  0.8039895E-006  0.7974765E+02  0.7818608E-02  0.1391175E+00
          2   -1    0    0  502    0  0.00000000000E+00  0.00000000000E+00  0.83294610528E+03  0.83294610528E+03  0.00000000000E+00 0. -1.
          1   -1    0    0  501    0 -0.00000000000E+00 -0.00000000000E+00 -0.77195634930E+03  0.77195634930E+03  0.00000000000E+00 0. -1.
         25    2    1    2    0    0 -0.79959266595E+02  0.54966746410E+02 -0.12908936940E+03  0.20421586624E+03  0.12500090881E+03 0.  0.
          2    1    1    2  501    0  0.78997003012E+02 -0.73704252188E+01 -0.60198610589E+03  0.60719199710E+03  0.00000000000E+00 0. -1.
          1    1    1    2  502    0  0.96226358362E+00 -0.47596321191E+02  0.79206523127E+03  0.79349459125E+03  0.00000000000E+00 0. -1.
         22    1    3    3    0    0 -0.53201310978E+02  0.20634486873E+02 -0.14658744309E+03  0.15730238399E+03  0.00000000000E+00 0.  1.
         22    1    3    3    0    0 -0.26757955617E+02  0.34332259537E+02  0.17498073683E+02  0.46913482245E+02  0.00000000000E+00 0.  1.
</event>
<event>
 7    1  0.7118985E-006  0.1888512E+03  0.7818608E-02  0.1217526E+00
          2   -1    0    0  502    0  0.00000000000E+00  0.00000000000E+00  0.28898050094E+04  0.28898050094E+04  0.00000000000E+00 0. -1.
          1   -1    0    0  501    0 -0.00000000000E+00 -0.00000000000E+00 -0.62845972410E+03  0.62845972410E+03  0.00000000000E+00 0. -1.
         25    2    1    2    0    0 -0.13754268012E+03  0.44828086685E+02  0.89666763816E+03  0.91682296203E+03  0.12499577663E+03 0.  0.
          2    1    1    2  501    0 -0.81957104463E+02 -0.56028648351E+02 -0.60825552091E+03  0.61630427154E+03  0.00000000000E+00 0. -1.
          1    1    1    2  502    0  0.21949978459E+03  0.11200561666E+02  0.19729331680E+04  0.19851374999E+04  0.00000000000E+00 0. -1.
         22    1    3    3    0    0  0.23842103188E+02  0.13523953552E+01  0.12532044162E+03  0.12757542062E+03  0.00000000000E+00 0. -1.
         22    1    3    3    0    0 -0.16138478331E+03  0.43475691329E+02  0.77134719654E+03  0.78924754141E+03  0.00000000000E+00 0. -1.
</event>
<event>
 7    1  0.7118985E-006  0.9358073E+02  0.7818608E-02  0.1331036E+00
          2   -1    0    0  502    0  0.00000000000E+00  0.00000000000E+00  0.16003315019E+04  0.16003315019E+04  0.00000000000E+00 0. -1.
          1   -1    0    0  501    0 -0.00000000000E+00 -0.00000000000E+00 -0.14859130165E+03  0.14859130165E+03  0.00000000000E+00 0. -1.
         25    2    1    2    0    0  0.93830900739E+02  0.37019138614E+02  0.10946731906E+04  0.11063946992E+04  0.12500072713E+03 0.  0.
          2    1    1    2  501    0 -0.44453380537E+02 -0.82610414791E+02 -0.12472738865E+03  0.15606891155E+03  0.00000000000E+00 0. -1.
          1    1    1    2  502    0 -0.49377520202E+02  0.45591276178E+02  0.48179439828E+03  0.48645919272E+03  0.00000000000E+00 0. -1.
         22    1    3    3    0    0  0.67582238594E+02 -0.40045826794E+02  0.48774775844E+03  0.49403330159E+03  0.00000000000E+00 0.  1.
         22    1    3    3    0    0  0.26248662145E+02  0.77064965407E+02  0.60692543213E+03  0.61236139765E+03  0.00000000000E+00 0.  1.
</event>
<event>
 7    1  0.7118985E-006  0.3413260E+02  0.7818608E-02  0.1578463E+00
          2   -1    0    0  502    0  0.00000000000E+00  0.00000000000E+00  0.16827708583E+04  0.16827708583E+04  0.00000000000E+00 0. -1.
          1   -1    0    0  501    0 -0.00000000000E+00 -0.00000000000E+00 -0.20059877081E+03  0.20059877081E+03  0.00000000000E+00 0. -1.
         25    2    1    2    0    0 -0.34063584582E+02 -0.50013957896E+01  0.73073563281E+03  0.74214848266E+03  0.12499785396E+03 0.  0.
          2    1    1    2  501    0  0.24976454135E+02 -0.23301592059E+02 -0.19316003264E+03  0.19615704337E+03  0.00000000000E+00 0. -1.
          1    1    1    2  502    0  0.90871304470E+01  0.28302987849E+02  0.94459648737E+03  0.94506410313E+03  0.00000000000E+00 0. -1.
         22    1    3    3    0    0 -0.33666541253E+02  0.36182946829E+02  0.64646667372E+03  0.64835314596E+03  0.00000000000E+00 0.  1.
         22    1    3    3    0    0 -0.39704332942E+00 -0.41184342619E+02  0.84268959086E+02  0.93795336695E+02  0.00000000000E+00 0.  1.
</event>
<event>
 7    1  0.7118985E-006  0.7508689E+02  0.7818608E-02  0.1436442E+00
          2   -1    0    0  502    0  0.00000000000E+00  0.00000000000E+00  0.13325329559E+03  0.13325329559E+03  0.00000000000E+00 0. -1.
          1   -1    0    0  501    0 -0.00000000000E+00 -0.00000000000E+00 -0.53568303986E+03  0.53568303986E+03  0.00000000000E+00 0. -1.
         25    2    1    2    0    0 -0.10538437339E+02 -0.95620608772E+02  0.59970949390E+02  0.16874922457E+03  0.12500170615E+03 0.  0.
          2    1    1    2  501    0 -0.16733440173E+02  0.72767335497E+02 -0.45833182831E+03  0.46437394197E+03  0.00000000000E+00 0. -1.
          1    1    1    2  502    0  0.27271877513E+02  0.22853273275E+02 -0.40688653482E+01  0.35813168914E+02  0.00000000000E+00 0. -1.
         22    1    3    3    0    0 -0.63459894421E+01 -0.12012573457E+03  0.20391390057E+02  0.12200931307E+03  0.00000000000E+00 0. -1.
         22    1    3    3    0    0 -0.41924478974E+01  0.24505125799E+02  0.39579559333E+02  0.46739911498E+02  0.00000000000E+00 0. -1.
</event>
<event>
 7    1  0.7118985E-006  0.1732912E+03  0.7818608E-02  0.1337625E+00
          2   -1    0    0  502    0  0.00000000000E+00  0.00000000000E+00  0.14297286685E+04  0.14297286685E+04  0.00000000000E+00 0. -1.
          1   -1    0    0  501    0 -0.00000000000E+00 -0.00000000000E+00 -0.37703692879E+03  0.37703692879E+03  0.00000000000E+00 0. -1.
         25    2    1    2    0    0 -0.11188589393E+03  0.12224462149E+03 -0.14399152661E+03  0.25262604491E+03  0.12499663231E+03 0.  0.
          2    1    1    2  501    0  0.14380513046E+03 -0.10979218891E+03 -0.13266304215E+03  0.22435178414E+03  0.00000000000E+00 0. -1.
          1    1    1    2  502    0 -0.31919236532E+02 -0.12452432573E+02  0.13293463084E+04  0.13297877682E+04  0.00000000000E+00 0. -1.
         22    1    3    3    0    0 -0.42792941495E+02  0.53573106000E+02 -0.13910902665E+03  0.15508911897E+03  0.00000000000E+00 0.  1.
         22    1    3    3    0    0 -0.69092952436E+02  0.68671515485E+02 -0.48824999599E+01  0.97536925937E+02  0.00000000000E+00 0.  1.
</event>
<event>
 7    1  0.7118985E-006  0.6704099E+02  0.7818608E-02  0.1381033E+00
          2   -1    0    0  502    0  0.00000000000E+00  0.00000000000E+00  0.63471736418E+03  0.63471736418E+03  0.00000000000E+00 0. -1.
          1   -1    0    0  501    0 -0.00000000000E+00 -0.00000000000E+00 -0.62010993627E+03  0.62010993627E+03  0.00000000000E+00 0. -1.
         25    2    1    2    0    0  0.12393871064E+03 -0.30486377577E+02  0.20241547195E+03  0.26998087879E+03  0.12500971328E+03 0.  0.
          2    1    1    2  501    0 -0.65640687078E+02  0.11007984141E+02 -0.58204930705E+03  0.58584236050E+03  0.00000000000E+00 0. -1.
          1    1    1    2  502    0 -0.58298023560E+02  0.19478393436E+02  0.39424126301E+03  0.39900406116E+03  0.00000000000E+00 0. -1.
         22    1    3    3    0    0 -0.11597774644E+02 -0.32220166775E+02  0.81254752153E+02  0.88175859912E+02  0.00000000000E+00 0. -1.
         22    1    3    3    0    0  0.13553648528E+03  0.17337891980E+01  0.12116071980E+03  0.18180501888E+03  0.00000000000E+00 0. -1.
</event>
<event>
 7    1  0.7118985E-006  0.4364431E+02  0.7818608E-02  0.1489740E+00
          2   -1    0    0  502    0  0.00000000000E+00  0.00000000000E+00  0.36669403405E+03  0.36669403405E+03  0.00000000000E+00 0. -1.
          1   -1    0    0  501    0 -0.00000000000E+00 -0.00000000000E+00 -0.10299179651E+04  0.10299179651E+04  0.00000000000E+00 0. -1.
         25    2    1    2    0    0 -0.62631914845E+02  0.52065580657E+02 -0.37053146788E+03  0.39944040658E+03  0.12500195309E+03 0.  0.
          2    1    1    2  501    0  0.37431189483E+02 -0.18931532318E+02 -0.64301633852E+03  0.64438304483E+03  0.00000000000E+00 0. -1.
          1    1    1    2  502    0  0.25200725362E+02 -0.33134048339E+02  0.35032387539E+03  0.35278854770E+03  0.00000000000E+00 0. -1.
         22    1    3    3    0    0 -0.89567445056E+02 -0.87795793290E+00 -0.21202130135E+03  0.23016544105E+03  0.00000000000E+00 0. -1.
         22    1    3    3    0    0  0.26935530211E+02  0.52943538589E+02 -0.15851016652E+03  0.16927496554E+03  0.00000000000E+00 0. -1.
</event>
<event>
 7    1  0.7118985E-006  0.2038456E+03  0.7818608E-02  0.1245446E+00
          2   -1    0    0  502    0  0.00000000000E+00  0.00000000000E+00  0.11902588990E+04  0.11902588990E+04  0.00000000000E+00 0. -1.
          1   -1    0    0  501    0 -0.00000000000E+00 -0.00000000000E+00 -0.13484794645E+04  0.13484794645E+04  0.00000000000E+00 0. -1.
         25    2    1    2    0    0 -0.59926683611E+02  0.19268147813E+03 -0.38930782323E+03  0.45596334401E+03  0.12499852169E+03 0.  0.
          2    1    1    2  501    0 -0.74698196536E+01 -0.20741642757E+03 -0.91315998021E+03  0.93644995706E+03  0.00000000000E+00 0. -1.
          1    1    1    2  502    0  0.67396503264E+02  0.14734949439E+02  0.11442472379E+04  0.11463250625E+04  0.00000000000E+00 0. -1.
         22    1    3    3    0    0 -0.27751646763E+02  0.13359160251E+02 -0.16077261062E+03  0.16369622288E+03  0.00000000000E+00 0. -1.
         22    1    3    3    0    0 -0.32175036848E+02  0.17932231788E+03 -0.22853521261E+03  0.29226712112E+03  0.00000000000E+00 0. -1.
</event>
<event>
 7    1  0.7118985E-006  0.5186867E+02  0.7818608E-02  0.1446495E+00
          2   -1    0    0  502    0  0.00000000000E+00  0.00000000000E+00  0.16455314777E+03  0.16455314777E+03  0.00000000000E+00 0. -1.
          1   -1    0    0  501    0 -0.00000000000E+00 -0.00000000000E+00 -0.26122992974E+03  0.26122992974E+03  0.00000000000E+00 0. -1.
         25    2    1    2    0    0  0.94586058665E+01 -0.19465759278E+02  0.20809677994E+02  0.12855153676E+03  0.12499629553E+03 0.  0.
          2    1    1    2  501    0  0.31881432291E+02  0.43439431985E+02 -0.19712410338E+03  0.20435587124E+03  0.00000000000E+00 0. -1.
          1    1    1    2  502    0 -0.41340038157E+02 -0.23973672707E+02  0.79637643411E+02  0.92875669505E+02  0.00000000000E+00 0. -1.
         22    1    3    3    0    0  0.64155149190E+02 -0.17761361800E+02 -0.74120716073E+01  0.66979757734E+02  0.00000000000E+00 0. -1.
         22    1    3    3    0    0 -0.54696543324E+02 -0.17043974783E+01  0.28221749601E+02  0.61571779030E+02  0.00000000000E+00 0. -1.
</event>
<event>
 7    1  0.7118985E-006  0.1554730E+03  0.7818608E-02  0.1238493E+00
          2   -1    0    0  502    0  0.00000000000E+00  0.00000000000E+00  0.12181219246E+04  0.12181219246E+04  0.00000000000E+00 0. -1.
          1   -1    0    0  501    0 -0.00000000000E+00 -0.00000000000E+00 -0.15986310443E+04  0.15986310443E+04  0.00000000000E+00 0. -1.
         25    2    1    2    0    0 -0.34592838936E+02 -0.52648936055E+02  0.70696049220E+03  0.72068561007E+03  0.12500414416E+03 0.  0.
          2    1    1    2  501    0 -0.12466067303E+03 -0.92906305767E+02 -0.15646625656E+04  0.15723678988E+04  0.00000000000E+00 0. -1.
          1    1    1    2  502    0  0.15925351196E+03  0.14555524182E+03  0.47719295365E+03  0.52369946010E+03  0.00000000000E+00 0. -1.
         22    1    3    3    0    0 -0.36430161484E+02  0.23524628911E+02  0.10049547858E+03  0.10945275715E+03  0.00000000000E+00 0. -1.
         22    1    3    3    0    0  0.18373225480E+01 -0.76173564966E+02  0.60646501362E+03  0.61123285292E+03  0.00000000000E+00 0. -1.
</event>
<event>
 7    1  0.7118985E-006  0.5459498E+02  0.7818608E-02  0.1440641E+00
          2   -1    0    0  502    0  0.00000000000E+00  0.00000000000E+00  0.16382256225E+03  0.16382256225E+03  0.00000000000E+00 0. -1.
          1   -1    0    0  501    0 -0.00000000000E+00 -0.00000000000E+00 -0.77784117240E+03  0.77784117240E+03  0.00000000000E+00 0. -1.
         25    2    1    2    0    0 -0.70377521405E+02 -0.66512405787E+02 -0.41203180109E+03  0.44133026490E+03  0.12500120782E+03 0.  0.
          2    1    1    2  501    0  0.34411867248E+02  0.35604597813E+02 -0.34558150385E+03  0.34911092764E+03  0.00000000000E+00 0. -1.
          1    1    1    2  502    0  0.35965654158E+02  0.30907807974E+02  0.14359469479E+03  0.15122254212E+03  0.00000000000E+00 0. -1.
         22    1    3    3    0    0 -0.52223972604E+02 -0.78193782233E+02 -0.14122670116E+03  0.16966611923E+03  0.00000000000E+00 0.  1.
         22    1    3    3    0    0 -0.18153548802E+02  0.11681376446E+02 -0.27080509993E+03  0.27166414566E+03  0.00000000000E+00 0.  1.
</event>
<event>
 7    1  0.7118985E-006  0.1055247E+03  0.7818608E-02  0.1356224E+00
          2   -1    0    0  502    0  0.00000000000E+00  0.00000000000E+00  0.31533307420E+03  0.31533307420E+03  0.00000000000E+00 0. -1.
          1   -1    0    0  501    0 -0.00000000000E+00 -0.00000000000E+00 -0.27938762957E+04  0.27938762957E+04  0.00000000000E+00 0. -1.
         25    2    1    2    0    0  0.22033115379E+02  0.89402048766E+02 -0.88627344850E+02  0.17875708117E+03  0.12498441229E+03 0.  0.
          2    1    1    2  501    0  0.23868443974E+02 -0.10334866316E+03 -0.26569886782E+04  0.26591050158E+04  0.00000000000E+00 0. -1.
          1    1    1    2  502    0 -0.45901559352E+02  0.13946614389E+02  0.26707280156E+03  0.27134727295E+03  0.00000000000E+00 0. -1.
         22    1    3    3    0    0  0.50717817664E+02  0.66394999527E+02 -0.10851437607E+03  0.13695241073E+03  0.00000000000E+00 0. -1.
         22    1    3    3    0    0 -0.28684702285E+02  0.23007049239E+02  0.19887031220E+02  0.41804670440E+02  0.00000000000E+00 0. -1.
</event>
<event>
 7    1  0.7118985E-006  0.1453483E+03  0.7818608E-02  0.1321249E+00
          2   -1    0    0  502    0  0.00000000000E+00  0.00000000000E+00  0.15192042283E+04  0.15192042283E+04  0.00000000000E+00 0. -1.
          1   -1    0    0  501    0 -0.00000000000E+00 -0.00000000000E+00 -0.10263495350E+03  0.10263495350E+03  0.00000000000E+00 0. -1.
         25    2    1    2    0    0 -0.58999663612E+01  0.18956568528E+03  0.94636302286E+03  0.97324310685E+03  0.12501686031E+03 0.  0.
          2    1    1    2  501    0  0.83103115596E+01 -0.14244253152E+03 -0.30303429698E+02  0.14586717902E+03  0.00000000000E+00 0. -1.
          1    1    1    2  502    0 -0.24103451983E+01 -0.47123153756E+02  0.50050968161E+03  0.50272889589E+03  0.00000000000E+00 0. -1.
         22    1    3    3    0    0 -0.44463438378E+02  0.19736600938E+02  0.13771310383E+03  0.14605283200E+03  0.00000000000E+00 0.  1.
         22    1    3    3    0    0  0.38563472017E+02  0.16982908434E+03  0.80864991903E+03  0.82719027485E+03  0.00000000000E+00 0.  1.
</event>
<event>
 7    1  0.7118985E-006  0.1159026E+03  0.7818608E-02  0.1335924E+00
          2   -1    0    0  502    0  0.00000000000E+00  0.00000000000E+00  0.61564843671E+02  0.61564843671E+02  0.00000000000E+00 0. -1.
          1   -1    0    0  501    0 -0.00000000000E+00 -0.00000000000E+00 -0.10285154446E+04  0.10285154446E+04  0.00000000000E+00 0. -1.
         25    2    1    2    0    0  0.15432361607E+03 -0.52502636605E+02 -0.71878729272E+03  0.74756422202E+03  0.12499915414E+03 0.  0.
          2    1    1    2  501    0 -0.47288467627E+02  0.21607802590E+02 -0.22209868315E+03  0.22810287451E+03  0.00000000000E+00 0. -1.
          1    1    1    2  502    0 -0.10703514844E+03  0.30894834015E+02 -0.26064625085E+02  0.11441319177E+03  0.00000000000E+00 0. -1.
         22    1    3    3    0    0  0.19659040831E+02  0.38260775761E+02 -0.15308197939E+03  0.15901087153E+03  0.00000000000E+00 0. -1.
         22    1    3    3    0    0  0.13466457524E+03 -0.90763412365E+02 -0.56570531333E+03  0.58855335049E+03  0.00000000000E+00 0. -1.
</event>
<event>
 7    1  0.7118985E-006  0.1171033E+03  0.7818608E-02  0.1342088E+00
          2   -1    0    0  502    0  0.00000000000E+00  0.00000000000E+00  0.90416330362E+03  0.90416330362E+03  0.00000000000E+00 0. -1.
          1   -1    0    0  501    0 -0.00000000000E+00 -0.00000000000E+00 -0.38650674647E+03  0.38650674647E+03  0.00000000000E+00 0. -1.
         25    2    1    2    0    0 -0.60029876797E+02  0.44670037028E+02  0.15468716281E+03  0.21250073800E+03  0.12501778672E+03 0.  0.
          2    1    1    2  501    0  0.10851295494E+03 -0.50033079574E+02 -0.34675731068E+03  0.36676832326E+03  0.00000000000E+00 0. -1.
          1    1    1    2  502    0 -0.48483078146E+02  0.53630425463E+01  0.70972670501E+03  0.71140098882E+03  0.00000000000E+00 0. -1.
         22    1    3    3    0    0 -0.83173916828E+02  0.68616299431E+02  0.13835544787E+03  0.17540902754E+03  0.00000000000E+00 0. -1.
         22    1    3    3    0    0  0.23144040030E+02 -0.23946262403E+02  0.16331714939E+02  0.37091710460E+02  0.00000000000E+00 0. -1.
</event>
<event>
 7    1  0.7118985E-006  0.1377496E+03  0.7818608E-02  0.1333153E+00
          2   -1    0    0  502    0  0.00000000000E+00  0.00000000000E+00  0.42237206139E+03  0.42237206139E+03  0.00000000000E+00 0. -1.
          1   -1    0    0  501    0 -0.00000000000E+00 -0.00000000000E+00 -0.31733706103E+04  0.31733706103E+04  0.00000000000E+00 0. -1.
         25    2    1    2    0    0  0.15934325968E+03  0.37501644469E+02 -0.80373128652E+02  0.22109024945E+03  0.12499764338E+03 0.  0.
          2    1    1    2  501    0 -0.13726938500E+03  0.15028747877E+01 -0.30196466543E+04  0.30227654655E+04  0.00000000000E+00 0. -1.
          1    1    1    2  502    0 -0.22073874685E+02 -0.39004519256E+02  0.34902123407E+03  0.35188695670E+03  0.00000000000E+00 0. -1.
         22    1    3    3    0    0  0.64010153929E+02  0.69186002636E+01 -0.10012823936E+03  0.11904130020E+03  0.00000000000E+00 0.  1.
         22    1    3    3    0    0  0.95333105752E+02  0.30583044205E+02  0.19755110706E+02  0.10204894926E+03  0.00000000000E+00 0.  1.
</event>
<event>
 7    1  0.7118985E-006  0.4661096E+02  0.7818608E-02  0.1585859E+00
          2   -1    0    0  502    0  0.00000000000E+00  0.00000000000E+00  0.71957458484E+03  0.71957458484E+03  0.00000000000E+00 0. -1.
          1   -1    0    0  501    0 -0.00000000000E+00 -0.00000000000E+00 -0.63005779419E+03  0.63005779419E+03  0.00000000000E+00 0. -1.
         25    2    1    2    0    0  0.35331863311E+02  0.57304127846E+02  0.48236590773E+03  0.50282282561E+03  0.12498728486E+03 0.  0.
          2    1    1    2  501    0 -0.23391918606E+02 -0.40273729019E+02 -0.61847544466E+03  0.62022659629E+03  0.00000000000E+00 0. -1.
          1    1    1    2  502    0 -0.11939944706E+02 -0.17030398826E+02  0.22562632758E+03  0.22658295713E+03  0.00000000000E+00 0. -1.
         22    1    3    3    0    0  0.62772137226E+01 -0.20382884957E+02  0.31800822748E+03  0.31872260378E+03  0.00000000000E+00 0.  1.
         22    1    3    3    0    0  0.29054649589E+02  0.77687012803E+02  0.16435768025E+03  0.18410022183E+03  0.00000000000E+00 0.  1.
</event>
<event>
 7    1  0.7118985E-006  0.8727065E+02  0.7818608E-02  0.1431233E+00
          2   -1    0    0  502    0  0.00000000000E+00  0.00000000000E+00  0.11127547196E+03  0.11127547196E+03  0.00000000000E+00 0. -1.
          1   -1    0    0  501    0 -0.00000000000E+00 -0.00000000000E+00 -0.30143390849E+03  0.30143390849E+03  0.00000000000E+00 0. -1.
         25    2    1    2    0    0 -0.65857237258E+02  0.19150752622E+02 -0.14162194022E+03  0.20096195964E+03  0.12500003298E+03 0.  0.
          2    1    1    2  501    0 -0.99670014695E+01  0.30239636498E+02 -0.10185531364E+03  0.10671589222E+03  0.00000000000E+00 0. -1.
          1    1    1    2  502    0  0.75824238727E+02 -0.49390389120E+02  0.53318817342E+02  0.10503152859E+03  0.00000000000E+00 0. -1.
         22    1    3    3    0    0 -0.18424961272E+02  0.65050936084E+02 -0.10662308082E+03  0.12625206869E+03  0.00000000000E+00 0.  1.
         22    1    3    3    0    0 -0.47432275985E+02 -0.45900183461E+02 -0.34998859400E+02  0.74709890953E+02  0.00000000000E+00 0.  1.
</event>
<event>
 7    1  0.7118985E-006  0.8637715E+02  0.7818608E-02  0.1326294E+00
          2   -1    0    0  502    0  0.00000000000E+00  0.00000000000E+00  0.24456163446E+03  0.24456163446E+03  0.00000000000E+00 0. -1.
          1   -1    0    0  501    0 -0.00000000000E+00 -0.00000000000E+00 -0.16005706352E+03  0.16005706352E+03  0.00000000000E+00 0. -1.
         25    2    1    2    0    0  0.28925722364E+02  0.19906011680E+02  0.17308477392E+02  0.13100935645E+03  0.12502368324E+03 0.  0.
          2    1    1    2  501    0  0.13450409963E+02 -0.95174039755E+02 -0.64757121195E+02  0.11589864588E+03  0.00000000000E+00 0. -1.
          1    1    1    2  502    0 -0.42376132327E+02  0.75268028075E+02  0.13195321474E+03  0.15771069565E+03  0.00000000000E+00 0. -1.
         22    1    3    3    0    0  0.73270371124E+02 -0.11526442688E+02  0.70367500897E+00  0.74174802489E+02  0.00000000000E+00 0. -1.
         22    1    3    3    0    0 -0.44344648760E+02  0.31432454368E+02  0.16604802383E+02  0.56834553957E+02  0.00000000000E+00 0. -1.
</event>
<event>
 7    1  0.1595760E-005  0.6472723E+02  0.7818608E-02  0.1412357E+00
          2   -1    0    0  502    0  0.00000000000E+00  0.00000000000E+00  0.21388537036E+04  0.21388537036E+04  0.00000000000E+00 0. -1.
          1   -1    0    0  501    0 -0.00000000000E+00 -0.00000000000E+00 -0.10608328305E+04  0.10608328305E+04  0.00000000000E+00 0. -1.
         25    2    1    2    0    0 -0.14504703102E+02 -0.96208505711E+01 -0.27043982381E+03  0.29843960798E+03  0.12500221651E+03 0.  0.
          2    1    1    2  501    0 -0.19124912258E+02 -0.45783940211E+02 -0.77510545127E+03  0.77669195440E+03  0.00000000000E+00 0. -1.
          1    1    1    2  502    0  0.33629615360E+02  0.55404790782E+02  0.21235661483E+04  0.21245549717E+04  0.00000000000E+00 0. -1.
         22    1    3    3    0    0  0.40896449402E+02 -0.10962880983E+02 -0.30496699607E+02  0.52180005942E+02  0.00000000000E+00 0. -1.
         22    1    3    3    0    0 -0.55401152504E+02  0.13420304123E+01 -0.23994312420E+03  0.24625960204E+03  0.00000000000E+00 0. -1.
</event>
<event>
 7    1  0.7118985E-006  0.2182796E+03  0.7818608E-02  0.1229319E+00
          2   -1    0    0  502    0  0.00000000000E+00  0.00000000000E+00  0.11154238932E+04  0.11154238932E+04  0.00000000000E+00 0. -1.
          1   -1    0    0  501    0 -0.00000000000E+00 -0.00000000000E+00 -0.90305990504E+03  0.90305990504E+03  0.00000000000E+00 0. -1.
         25    2    1    2    0    0  0.26864829859E+03  0.39770348733E+01  0.56188722767E+02  0.30161195198E+03  0.12499948748E+03 0.  0.
          2    1    1    2  501    0 -0.20859384886E+03 -0.50463760834E+02 -0.76399875157E+03  0.79356920135E+03  0.00000000000E+00 0. -1.
          1    1    1    2  502    0 -0.60054449735E+02  0.46486725960E+02  0.92017401697E+03  0.92330264493E+03  0.00000000000E+00 0. -1.
         22    1    3    3    0    0  0.15016942948E+03  0.45228545228E+02  0.76546527486E+02  0.17451604432E+03  0.00000000000E+00 0.  1.
         22    1    3    3    0    0  0.11847886911E+03 -0.41251510355E+02 -0.20357804719E+02  0.12709590767E+03  0.00000000000E+00 0.  1.
</event>
<event>
 7    1  0.8317703E-006  0.8846403E+02  0.7818608E-02  0.1339055E+00
          2   -1    0    0  502    0  0.00000000000E+00  0.00000000000E+00  0.86950903133E+03  0.86950903133E+03  0.00000000000E+00 0. -1.
          1   -1    0    0  501    0 -0.00000000000E+00 -0.00000000000E+00 -0.28020213234E+04  0.28020213234E+04  0.00000000000E+00 0. -1.
         25    2    1    2    0    0 -0.25702658322E+02 -0.19471376115E+02 -0.21067037246E+03  0.24707553935E+03  0.12499822071E+03 0.  0.
          2    1    1    2  501    0  0.90880703695E+02  0.73940794494E+01 -0.25710485918E+04  0.25726649289E+04  0.00000000000E+00 0. -1.
          1    1    1    2  502    0 -0.65178045372E+02  0.12077296665E+02  0.84920667219E+03  0.85178988652E+03  0.00000000000E+00 0. -1.
         22    1    3    3    0    0 -0.20012452021E+02 -0.68007096396E+02 -0.16744627668E+03  0.18183431736E+03  0.00000000000E+00 0.  1.
         22    1    3    3    0    0 -0.56902063013E+01  0.48535720282E+02 -0.43224095777E+02  0.65241221990E+02  0.00000000000E+00 0.  1.
</event>
<event>
 7    1  0.7118985E-006  0.2178735E+03  0.7818608E-02  0.1168792E+00
          2   -1    0    0  502    0  0.00000000000E+00  0.00000000000E+00  0.13829058553E+04  0.13829058553E+04  0.00000000000E+00 0. -1.
          1   -1    0    0  501    0 -0.00000000000E+00 -0.00000000000E+00 -0.13858811868E+04  0.13858811868E+04  0.00000000000E+00 0. -1.
         25    2    1    2    0    0  0.27612464870E+02 -0.19485605203E+03 -0.65344131480E+00  0.23314536244E+03  0.12500001525E+03 0.  0.
          2    1    1    2  501    0  0.11929751702E+03  0.18886348757E+03 -0.12548170687E+04  0.12745458761E+04  0.00000000000E+00 0. -1.
          1    1    1    2  502    0 -0.14690998189E+03  0.59925644604E+01  0.12524951784E+04  0.12610958035E+04  0.00000000000E+00 0. -1.
         22    1    3    3    0    0  0.37436684865E+02 -0.93986667857E+02 -0.58084982758E+02  0.11665703721E+03  0.00000000000E+00 0. -1.
         22    1    3    3    0    0 -0.98242199951E+01 -0.10086938417E+03  0.57431541443E+02  0.11648832523E+03  0.00000000000E+00 0. -1.
</event>
<event>
 7    1  0.7118985E-006  0.2305166E+03  0.7818608E-02  0.1301398E+00
          2   -1    0    0  502    0  0.00000000000E+00  0.00000000000E+00  0.91673104447E+03  0.91673104447E+03  0.00000000000E+00 0. -1.
          1   -1    0    0  501    0 -0.00000000000E+00 -0.00000000000E+00 -0.12991221573E+04  0.12991221573E+04  0.00000000000E+00 0. -1.
         25    2    1    2    0    0  0.74600987249E+02 -0.25215047105E+03  0.23045185936E+03  0.37131969458E+03  0.12500035501E+03 0.  0.
          2    1    1    2  501    0 -0.75605907600E+02  0.21655362562E+03 -0.12174549072E+04  0.12388737535E+04  0.00000000000E+00 0. -1.
          1    1    1    2  502    0  0.10049203517E+01  0.35596845428E+02  0.60461193502E+03  0.60565975369E+03  0.00000000000E+00 0. -1.
         22    1    3    3    0    0 -0.36564882891E+01 -0.15223867152E+03  0.17731773640E+03  0.23373395700E+03  0.00000000000E+00 0. -1.
         22    1    3    3    0    0  0.78257475538E+02 -0.99911799528E+02  0.53134122953E+02  0.13758573758E+03  0.00000000000E+00 0. -1.
</event>
<event>
 7    1  0.7118985E-006  0.5635339E+02  0.7818608E-02  0.1545756E+00
          2   -1    0    0  502    0  0.00000000000E+00  0.00000000000E+00  0.39189260020E+03  0.39189260020E+03  0.00000000000E+00 0. -1.
          1   -1    0    0  501    0 -0.00000000000E+00 -0.00000000000E+00 -0.10112309487E+04  0.10112309487E+04  0.00000000000E+00 0. -1.
         25    2    1    2    0    0  0.28618233541E+02 -0.62220197917E+02 -0.21581771546E+03  0.25863460608E+03  0.12499686729E+03 0.  0.
          2    1    1    2  501    0 -0.37148141630E+02  0.41789174982E+02 -0.77266288978E+03  0.77468332938E+03  0.00000000000E+00 0. -1.
          1    1    1    2  502    0  0.85299080893E+01  0.20431022936E+02  0.36914225673E+03  0.36980561345E+03  0.00000000000E+00 0. -1.
         22    1    3    3    0    0  0.78507319950E+01  0.57540163735E+01 -0.17773086752E+03  0.17799720213E+03  0.00000000000E+00 0. -1.
         22    1    3    3    0    0  0.20767501546E+02 -0.67974214291E+02 -0.38086847945E+02  0.80637403947E+02  0.00000000000E+00 0. -1.
</event>
<event>
 7    1  0.7118985E-006  0.4275068E+02  0.7818608E-02  0.1535557E+00
          2   -1    0    0  502    0  0.00000000000E+00  0.00000000000E+00  0.31091472498E+04  0.31091472498E+04  0.00000000000E+00 0. -1.
          1   -1    0    0  501    0 -0.00000000000E+00 -0.00000000000E+00 -0.23475370020E+02  0.23475370020E+02  0.00000000000E+00 0. -1.
         25    2    1    2    0    0 -0.13131320560E+02  0.44976820339E+01  0.98197581077E+03  0.98999742032E+03  0.12500295428E+03 0.  0.
          2    1    1    2  501    0  0.43384697269E+02  0.30732548583E+01  0.50931876843E+01  0.43790608734E+02  0.00000000000E+00 0. -1.
          1    1    1    2  502    0 -0.30253376708E+02 -0.75709368922E+01  0.20986028813E+04  0.20988345908E+04  0.00000000000E+00 0. -1.
         22    1    3    3    0    0  0.56173337373E+01 -0.57992218404E+02  0.37084760249E+03  0.37539658510E+03  0.00000000000E+00 0.  1.
         22    1    3    3    0    0 -0.18748654298E+02  0.62489900438E+02  0.61112820828E+03  0.61460083521E+03  0.00000000000E+00 0.  1.
</event>
<event>
 7    1  0.7118985E-006  0.4546346E+02  0.7818608E-02  0.1534481E+00
          2   -1    0    0  502    0  0.00000000000E+00  0.00000000000E+00  0.20084214420E+02  0.20084214420E+02  0.00000000000E+00 0. -1.
          1   -1    0    0  501    0 -0.00000000000E+00 -0.00000000000E+00 -0.12238505559E+04  0.12238505559E+04  0.00000000000E+00 0. -1.
         25    2    1    2    0    0  0.21629274685E+02  0.30672392860E+01 -0.49822891197E+03  0.51413498445E+03  0.12500200013E+03 0.  0.
          2    1    1    2  501    0 -0.40756006037E+02 -0.25569766123E+02 -0.69754788662E+03  0.69920520528E+03  0.00000000000E+00 0. -1.
          1    1    1    2  502    0  0.19126731352E+02  0.22502526837E+02 -0.79895429105E+01  0.30594580602E+02  0.00000000000E+00 0. -1.
         22    1    3    3    0    0 -0.45979356940E+02 -0.45512136397E+01 -0.32077243547E+03  0.32408296803E+03  0.00000000000E+00 0. -1.
         22    1    3    3    0    0  0.67608631625E+02  0.76184529257E+01 -0.17745647650E+03  0.19005201642E+03  0.00000000000E+00 0. -1.
</event>
<event>
 7    1  0.7118985E-006  0.7810433E+02  0.7818608E-02  0.1358394E+00
          2   -1    0    0  502    0  0.00000000000E+00  0.00000000000E+00  0.17658785058E+04  0.17658785058E+04  0.00000000000E+00 0. -1.
          1   -1    0    0  501    0 -0.00000000000E+00 -0.00000000000E+00 -0.76388388912E+02  0.76388388912E+02  0.00000000000E+00 0. -1.
         25    2    1    2    0    0  0.10254858398E+03  0.87218136937E+02  0.41512218392E+03  0.45395456067E+03  0.12500040034E+03 0.  0.
          2    1    1    2  501    0 -0.66462532610E+02 -0.34798195214E+02 -0.31159411042E+02  0.81234792593E+02  0.00000000000E+00 0. -1.
          1    1    1    2  502    0 -0.36086051374E+02 -0.52419941723E+02  0.13055273440E+04  0.13070775414E+04  0.00000000000E+00 0. -1.
         22    1    3    3    0    0  0.10504295677E+03  0.41800071861E+02  0.16681526859E+03  0.20151576268E+03  0.00000000000E+00 0. -1.
         22    1    3    3    0    0 -0.24943727866E+01  0.45418065076E+02  0.24830691533E+03  0.25243879799E+03  0.00000000000E+00 0. -1.
</event>
<event>
 7    1  0.7118985E-006  0.9027471E+03  0.7818608E-02  0.1207022E+00
          2   -1    0    0  502    0  0.00000000000E+00  0.00000000000E+00  0.77249960589E+03  0.77249960589E+03  0.00000000000E+00 0. -1.
          1   -1    0    0  501    0 -0.00000000000E+00 -0.00000000000E+00 -0.17371924110E+04  0.17371924110E+04  0.00000000000E+00 0. -1.
         25    2    1    2    0    0  0.28167480464E+03  0.84904554896E+03 -0.26662998236E+03  0.94177270190E+03  0.12500093908E+03 0.  0.
          2    1    1    2  501    0 -0.12601595011E+02  0.19507088380E+02 -0.65732018385E+03  0.65773030247E+03  0.00000000000E+00 0. -1.
          1    1    1    2  502    0 -0.26907320963E+03 -0.86855263734E+03 -0.40742638945E+02  0.91018901257E+03  0.00000000000E+00 0. -1.
         22    1    3    3    0    0  0.10099435926E+03  0.15991146642E+03 -0.79628167411E+02  0.20521253066E+03  0.00000000000E+00 0. -1.
         22    1    3    3    0    0  0.18068044538E+03  0.68913408254E+03 -0.18700181495E+03  0.73656017124E+03  0.00000000000E+00 0. -1.
</event>
<event>
 7    1  0.7118985E-006  0.9943199E+02  0.7818608E-02  0.1374767E+00
          2   -1    0    0  502    0  0.00000000000E+00  0.00000000000E+00  0.21162129392E+04  0.21162129392E+04  0.00000000000E+00 0. -1.
          1   -1    0    0  501    0 -0.00000000000E+00 -0.00000000000E+00 -0.69756426358E+03  0.69756426358E+03  0.00000000000E+00 0. -1.
         25    2    1    2    0    0 -0.56367726771E+02 -0.82747148360E+02  0.90058924643E+02  0.18374268329E+03  0.12500541017E+03 0.  0.
          2    1    1    2  501    0  0.40708131682E+02 -0.15677763375E+02 -0.64873485503E+03  0.65019985880E+03  0.00000000000E+00 0. -1.
          1    1    1    2  502    0  0.15659595090E+02  0.98424911735E+02  0.19773246060E+04  0.19798346607E+04  0.00000000000E+00 0. -1.
         22    1    3    3    0    0  0.32118671429E+02 -0.56153891488E+02  0.55026580275E+02  0.84928164471E+02  0.00000000000E+00 0.  1.
         22    1    3    3    0    0 -0.88486398200E+02 -0.26593256872E+02  0.35032344368E+02  0.98814518819E+02  0.00000000000E+00 0.  1.
</event>
<event>
 7    1  0.7118985E-006  0.8372486E+02  0.7818608E-02  0.1337857E+00
          2   -1    0    0  502    0  0.00000000000E+00  0.00000000000E+00  0.65664068976E+03  0.65664068976E+03  0.00000000000E+00 0. -1.
          1   -1    0    0  501    0 -0.00000000000E+00 -0.00000000000E+00 -0.32503568973E+03  0.32503568973E+03  0.00000000000E+00 0. -1.
         25    2    1    2    0    0  0.39485752279E+02  0.13703938350E+03  0.10988099793E+02  0.18995899206E+03  0.12499905226E+03 0.  0.
          2    1    1    2  501    0  0.25116598468E+01 -0.80074669178E+02 -0.22639202713E+03  0.24014914330E+03  0.00000000000E+00 0. -1.
          1    1    1    2  502    0 -0.41997412126E+02 -0.56964714318E+02  0.54700892737E+03  0.55156824412E+03  0.00000000000E+00 0. -1.
         22    1    3    3    0    0  0.21128838629E+02  0.11625488332E+03  0.60848129026E+02  0.13290643523E+03  0.00000000000E+00 0.  1.
         22    1    3    3    0    0  0.18356913650E+02  0.20784500171E+02 -0.49860029234E+02  0.57052556834E+02  0.00000000000E+00 0.  1.
</event>
<event>
 7    1  0.7118985E-006  0.1957549E+03  0.7818608E-02  0.1287695E+00
          2   -1    0    0  502    0  0.00000000000E+00  0.00000000000E+00  0.10488959250E+04  0.10488959250E+04  0.00000000000E+00 0. -1.
          1   -1    0    0  501    0 -0.00000000000E+00 -0.00000000000E+00 -0.27630011345E+03  0.27630011345E+03  0.00000000000E+00 0. -1.
         25    2    1    2    0    0 -0.15214955062E+03  0.11202574497E+03  0.52183049809E+03  0.56888980755E+03  0.12501716321E+03 0.  0.
          2    1    1    2  501    0  0.12538965934E+03 -0.15143093947E+03 -0.21313538352E+03  0.28996652877E+03  0.00000000000E+00 0. -1.
          1    1    1    2  502    0  0.26759891284E+02  0.39405194498E+02  0.46390069696E+03  0.46633970212E+03  0.00000000000E+00 0. -1.
         22    1    3    3    0    0  0.89420154839E+01  0.17393375269E+02  0.62965983166E+01  0.20545955673E+02  0.00000000000E+00 0.  1.
         22    1    3    3    0    0 -0.16109156611E+03  0.94632369705E+02  0.51553389978E+03  0.54834385187E+03  0.00000000000E+00 0.  1.
</event>
<event>
 7    1  0.7118985E-006  0.6945827E+02  0.7818608E-02  0.1461962E+00
          2   -1    0    0  502    0  0.00000000000E+00  0.00000000000E+00  0.15049830812E+03  0.15049830812E+03  0.00000000000E+00 0. -1.
          1   -1    0    0  501    0 -0.00000000000E+00 -0.00000000000E+00 -0.56487804124E+03  0.56487804124E+03  0.00000000000E+00 0. -1.
         25    2    1    2    0    0 -0.97613384531E+02 -0.14730769755E+02 -0.10017051156E+03  0.18815871734E+03  0.12499681240E+03 0.  0.
          2    1    1    2  501    0  0.31862755199E+02  0.36473347345E+00 -0.40939988717E+03  0.41063808374E+03  0.00000000000E+00 0. -1.
          1    1    1    2  502    0  0.65750629331E+02  0.14366036282E+02  0.95190665614E+02  0.11657954827E+03  0.00000000000E+00 0. -1.
         22    1    3    3    0    0 -0.71483899552E+02 -0.35592183254E+02  0.27919785297E+01  0.79903357552E+02  0.00000000000E+00 0. -1.
         22    1    3    3    0    0 -0.26129484978E+02  0.20861413498E+02 -0.10296249009E+03  0.10825535979E+03  0.00000000000E+00 0. -1.
</event>
<event>
 7    1  0.7118985E-006  0.1008592E+03  0.7818608E-02  0.1385857E+00
          2   -1    0    0  502    0  0.00000000000E+00  0.00000000000E+00  0.13858945601E+04  0.13858945601E+04  0.00000000000E+00 0. -1.
          1   -1    0    0  501    0 -0.00000000000E+00 -0.00000000000E+00 -0.66643376472E+03  0.66643376472E+03  0.00000000000E+00 0. -1.
         25    2    1    2    0    0 -0.34264864894E+02  0.64261310941E+02 -0.43651003497E+03  0.45985779244E+03  0.12499832634E+03 0.  0.
          2    1    1    2  501    0  0.17269686561E+02  0.35289128643E+02 -0.21460870512E+03  0.21817529875E+03  0.00000000000E+00 0. -1.
          1    1    1    2  502    0  0.16995178333E+02 -0.99550439584E+02  0.13705795355E+04  0.13742952336E+04  0.00000000000E+00 0. -1.
         22    1    3    3    0    0 -0.58584030109E+02  0.10561595742E+02 -0.35090737759E+03  0.35592081076E+03  0.00000000000E+00 0. -1.
         22    1    3    3    0    0  0.24319165215E+02  0.53699715198E+02 -0.85602657380E+02  0.10393698168E+03  0.00000000000E+00 0. -1.
</event>
<event>
 7    1  0.7118985E-006  0.2333225E+03  0.7818608E-02  0.1188364E+00
          2   -1    0    0  502    0  0.00000000000E+00  0.00000000000E+00  0.10618142776E+04  0.10618142776E+04  0.00000000000E+00 0. -1.
          1   -1    0    0  501    0 -0.00000000000E+00 -0.00000000000E+00 -0.82166760849E+03  0.82166760849E+03  0.00000000000E+00 0. -1.
         25    2    1    2    0    0 -0.27245321900E+03 -0.77475978656E+02  0.45209202225E+03  0.54794705942E+03  0.12500199811E+03 0.  0.
          2    1    1    2  501    0  0.97891268061E+02 -0.50444265037E+02 -0.74872001000E+03  0.75677538121E+03  0.00000000000E+00 0. -1.
          1    1    1    2  502    0  0.17456195094E+03  0.12792024369E+03  0.53677465690E+03  0.57875944550E+03  0.00000000000E+00 0. -1.
         22    1    3    3    0    0 -0.85997733874E+02  0.21396444918E+02  0.76270909635E+02  0.11692163933E+03  0.00000000000E+00 0. -1.
         22    1    3    3    0    0 -0.18645548513E+03 -0.98872423574E+02  0.37582111261E+03  0.43102542009E+03  0.00000000000E+00 0. -1.
</event>
<event>
 7    1  0.7118985E-006  0.9774229E+02  0.7818608E-02  0.1379704E+00
          2   -1    0    0  502    0  0.00000000000E+00  0.00000000000E+00  0.12272323861E+04  0.12272323861E+04  0.00000000000E+00 0. -1.
          1   -1    0    0  501    0 -0.00000000000E+00 -0.00000000000E+00 -0.31663852242E+02  0.31663852242E+02  0.00000000000E+00 0. -1.
         25    2    1    2    0    0 -0.27026845659E+02 -0.12708836203E+03  0.52001536881E+03  0.55038522958E+03  0.12500405991E+03 0.  0.
          2    1    1    2  501    0  0.60849474096E+01  0.89970215581E+02  0.11405007032E+03  0.14539286371E+03  0.00000000000E+00 0. -1.
          1    1    1    2  502    0  0.20941898249E+02  0.37118146451E+02  0.56150309472E+03  0.56311814504E+03  0.00000000000E+00 0. -1.
         22    1    3    3    0    0 -0.68174914395E+02 -0.45397598038E+02  0.32217084551E+03  0.33241963623E+03  0.00000000000E+00 0. -1.
         22    1    3    3    0    0  0.41148068736E+02 -0.81690763994E+02  0.19784452330E+03  0.21796559335E+03  0.00000000000E+00 0. -1.
</event>
<event>
 7    1  0.7118985E-006  0.1289788E+03  0.7818608E-02  0.1349069E+00
          2   -1    0    0  502    0  0.00000000000E+00  0.00000000000E+00  0.13335618431E+04  0.13335618431E+04  0.00000000000E+00 0. -1.
          1   -1    0    0  501    0 -0.00000000000E+00 -0.00000000000E+00 -0.15033912221E+03  0.15033912221E+03  0.00000000000E+00 0. -1.
         25    2    1    2    0    0  0.11240092300E+03  0.70081838716E+02  0.44482942996E+03  0.48067016115E+03  0.12500060179E+03 0.  0.
          2    1    1    2  501    0 -0.12551928602E+03 -0.30488304609E+02 -0.10027695925E+03  0.16352399347E+03  0.00000000000E+00 0. -1.
          1    1    1    2  502    0  0.13118363022E+02 -0.39593534107E+02  0.83867025018E+03  0.83970681069E+03  0.00000000000E+00 0. -1.
         22    1    3    3    0    0  0.48557623533E+02 -0.10738930016E+02  0.42658678275E+02  0.65520456754E+02  0.00000000000E+00 0.  1.
         22    1    3    3    0    0  0.63843299469E+02  0.80820768732E+02  0.40217075169E+03  0.41514970440E+03  0.00000000000E+00 0.  1.
</event>
<event>
 7    1  0.7118985E-006  0.7239845E+02  0.7818608E-02  0.1360519E+00
          2   -1    0    0  502    0  0.00000000000E+00  0.00000000000E+00  0.32385738465E+03  0.32385738465E+03  0.00000000000E+00 0. -1.
          1   -1    0    0  501    0 -0.00000000000E+00 -0.00000000000E+00 -0.53075494739E+03  0.53075494739E+03  0.00000000000E+00 0. -1.
         25    2    1    2    0    0 -0.20405766605E+02 -0.70945696821E+01  0.14232371712E+03  0.19065098234E+03  0.12500011353E+03 0.  0.
          2    1    1    2  501    0  0.50602229724E+02 -0.53206758228E+02 -0.49654018811E+03  0.50193993982E+03  0.00000000000E+00 0. -1.
          1    1    1    2  502    0 -0.30196463119E+02  0.60301327911E+02  0.14731890826E+03  0.16202140989E+03  0.00000000000E+00 0. -1.
         22    1    3    3    0    0 -0.58365522550E+02  0.36295820660E+02  0.69176567252E+02  0.97515733483E+02  0.00000000000E+00 0. -1.
         22    1    3    3    0    0  0.37959755945E+02 -0.43390390342E+02  0.73147149867E+02  0.93135248854E+02  0.00000000000E+00 0. -1.
</event>
<event>
 7    1  0.7118985E-006  0.5252194E+02  0.7818608E-02  0.1509919E+00
          2   -1    0    0  502    0  0.00000000000E+00  0.00000000000E+00  0.20465701358E+04  0.20465701358E+04  0.00000000000E+00 0. -1.
          1   -1    0    0  501    0 -0.00000000000E+00 -0.00000000000E+00 -0.20178857441E+02  0.20178857441E+02  0.00000000000E+00 0. -1.
         25    2    1    2    0    0  0.14186986472E+02 -0.26691579203E+02  0.58323970013E+03  0.59724968445E+03  0.12499970714E+03 0.  0.
          2    1    1    2  501    0 -0.35222664082E+01  0.54852232919E+02  0.45035309695E+02  0.71058799147E+02  0.00000000000E+00 0. -1.
          1    1    1    2  502    0 -0.10664720063E+02 -0.28160653715E+02  0.13981162685E+04  0.13984405096E+04  0.00000000000E+00 0. -1.
         22    1    3    3    0    0 -0.41877121432E+02 -0.18241837937E+02  0.91658596359E+02  0.10240974679E+03  0.00000000000E+00 0.  1.
         22    1    3    3    0    0  0.56064107903E+02 -0.84497412660E+01  0.49158110377E+03  0.49483993767E+03  0.00000000000E+00 0.  1.
</event>
<event>
 7    1  0.7118985E-006  0.1429877E+03  0.7818608E-02  0.1252311E+00
          2   -1    0    0  502    0  0.00000000000E+00  0.00000000000E+00  0.10703730220E+04  0.10703730220E+04  0.00000000000E+00 0. -1.
          1   -1    0    0  501    0 -0.00000000000E+00 -0.00000000000E+00 -0.76730163735E+03  0.76730163735E+03  0.00000000000E+00 0. -1.
         25    2    1    2    0    0 -0.63933353979E+02  0.39587299118E+02 -0.52749901492E+02  0.15511729735E+03  0.12499678326E+03 0.  0.
          2    1    1    2  501    0 -0.20255779408E+01  0.91798187949E+02 -0.65484684534E+03  0.66125290255E+03  0.00000000000E+00 0. -1.
          1    1    1    2  502    0  0.65958931920E+02 -0.13138548707E+03  0.10106681315E+04  0.10213044595E+04  0.00000000000E+00 0. -1.
         22    1    3    3    0    0 -0.14211801417E+02  0.31320576794E+02 -0.87418676771E+02  0.93941358723E+02  0.00000000000E+00 0.  1.
         22    1    3    3    0    0 -0.49721552561E+02  0.82667223243E+01  0.34668775280E+02  0.61175938624E+02  0.00000000000E+00 0.  1.
</event>
<event>
 7    1  0.7118985E-006  0.1780024E+03  0.7818608E-02  0.1368483E+00
          2   -1    0    0  502    0  0.00000000000E+00  0.00000000000E+00  0.18518017156E+04  0.18518017156E+04  0.00000000000E+00 0. -1.
          1   -1    0    0  501    0 -0.00000000000E+00 -0.00000000000E+00 -0.23623916783E+03  0.23623916783E+03  0.00000000000E+00 0. -1.
         25    2    1    2    0    0  0.18475047582E+03 -0.83686715890E+02  0.12173063101E+04  0.12404024540E+04  0.12500956198E+03 0.  0.
          2    1    1    2  501    0 -0.16044856250E+03  0.75432339678E+02 -0.18939290357E+03  0.25942908665E+03  0.00000000000E+00 0. -1.
          1    1    1    2  502    0 -0.24301913320E+02  0.82543762113E+01  0.58764914125E+03  0.58820934278E+03  0.00000000000E+00 0. -1.
         22    1    3    3    0    0 -0.55193422379E+01  0.69038246536E+01  0.26111385217E+03  0.26126341062E+03  0.00000000000E+00 0.  1.
         22    1    3    3    0    0  0.19026981806E+03 -0.90590540543E+02  0.95619245796E+03  0.97913904343E+03  0.00000000000E+00 0.  1.
</event>
<event>
 7    1  0.7118985E-006  0.9204215E+02  0.7818608E-02  0.1335570E+00
          2   -1    0    0  502    0  0.00000000000E+00  0.00000000000E+00  0.40692923301E+03  0.40692923301E+03  0.00000000000E+00 0. -1.
          1   -1    0    0  501    0 -0.00000000000E+00 -0.00000000000E+00 -0.14379311894E+03  0.14379311894E+03  0.00000000000E+00 0. -1.
         25    2    1    2    0    0 -0.41293431971E+02  0.58748744815E+02  0.10678923311E+03  0.17940274373E+03  0.12499936643E+03 0.  0.
          2    1    1    2  501    0  0.49938414425E+02  0.42648577109E+02 -0.86155131101E+02  0.10833029576E+03  0.00000000000E+00 0. -1.
          1    1    1    2  502    0 -0.86449824532E+01 -0.10139732192E+03  0.24250201206E+03  0.26298931246E+03  0.00000000000E+00 0. -1.
         22    1    3    3    0    0 -0.55462065073E+02  0.12319699348E+02  0.11675788927E+03  0.12984691125E+03  0.00000000000E+00 0.  1.
         22    1    3    3    0    0  0.14168633102E+02  0.46429045466E+02 -0.99686561621E+01  0.49555832478E+02  0.00000000000E+00 0.  1.
</event>
<event>
 7    1  0.7118985E-006  0.1780575E+03  0.7818608E-02  0.1245173E+00
          2   -1    0    0  502    0  0.00000000000E+00  0.00000000000E+00  0.12582035433E+03  0.12582035433E+03  0.00000000000E+00 0. -1.
          1   -1    0    0  501    0 -0.00000000000E+00 -0.00000000000E+00 -0.14551302915E+04  0.14551302915E+04  0.00000000000E+00 0. -1.
         25    2    1    2    0    0  0.63829829076E+01 -0.11418035081E+03 -0.65888316052E+03  0.68031562555E+03  0.12499774466E+03 0.  0.
          2    1    1    2  501    0  0.47235176992E+02 -0.63568885584E+02 -0.70698729813E+03  0.71140930896E+03  0.00000000000E+00 0. -1.
          1    1    1    2  502    0 -0.53618159900E+02  0.17774923640E+03  0.36560521439E+02  0.18922571136E+03  0.00000000000E+00 0. -1.
         22    1    3    3    0    0 -0.21562574582E+02 -0.11944440616E+03 -0.35644345026E+03  0.37654195519E+03  0.00000000000E+00 0. -1.
         22    1    3    3    0    0  0.27945557489E+02  0.52640553499E+01 -0.30243971026E+03  0.30377367036E+03  0.00000000000E+00 0. -1.
</event>
<event>
 7    1  0.7118985E-006  0.9774856E+02  0.7818608E-02  0.1431635E+00
          2   -1    0    0  502    0  0.00000000000E+00  0.00000000000E+00  0.11259244836E+04  0.11259244836E+04  0.00000000000E+00 0. -1.
          1   -1    0    0  501    0 -0.00000000000E+00 -0.00000000000E+00 -0.26246324557E+03  0.26246324557E+03  0.00000000000E+00 0. -1.
         25    2    1    2    0    0 -0.64805892860E+02  0.10181944809E+03  0.12071036281E+03  0.21157404283E+03  0.12500232059E+03 0.  0.
          2    1    1    2  501    0  0.62154079271E+02 -0.73603178285E+02 -0.20611906444E+03  0.22752060599E+03  0.00000000000E+00 0. -1.
          1    1    1    2  502    0  0.26518135889E+01 -0.28216269808E+02  0.94886993965E+03  0.94929308034E+03  0.00000000000E+00 0. -1.
         22    1    3    3    0    0 -0.34972657938E+02  0.12877177405E+03  0.96015802713E+02  0.16439066569E+03  0.00000000000E+00 0. -1.
         22    1    3    3    0    0 -0.29833234922E+02 -0.26952325956E+02  0.24694560093E+02  0.47183377142E+02  0.00000000000E+00 0. -1.
</event>
<event>
 7    1  0.7118985E-006  0.3756001E+02  0.7818608E-02  0.1591050E+00
          2   -1    0    0  502    0  0.00000000000E+00  0.00000000000E+00  0.30337088596E+02  0.30337088596E+02  0.00000000000E+00 0. -1.
          1   -1    0    0  501    0 -0.00000000000E+00 -0.00000000000E+00 -0.64324732916E+03  0.64324732916E+03  0.00000000000E+00 0. -1.
         25    2    1    2    0    0 -0.85354408928E+01 -0.24136181870E+02 -0.32380963025E+03  0.34804254192E+03  0.12500210126E+03 0.  0.
          2    1    1    2  501    0 -0.12731035045E+02  0.37289835342E+02 -0.29677944016E+03  0.29938377908E+03  0.00000000000E+00 0. -1.
          1    1    1    2  502    0  0.21266475938E+02 -0.13153653472E+02  0.76788298404E+01  0.26158096762E+02  0.00000000000E+00 0. -1.
         22    1    3    3    0    0  0.26988991672E+02 -0.61398826123E+02 -0.11640859261E+03  0.13434724394E+03  0.00000000000E+00 0. -1.
         22    1    3    3    0    0 -0.35524432565E+02  0.37262644253E+02 -0.20740103764E+03  0.21369529798E+03  0.00000000000E+00 0. -1.
</event>
<event>
 7    1  0.7118985E-006  0.3955434E+02  0.7818608E-02  0.1592512E+00
          2   -1    0    0  502    0  0.00000000000E+00  0.00000000000E+00  0.51619991274E+03  0.51619991274E+03  0.00000000000E+00 0. -1.
          1   -1    0    0  501    0 -0.00000000000E+00 -0.00000000000E+00 -0.45448318792E+03  0.45448318792E+03  0.00000000000E+00 0. -1.
         25    2    1    2    0    0  0.96716557294E+01  0.43512903953E+02  0.12347150052E+02  0.13328115505E+03  0.12499800175E+03 0.  0.
          2    1    1    2  501    0 -0.27645051587E+02 -0.28319454162E+02 -0.39270862314E+03  0.39469773631E+03  0.00000000000E+00 0. -1.
          1    1    1    2  502    0  0.17973395857E+02 -0.15193449790E+02  0.44207819791E+03  0.44270420931E+03  0.00000000000E+00 0. -1.
         22    1    3    3    0    0  0.18932370477E+02 -0.18002045865E+01  0.62339768289E+02  0.65176085328E+02  0.00000000000E+00 0.  1.
         22    1    3    3    0    0 -0.92607147471E+01  0.45313108539E+02 -0.49992618236E+02  0.68105069718E+02  0.00000000000E+00 0.  1.
</event>
<event>
 7    1  0.7118985E-006  0.3438218E+02  0.7818608E-02  0.1642503E+00
          2   -1    0    0  502    0  0.00000000000E+00  0.00000000000E+00  0.14700991250E+04  0.14700991250E+04  0.00000000000E+00 0. -1.
          1   -1    0    0  501    0 -0.00000000000E+00 -0.00000000000E+00 -0.37877683842E+02  0.37877683842E+02  0.00000000000E+00 0. -1.
         25    2    1    2    0    0 -0.20416865802E+02 -0.13763371113E+02  0.28556863000E+03  0.31269898657E+03  0.12499973986E+03 0.  0.
          2    1    1    2  501    0  0.12922611163E+02  0.32494815442E+02 -0.11604181550E+02  0.36845134541E+02  0.00000000000E+00 0. -1.
          1    1    1    2  502    0  0.74942546387E+01 -0.18731444329E+02  0.11582569927E+04  0.11584326878E+04  0.00000000000E+00 0. -1.
         22    1    3    3    0    0 -0.58559837899E+02 -0.48260575936E+02  0.16443632413E+03  0.18110119408E+03  0.00000000000E+00 0. -1.
         22    1    3    3    0    0  0.38142972098E+02  0.34497204823E+02  0.12113230588E+03  0.13159779249E+03  0.00000000000E+00 0. -1.
</event>
<event>
 7    1  0.7118985E-006  0.5988941E+02  0.7818608E-02  0.1434669E+00
          2   -1    0    0  502    0  0.00000000000E+00  0.00000000000E+00  0.79922851704E+03  0.79922851704E+03  0.00000000000E+00 0. -1.
          1   -1    0    0  501    0 -0.00000000000E+00 -0.00000000000E+00 -0.15772827571E+03  0.15772827571E+03  0.00000000000E+00 0. -1.
         25    2    1    2    0    0  0.78592090216E+01  0.17093000918E+02  0.54824118332E+02  0.13778691059E+03  0.12500244371E+03 0.  0.
          2    1    1    2  501    0 -0.16614815603E+02 -0.61446087180E+02 -0.10674174532E+03  0.12427982105E+03  0.00000000000E+00 0. -1.
          1    1    1    2  502    0  0.87556065817E+01  0.44353086262E+02  0.69341786832E+03  0.69489006110E+03  0.00000000000E+00 0. -1.
         22    1    3    3    0    0 -0.10502002511E+02  0.65343621482E+02  0.55404391434E+01  0.66413683764E+02  0.00000000000E+00 0.  1.
         22    1    3    3    0    0  0.18361211533E+02 -0.48250620564E+02  0.49283679188E+02  0.71373226830E+02  0.00000000000E+00 0.  1.
</event>
<event>
 7    1  0.7118985E-006  0.6167120E+02  0.7818608E-02  0.1463484E+00
          2   -1    0    0  502    0  0.00000000000E+00  0.00000000000E+00  0.18962398525E+02  0.18962398525E+02  0.00000000000E+00 0. -1.
          1   -1    0    0  501    0 -0.00000000000E+00 -0.00000000000E+00 -0.94392484426E+03  0.94392484426E+03  0.00000000000E+00 0. -1.
         25    2    1    2    0    0 -0.30632806178E+02 -0.20981717872E+02 -0.43004032692E+03  0.44937554488E+03  0.12500038502E+03 0.  0.
          2    1    1    2  501    0 -0.15417419896E+02 -0.31972138284E+02 -0.35702385328E+03  0.35878398275E+03  0.00000000000E+00 0. -1.
          1    1    1    2  502    0  0.46050226074E+02  0.52953856157E+02 -0.13789826553E+03  0.15472771516E+03  0.00000000000E+00 0. -1.
         22    1    3    3    0    0  0.40149827530E+02 -0.20249253195E+02 -0.75820633353E+02  0.88152194230E+02  0.00000000000E+00 0. -1.
         22    1    3    3    0    0 -0.70782633708E+02 -0.73246467693E+00 -0.35421969357E+03  0.36122335065E+03  0.00000000000E+00 0. -1.
</event>
<event>
 7    1  0.7118985E-006  0.6703752E+02  0.7818608E-02  0.1447341E+00
          2   -1    0    0  502    0  0.00000000000E+00  0.00000000000E+00  0.12168611306E+04  0.12168611306E+04  0.00000000000E+00 0. -1.
          1   -1    0    0  501    0 -0.00000000000E+00 -0.00000000000E+00 -0.19915730744E+03  0.19915730744E+03  0.00000000000E+00 0. -1.
         25    2    1    2    0    0  0.98096719585E+01  0.61910172239E+02  0.26051518941E+03  0.29567335623E+03  0.12500188232E+03 0.  0.
          2    1    1    2  501    0 -0.44699161667E+02 -0.50382971198E+02 -0.17495790631E+03  0.18747460580E+03  0.00000000000E+00 0. -1.
          1    1    1    2  502    0  0.34889489709E+02 -0.11527201041E+02  0.93214654005E+03  0.93287047599E+03  0.00000000000E+00 0. -1.
         22    1    3    3    0    0 -0.32581182445E+02 -0.12969145045E+02  0.15794361517E+03  0.16178973313E+03  0.00000000000E+00 0. -1.
         22    1    3    3    0    0  0.42390854404E+02  0.74879317284E+02  0.10257157424E+03  0.13388362311E+03  0.00000000000E+00 0. -1.
</event>
<event>
 7    1  0.7118985E-006  0.2240153E+03  0.7818608E-02  0.1222434E+00
          2   -1    0    0  502    0  0.00000000000E+00  0.00000000000E+00  0.12846236403E+04  0.12846236403E+04  0.00000000000E+00 0. -1.
          1   -1    0    0  501    0 -0.00000000000E+00 -0.00000000000E+00 -0.40478630009E+03  0.40478630009E+03  0.00000000000E+00 0. -1.
         25    2    1    2    0    0 -0.55042954645E+02  0.20419212725E+03  0.38140230439E+02  0.24860481878E+03  0.12500210820E+03 0.  0.
          2    1    1    2  501    0  0.13305197984E+03 -0.18891388882E+03 -0.25333896742E+03  0.34288761882E+03  0.00000000000E+00 0. -1.
          1    1    1    2  502    0 -0.78009025197E+02 -0.15278238433E+02  0.10950360772E+04  0.10979175028E+04  0.00000000000E+00 0. -1.
         22    1    3    3    0    0 -0.25963256192E+02  0.54710229509E+01 -0.26619268119E+02  0.37584680381E+02  0.00000000000E+00 0.  1.
         22    1    3    3    0    0 -0.29079698454E+02  0.19872110430E+03  0.64759498557E+02  0.21102013840E+03  0.00000000000E+00 0.  1.
</event>
<event>
 7    1  0.7118985E-006  0.1087683E+03  0.7818608E-02  0.1410396E+00
          2   -1    0    0  502    0  0.00000000000E+00  0.00000000000E+00  0.27595693326E+04  0.27595693326E+04  0.00000000000E+00 0. -1.
          1   -1    0    0  501    0 -0.00000000000E+00 -0.00000000000E+00 -0.30848976387E+03  0.30848976387E+03  0.00000000000E+00 0. -1.
         25    2    1    2    0    0  0.75130589074E+02 -0.60065033204E+02  0.90126313142E+03  0.91496065690E+03  0.12500143192E+03 0.  0.
          2    1    1    2  501    0 -0.99974188098E+02  0.43281256098E+02 -0.29167871116E+03  0.31135923940E+03  0.00000000000E+00 0. -1.
          1    1    1    2  502    0  0.24843599024E+02  0.16783777106E+02  0.18414951485E+04  0.18417392002E+04  0.00000000000E+00 0. -1.
         22    1    3    3    0    0 -0.14252272684E+02  0.27533212576E+02  0.23603312381E+03  0.23806058180E+03  0.00000000000E+00 0.  1.
         22    1    3    3    0    0  0.89382861758E+02 -0.87598245780E+02  0.66523000762E+03  0.67690007510E+03  0.00000000000E+00 0.  1.
</event>
<event>
 7    1  0.7118985E-006  0.8558203E+02  0.7818608E-02  0.1320704E+00
          2   -1    0    0  502    0  0.00000000000E+00  0.00000000000E+00  0.47704658553E+03  0.47704658553E+03  0.00000000000E+00 0. -1.
          1   -1    0    0  501    0 -0.00000000000E+00 -0.00000000000E+00 -0.99880142886E+02  0.99880142886E+02  0.00000000000E+00 0. -1.
         25    2    1    2    0    0 -0.19943593948E+02 -0.69880978865E+02  0.12855278042E+03  0.19347352195E+03  0.12500035278E+03 0.  0.
          2    1    1    2  501    0 -0.60525408497E+02  0.72941002856E+02 -0.25174115607E+02  0.98068603885E+02  0.00000000000E+00 0. -1.
          1    1    1    2  502    0  0.80469002444E+02 -0.30600239907E+01  0.27378777784E+03  0.28538460259E+03  0.00000000000E+00 0. -1.
         22    1    3    3    0    0  0.33317010971E+02 -0.48007851083E+02  0.12231796048E+03  0.13555980393E+03  0.00000000000E+00 0. -1.
         22    1    3    3    0    0 -0.53260604918E+02 -0.21873127781E+02  0.62348199414E+01  0.57913718020E+02  0.00000000000E+00 0. -1.
</event>
<event>
 7    1  0.7118985E-006  0.9251930E+02  0.7818608E-02  0.1397378E+00
          2   -1    0    0  502    0  0.00000000000E+00  0.00000000000E+00  0.12401166296E+03  0.12401166296E+03  0.00000000000E+00 0. -1.
          1   -1    0    0  501    0 -0.00000000000E+00 -0.00000000000E+00 -0.35170137294E+03  0.35170137294E+03  0.00000000000E+00 0. -1.
         25    2    1    2    0    0 -0.73427131028E+02 -0.29389802810E+02 -0.36745936654E+02  0.15240971496E+03  0.12499261287E+03 0.  0.
          2    1    1    2  501    0  0.95512901089E+02 -0.28163575274E+01 -0.24132800832E+03  0.25955703370E+03  0.00000000000E+00 0. -1.
          1    1    1    2  502    0 -0.22085770061E+02  0.32206160337E+02  0.50384234990E+02  0.63746287252E+02  0.00000000000E+00 0. -1.
         22    1    3    3    0    0 -0.52338152361E+02 -0.11199999653E+02 -0.82798124002E+02  0.98591335943E+02  0.00000000000E+00 0. -1.
         22    1    3    3    0    0 -0.21088978667E+02 -0.18189803157E+02  0.46052187348E+02  0.53818379013E+02  0.00000000000E+00 0. -1.
</event>
<event>
 7    1  0.7118985E-006  0.1844932E+03  0.7818608E-02  0.1270731E+00
          2   -1    0    0  502    0  0.00000000000E+00  0.00000000000E+00  0.38702695388E+03  0.38702695388E+03  0.00000000000E+00 0. -1.
          1   -1    0    0  501    0 -0.00000000000E+00 -0.00000000000E+00 -0.93967653300E+03  0.93967653300E+03  0.00000000000E+00 0. -1.
         25    2    1    2    0    0 -0.16540465815E+03  0.10858967772E+03 -0.19729851045E+02  0.23487054697E+03  0.12499795107E+03 0.  0.
          2    1    1    2  501    0 -0.10633894761E+02 -0.58446955025E+02 -0.78115471978E+03  0.78341037937E+03  0.00000000000E+00 0. -1.
          1    1    1    2  502    0  0.17603855291E+03 -0.50142722692E+02  0.24823499170E+03  0.30842256054E+03  0.00000000000E+00 0. -1.
         22    1    3    3    0    0 -0.86743329876E+01  0.29188801889E+02 -0.48071058460E+02  0.56903926665E+02  0.00000000000E+00 0.  1.
         22    1    3    3    0    0 -0.15673032516E+03  0.79400875828E+02  0.28341207415E+02  0.17796662031E+03  0.00000000000E+00 0.  1.
</event>
<event>
 7    1  0.7118985E-006  0.1479032E+03  0.7818608E-02  0.1270224E+00
          2   -1    0    0  502    0  0.00000000000E+00  0.00000000000E+00  0.98819653677E+02  0.98819653677E+02  0.00000000000E+00 0. -1.
          1   -1    0    0  501    0 -0.00000000000E+00 -0.00000000000E+00 -0.12938349403E+04  0.12938349403E+04  0.00000000000E+00 0. -1.
         25    2    1    2    0    0  0.10079352153E+03 -0.13208667929E+03 -0.52619509466E+03  0.56578524726E+03  0.12500177418E+03 0.  0.
          2    1    1    2  501    0 -0.13099066301E+03  0.64017075580E+02 -0.72122314415E+03  0.73581217944E+03  0.00000000000E+00 0. -1.
          1    1    1    2  502    0  0.30197141479E+02  0.68069603712E+02  0.52402952223E+02  0.91057167234E+02  0.00000000000E+00 0. -1.
         22    1    3    3    0    0  0.11582470315E+03 -0.13455437518E+03 -0.51976675061E+03  0.54925196111E+03  0.00000000000E+00 0. -1.
         22    1    3    3    0    0 -0.15031181621E+02  0.24676958879E+01 -0.64283440503E+01  0.16533286157E+02  0.00000000000E+00 0. -1.
</event>
<event>
 7    1  0.7118985E-006  0.6547824E+02  0.7818608E-02  0.1413034E+00
          2   -1    0    0  502    0  0.00000000000E+00  0.00000000000E+00  0.77244586988E+03  0.77244586988E+03  0.00000000000E+00 0. -1.
          1   -1    0    0  501    0 -0.00000000000E+00 -0.00000000000E+00 -0.37274864663E+03  0.37274864663E+03  0.00000000000E+00 0. -1.
         25    2    1    2    0    0  0.44371473741E+02  0.80335962392E+02  0.90359537315E+02  0.17947882609E+03  0.12500043398E+03 0.  0.
          2    1    1    2  501    0  0.11606232739E+02 -0.47390854211E+02 -0.32470721461E+03  0.32835251319E+03  0.00000000000E+00 0. -1.
          1    1    1    2  502    0 -0.55977706480E+02 -0.32945108181E+02  0.63404490055E+03  0.63736317723E+03  0.00000000000E+00 0. -1.
         22    1    3    3    0    0 -0.41232610355E+02  0.47933013137E+02  0.42568387092E+02  0.76221843881E+02  0.00000000000E+00 0.  1.
         22    1    3    3    0    0  0.85604084096E+02  0.32402949255E+02  0.47791150223E+02  0.10325698220E+03  0.00000000000E+00 0.  1.
</event>
<event>
 7    1  0.7118985E-006  0.1392439E+03  0.7818608E-02  0.1304375E+00
          2   -1    0    0  502    0  0.00000000000E+00  0.00000000000E+00  0.18340284661E+04  0.18340284661E+04  0.00000000000E+00 0. -1.
          1   -1    0    0  501    0 -0.00000000000E+00 -0.00000000000E+00 -0.58211960705E+02  0.58211960705E+02  0.00000000000E+00 0. -1.
         25    2    1    2    0    0 -0.18471389546E+03 -0.42590650100E+02  0.38344656266E+03  0.44563265207E+03  0.12499603002E+03 0.  0.
          2    1    1    2  501    0  0.51876700816E+02  0.24484745443E+02  0.10583353213E+02  0.58332685625E+02  0.00000000000E+00 0. -1.
          1    1    1    2  502    0  0.13283719465E+03  0.18105904657E+02  0.13817865895E+04  0.13882750891E+04  0.00000000000E+00 0. -1.
         22    1    3    3    0    0 -0.64550992305E+02 -0.78241887777E+02  0.18274162080E+03  0.20900508028E+03  0.00000000000E+00 0. -1.
         22    1    3    3    0    0 -0.12016290316E+03  0.35651237677E+02  0.20070494186E+03  0.23662757179E+03  0.00000000000E+00 0. -1.
</event>
<event>
 7    1  0.7118985E-006  0.8429629E+02  0.7818608E-02  0.1340701E+00
          2   -1    0    0  502    0  0.00000000000E+00  0.00000000000E+00  0.54635128377E+03  0.54635128377E+03  0.00000000000E+00 0. -1.
          1   -1    0    0  501    0 -0.00000000000E+00 -0.00000000000E+00 -0.97722445159E+02  0.97722445159E+02  0.00000000000E+00 0. -1.
         25    2    1    2    0    0 -0.13033332511E+03  0.52061330210E+02  0.15124080070E+03  0.24123991539E+03  0.12500303694E+03 0.  0.
          2    1    1    2  501    0  0.68510577141E+02 -0.30855918830E+01 -0.23423061182E+02  0.72469716797E+02  0.00000000000E+00 0. -1.
          1    1    1    2  502    0  0.61822747971E+02 -0.48975738327E+02  0.32081109910E+03  0.33036409674E+03  0.00000000000E+00 0. -1.
         22    1    3    3    0    0 -0.13790456270E+02  0.62558593214E+01  0.10755686679E+03  0.10861764153E+03  0.00000000000E+00 0.  1.
         22    1    3    3    0    0 -0.11654286884E+03  0.45805470889E+02  0.43683933912E+02  0.13262227386E+03  0.00000000000E+00 0.  1.
</event>
<event>
 7    1  0.7118985E-006  0.7543988E+02  0.7818608E-02  0.1384776E+00
          2   -1    0    0  502    0  0.00000000000E+00  0.00000000000E+00  0.19861184826E+03  0.19861184826E+03  0.00000000000E+00 0. -1.
          1   -1    0    0  501    0 -0.00000000000E+00 -0.00000000000E+00 -0.59073448830E+03  0.59073448830E+03  0.00000000000E+00 0. -1.
         25    2    1    2    0    0 -0.21852031878E+02  0.12365612713E+03 -0.91080824774E+02  0.19922643760E+03  0.12500843062E+03 0.  0.
          2    1    1    2  501    0  0.14833612542E+02 -0.71135145675E+02 -0.43762584170E+03  0.44361765332E+03  0.00000000000E+00 0. -1.
          1    1    1    2  502    0  0.70184193361E+01 -0.52520981453E+02  0.13658402643E+03  0.14650224564E+03  0.00000000000E+00 0. -1.
         22    1    3    3    0    0 -0.45103355795E+02  0.53440230891E+02  0.13412079480E+02  0.71204317689E+02  0.00000000000E+00 0.  1.
         22    1    3    3    0    0  0.23251323917E+02  0.70215896236E+02 -0.10449290425E+03  0.12802211992E+03  0.00000000000E+00 0.  1.
</event>
<event>
 7    1  0.7118985E-006  0.1193747E+03  0.7818608E-02  0.1420554E+00
          2   -1    0    0  502    0  0.00000000000E+00  0.00000000000E+00  0.33297633589E+03  0.33297633589E+03  0.00000000000E+00 0. -1.
          1   -1    0    0  501    0 -0.00000000000E+00 -0.00000000000E+00 -0.46611971105E+03  0.46611971105E+03  0.00000000000E+00 0. -1.
         25    2    1    2    0    0 -0.73834668118E+02  0.94479351105E+02 -0.89805326390E+02  0.19511028748E+03  0.12500048652E+03 0.  0.
          2    1    1    2  501    0 -0.17894389016E+02 -0.17816966145E+02 -0.31038040424E+03  0.31140592283E+03  0.00000000000E+00 0. -1.
          1    1    1    2  502    0  0.91729057134E+02 -0.76662384960E+02  0.26704235547E+03  0.29257983663E+03  0.00000000000E+00 0. -1.
         22    1    3    3    0    0 -0.37676159049E+02 -0.25726847260E+02 -0.37761296927E+02  0.59222286145E+02  0.00000000000E+00 0. -1.
         22    1    3    3    0    0 -0.36158509069E+02  0.12020619836E+03 -0.52044029463E+02  0.13588800133E+03  0.00000000000E+00 0. -1.
</event>
<event>
 7    1  0.7118985E-006  0.3969671E+02  0.7818608E-02  0.1544765E+00
          2   -1    0    0  502    0  0.00000000000E+00  0.00000000000E+00  0.58695572946E+03  0.58695572946E+03  0.00000000000E+00 0. -1.
          1   -1    0    0  501    0 -0.00000000000E+00 -0.00000000000E+00 -0.24380392051E+03  0.24380392051E+03  0.00000000000E+00 0. -1.
         25    2    1    2    0    0  0.20867088089E+02  0.21008454701E+01  0.17912659187E+03  0.21944168775E+03  0.12501387720E+03 0.  0.
          2    1    1    2  501    0 -0.27678563769E+02  0.28789159804E+02 -0.22121008701E+03  0.22478616774E+03  0.00000000000E+00 0. -1.
          1    1    1    2  502    0  0.68114756804E+01 -0.30890005274E+02  0.38523530409E+03  0.38653179448E+03  0.00000000000E+00 0. -1.
         22    1    3    3    0    0 -0.95081575596E+01 -0.10149446392E+01  0.18752856266E+03  0.18777219439E+03  0.00000000000E+00 0. -1.
         22    1    3    3    0    0  0.30375245648E+02  0.31157901092E+01 -0.84019707967E+01  0.31669493357E+02  0.00000000000E+00 0. -1.
</event>
<event>
 7    1  0.7118985E-006  0.1106431E+03  0.7818608E-02  0.1339271E+00
          2   -1    0    0  502    0  0.00000000000E+00  0.00000000000E+00  0.14735456039E+03  0.14735456039E+03  0.00000000000E+00 0. -1.
          1   -1    0    0  501    0 -0.00000000000E+00 -0.00000000000E+00 -0.24866891459E+04  0.24866891459E+04  0.00000000000E+00 0. -1.
         25    2    1    2    0    0 -0.12066710617E+03  0.80200730254E+02 -0.98125651025E+02  0.21505036259E+03  0.12500122965E+03 0.  0.
          2    1    1    2  501    0  0.20777635043E+02 -0.48649805827E+02 -0.22988293843E+04  0.22994379861E+04  0.00000000000E+00 0. -1.
          1    1    1    2  502    0  0.99889471131E+02 -0.31550924427E+02  0.57620449887E+02  0.11955535756E+03  0.00000000000E+00 0. -1.
         22    1    3    3    0    0 -0.14475540842E+03  0.77385776055E+02 -0.71511108830E+02  0.17904336148E+03  0.00000000000E+00 0. -1.
         22    1    3    3    0    0  0.24088302250E+02  0.28149541988E+01 -0.26614542195E+02  0.36007001106E+02  0.00000000000E+00 0. -1.
</event>
<event>
 7    1  0.7118985E-006  0.4290727E+02  0.7818608E-02  0.1597296E+00
          2   -1    0    0  502    0  0.00000000000E+00  0.00000000000E+00  0.83147547985E+03  0.83147547985E+03  0.00000000000E+00 0. -1.
          1   -1    0    0  501    0 -0.00000000000E+00 -0.00000000000E+00 -0.12040171274E+03  0.12040171274E+03  0.00000000000E+00 0. -1.
         25    2    1    2    0    0 -0.94123300050E-01  0.24136420034E+02  0.45340419608E+03  0.47093785362E+03  0.12499808527E+03 0.  0.
          2    1    1    2  501    0 -0.12039969877E+02 -0.41369006066E+02 -0.10716219214E+03  0.11549931152E+03  0.00000000000E+00 0. -1.
          1    1    1    2  502    0  0.12134093177E+02  0.17232586032E+02  0.36483176318E+03  0.36544002745E+03  0.00000000000E+00 0. -1.
         22    1    3    3    0    0 -0.45242915945E+02  0.37014844834E+02  0.37517418498E+03  0.37970078912E+03  0.00000000000E+00 0.  1.
         22    1    3    3    0    0  0.45148792645E+02 -0.12878424800E+02  0.78230011093E+02  0.91237064498E+02  0.00000000000E+00 0.  1.
</event>
<event>
 7    1  0.7118985E-006  0.1914829E+03  0.7818608E-02  0.1260957E+00
          2   -1    0    0  502    0  0.00000000000E+00  0.00000000000E+00  0.34413216321E+03  0.34413216321E+03  0.00000000000E+00 0. -1.
          1   -1    0    0  501    0 -0.00000000000E+00 -0.00000000000E+00 -0.12782455480E+04  0.12782455480E+04  0.00000000000E+00 0. -1.
         25    2    1    2    0    0 -0.19837500535E+03 -0.43671150577E+02 -0.48751817434E+02  0.24343852264E+03  0.12500304981E+03 0.  0.
          2    1    1    2  501    0  0.34124305230E+02 -0.52899812900E+02 -0.10943338876E+04  0.10961430180E+04  0.00000000000E+00 0. -1.
          1    1    1    2  502    0  0.16425070012E+03  0.96570963477E+02  0.20897232022E+03  0.28279617058E+03  0.00000000000E+00 0. -1.
         22    1    3    3    0    0 -0.10818318813E+03  0.39779729621E+02 -0.16866497479E+02  0.11649252259E+03  0.00000000000E+00 0.  1.
         22    1    3    3    0    0 -0.90191817218E+02 -0.83450880198E+02 -0.31885319955E+02  0.12694600005E+03  0.00000000000E+00 0.  1.
</event>
<event>
 7    1  0.7118985E-006  0.1557078E+03  0.7818608E-02  0.1245445E+00
          2   -1    0    0  502    0  0.00000000000E+00  0.00000000000E+00  0.41873187302E+03  0.41873187302E+03  0.00000000000E+00 0. -1.
          1   -1    0    0  501    0 -0.00000000000E+00 -0.00000000000E+00 -0.46452036610E+03  0.46452036610E+03  0.00000000000E+00 0. -1.
         25    2    1    2    0    0 -0.15681091903E+03 -0.71731535939E+02  0.62044970985E+02  0.22183471729E+03  0.12500394313E+03 0.  0.
          2    1    1    2  501    0  0.14220450449E+01  0.90306232437E+02 -0.35641311035E+03  0.36767858662E+03  0.00000000000E+00 0. -1.
          1    1    1    2  502    0  0.15538887398E+03 -0.18574696497E+02  0.24857964629E+03  0.29373893521E+03  0.00000000000E+00 0. -1.
         22    1    3    3    0    0 -0.10329003712E+03  0.14356175935E+02  0.60278201839E+02  0.12045079150E+03  0.00000000000E+00 0.  1.
         22    1    3    3    0    0 -0.53520881904E+02 -0.86087711874E+02  0.17667691463E+01  0.10138392579E+03  0.00000000000E+00 0.  1.
</event>
<event>
 7    1  0.7118985E-006  0.1793669E+03  0.7818608E-02  0.1227900E+00
          2   -1    0    0  502    0  0.00000000000E+00  0.00000000000E+00  0.30964029575E+04  0.30964029575E+04  0.00000000000E+00 0. -1.
          1   -1    0    0  501    0 -0.00000000000E+00 -0.00000000000E+00 -0.20473072557E+04  0.20473072557E+04  0.00000000000E+00 0. -1.
         25    2    1    2    0    0 -0.23664713004E+03 -0.13370161562E+03  0.70648974846E+03  0.76722278206E+03  0.12500018580E+03 0.  0.
          2    1    1    2  501    0  0.15044241788E+03  0.96757920880E+02 -0.20120395793E+04  0.20199748228E+04  0.00000000000E+00 0. -1.
          1    1    1    2  502    0  0.86204712161E+02  0.36943694744E+02  0.23546455326E+04  0.23565126083E+04  0.00000000000E+00 0. -1.
         22    1    3    3    0    0 -0.23163484255E+03 -0.10648195478E+03  0.68857434005E+03  0.73425317756E+03  0.00000000000E+00 0.  1.
         22    1    3    3    0    0 -0.50122874866E+01 -0.27219660844E+02  0.17915408412E+02  0.32969604501E+02  0.00000000000E+00 0.  1.
</event>
<event>
 7    1  0.7118985E-006  0.1051933E+03  0.7818608E-02  0.1366121E+00
          2   -1    0    0  502    0  0.00000000000E+00  0.00000000000E+00  0.52515910968E+03  0.52515910968E+03  0.00000000000E+00 0. -1.
          1   -1    0    0  501    0 -0.00000000000E+00 -0.00000000000E+00 -0.57505923029E+03  0.57505923029E+03  0.00000000000E+00 0. -1.
         25    2    1    2    0    0 -0.53458575752E+02  0.11579172131E+03  0.35079893892E+03  0.39363761160E+03  0.12500052670E+03 0.  0.
          2    1    1    2  501    0  0.72588976417E+02 -0.75845692332E+02 -0.54531788335E+03  0.55533172288E+03  0.00000000000E+00 0. -1.
          1    1    1    2  502    0 -0.19130400665E+02 -0.39946028974E+02  0.14461882381E+03  0.15124900548E+03  0.00000000000E+00 0. -1.
         22    1    3    3    0    0  0.99919433416E+01  0.91587321606E+02  0.11020292063E+03  0.14364108092E+03  0.00000000000E+00 0. -1.
         22    1    3    3    0    0 -0.63450519094E+02  0.24204399700E+02  0.24059601829E+03  0.24999653069E+03  0.00000000000E+00 0. -1.
</event>
<event>
 7    1  0.7118985E-006  0.1558740E+03  0.7818608E-02  0.1342233E+00
          2   -1    0    0  502    0  0.00000000000E+00  0.00000000000E+00  0.40003203910E+03  0.40003203910E+03  0.00000000000E+00 0. -1.
          1   -1    0    0  501    0 -0.00000000000E+00 -0.00000000000E+00 -0.16521502825E+04  0.16521502825E+04  0.00000000000E+00 0. -1.
         25    2    1    2    0    0 -0.56277087958E+01 -0.12060073438E+03 -0.37729209584E+03  0.41539249073E+03  0.12500155011E+03 0.  0.
          2    1    1    2  501    0 -0.29800623990E+01 -0.36478655183E+02 -0.12392866553E+04  0.12398269988E+04  0.00000000000E+00 0. -1.
          1    1    1    2  502    0  0.86077711948E+01  0.15707938956E+03  0.36446050772E+03  0.39696283206E+03  0.00000000000E+00 0. -1.
         22    1    3    3    0    0 -0.28982340839E+02 -0.13989614088E+03 -0.29699818346E+03  0.32957370540E+03  0.00000000000E+00 0. -1.
         22    1    3    3    0    0  0.23354632043E+02  0.19295406498E+02 -0.80293912384E+02  0.85818785332E+02  0.00000000000E+00 0. -1.
</event>
<event>
 7    1  0.7118985E-006  0.9596740E+02  0.7818608E-02  0.1351957E+00
          2   -1    0    0  502    0  0.00000000000E+00  0.00000000000E+00  0.94868681999E+02  0.94868681999E+02  0.00000000000E+00 0. -1.
          1   -1    0    0  501    0 -0.00000000000E+00 -0.00000000000E+00 -0.22658145087E+04  0.22658145087E+04  0.00000000000E+00 0. -1.
         25    2    1    2    0    0  0.18930568953E+02 -0.45178576803E+02 -0.11681252535E+04  0.11758143853E+04  0.12499356225E+03 0.  0.
          2    1    1    2  501    0 -0.17266937218E+02 -0.51897350212E+02 -0.10670533839E+04  0.10684542134E+04  0.00000000000E+00 0. -1.
          1    1    1    2  502    0 -0.16636317345E+01  0.97075927016E+02  0.64232810632E+02  0.11641459203E+03  0.00000000000E+00 0. -1.
         22    1    3    3    0    0  0.16830824049E+02  0.41651811508E+02 -0.51162237107E+03  0.51359088838E+03  0.00000000000E+00 0. -1.
         22    1    3    3    0    0  0.20997449033E+01 -0.86830388311E+02 -0.65650288239E+03  0.66222349690E+03  0.00000000000E+00 0. -1.
</event>
<event>
 7    1  0.7118985E-006  0.1026926E+03  0.7818608E-02  0.1466402E+00
          2   -1    0    0  502    0  0.00000000000E+00  0.00000000000E+00  0.87385405409E+03  0.87385405409E+03  0.00000000000E+00 0. -1.
          1   -1    0    0  501    0 -0.00000000000E+00 -0.00000000000E+00 -0.34601479326E+03  0.34601479326E+03  0.00000000000E+00 0. -1.
         25    2    1    2    0    0 -0.51252588353E+02  0.99578093571E+02  0.32126986388E+02  0.17088145136E+03  0.12500281049E+03 0.  0.
          2    1    1    2  501    0  0.20785348272E+02 -0.19039597966E+01 -0.27284870078E+03  0.27364588300E+03  0.00000000000E+00 0. -1.
          1    1    1    2  502    0  0.30467240082E+02 -0.97674133775E+02  0.76856097523E+03  0.77534151299E+03  0.00000000000E+00 0. -1.
         22    1    3    3    0    0  0.11041858915E+02 -0.18607030126E+02 -0.18044673377E+02  0.28173648250E+02  0.00000000000E+00 0.  1.
         22    1    3    3    0    0 -0.62294447268E+02  0.11818512370E+03  0.50171659766E+02  0.14270780311E+03  0.00000000000E+00 0.  1.
</event>
<event>
 7    1  0.7118985E-006  0.1143254E+03  0.7818608E-02  0.1290868E+00
          2   -1    0    0  502    0  0.00000000000E+00  0.00000000000E+00  0.13602206621E+04  0.13602206621E+04  0.00000000000E+00 0. -1.
          1   -1    0    0  501    0 -0.00000000000E+00 -0.00000000000E+00 -0.13586942830E+03  0.13586942830E+03  0.00000000000E+00 0. -1.
         25    2    1    2    0    0  0.94052169997E+02  0.43784169023E+02  0.13038096917E+03  0.20829160440E+03  0.12499332464E+03 0.  0.
          2    1    1    2  501    0 -0.11722515534E+03  0.31917227553E+02 -0.56936274749E+02  0.13417222455E+03  0.00000000000E+00 0. -1.
          1    1    1    2  502    0  0.23172985345E+02 -0.75701396576E+02  0.11509065394E+04  0.11536262615E+04  0.00000000000E+00 0. -1.
         22    1    3    3    0    0  0.10367397191E+03  0.40856525307E+02  0.14963474911E+03  0.18656930683E+03  0.00000000000E+00 0.  1.
         22    1    3    3    0    0 -0.96218019085E+01  0.29276437160E+01 -0.19253779939E+02  0.21722297568E+02  0.00000000000E+00 0.  1.
</event>
<event>
 7    1  0.7118985E-006  0.8100608E+02  0.7818608E-02  0.1480577E+00
          2   -1    0    0  502    0  0.00000000000E+00  0.00000000000E+00  0.16042293577E+03  0.16042293577E+03  0.00000000000E+00 0. -1.
          1   -1    0    0  501    0 -0.00000000000E+00 -0.00000000000E+00 -0.40244571107E+03  0.40244571107E+03  0.00000000000E+00 0. -1.
         25    2    1    2    0    0 -0.55982018973E+02  0.26736487166E+02 -0.26267716205E+03  0.29744429159E+03  0.12499995577E+03 0.  0.
          2    1    1    2  501    0 -0.99694617103E+01  0.21740504320E+02 -0.10927534325E+03  0.11186214881E+03  0.00000000000E+00 0. -1.
          1    1    1    2  502    0  0.65951480683E+02 -0.48476991486E+02  0.12992973000E+03  0.15356220643E+03  0.00000000000E+00 0. -1.
         22    1    3    3    0    0 -0.40731627583E+02 -0.42044559239E+02 -0.17751582673E+03  0.18691891072E+03  0.00000000000E+00 0.  1.
         22    1    3    3    0    0 -0.15250391390E+02  0.68781046406E+02 -0.85161335324E+02  0.11052538087E+03  0.00000000000E+00 0.  1.
</event>
<event>
 7    1  0.7118985E-006  0.7482427E+02  0.7818608E-02  0.1448409E+00
          2   -1    0    0  502    0  0.00000000000E+00  0.00000000000E+00  0.37322125402E+03  0.37322125402E+03  0.00000000000E+00 0. -1.
          1   -1    0    0  501    0 -0.00000000000E+00 -0.00000000000E+00 -0.83873877003E+02  0.83873877003E+02  0.00000000000E+00 0. -1.
         25    2    1    2    0    0 -0.80799964927E+02  0.49577491239E+01  0.14826642317E+03  0.21014685072E+03  0.12500221206E+03 0.  0.
          2    1    1    2  501    0  0.10755051987E+02 -0.30840326591E+02 -0.39666319801E+02  0.51383010948E+02  0.00000000000E+00 0. -1.
          1    1    1    2  502    0  0.70044912941E+02  0.25882577467E+02  0.18074727366E+03  0.19556526936E+03  0.00000000000E+00 0. -1.
         22    1    3    3    0    0 -0.89063382111E+02 -0.41956283806E+02  0.11813626371E+03  0.15378163930E+03  0.00000000000E+00 0.  1.
         22    1    3    3    0    0  0.82634171832E+01  0.46914032930E+02  0.30130159456E+02  0.56365211417E+02  0.00000000000E+00 0.  1.
</event>
<event>
 7    1  0.7118985E-006  0.3858354E+02  0.7818608E-02  0.1520709E+00
          2   -1    0    0  502    0  0.00000000000E+00  0.00000000000E+00  0.22412178949E+04  0.22412178949E+04  0.00000000000E+00 0. -1.
          1   -1    0    0  501    0 -0.00000000000E+00 -0.00000000000E+00 -0.41878635274E+03  0.41878635274E+03  0.00000000000E+00 0. -1.
         25    2    1    2    0    0 -0.21637606861E+02  0.35730754262E+02  0.10623283428E+03  0.16927016431E+03  0.12498840192E+03 0.  0.
          2    1    1    2  501    0  0.38112652488E+02 -0.74549180665E+00 -0.38615138194E+03  0.38802837501E+03  0.00000000000E+00 0. -1.
          1    1    1    2  502    0 -0.16475045626E+02 -0.34985262455E+02  0.21023500898E+04  0.21027057083E+04  0.00000000000E+00 0. -1.
         22    1    3    3    0    0  0.96583181713E+01  0.49881497099E+02 -0.66835404698E+01  0.51245649336E+02  0.00000000000E+00 0. -1.
         22    1    3    3    0    0 -0.31295925033E+02 -0.14150742837E+02  0.11291637475E+03  0.11802451497E+03  0.00000000000E+00 0. -1.
</event>
<event>
 7    1  0.1370117E-005  0.4984870E+02  0.7818608E-02  0.1457847E+00
          2   -1    0    0  502    0  0.00000000000E+00  0.00000000000E+00  0.19834287169E+04  0.19834287169E+04  0.00000000000E+00 0. -1.
          1   -1    0    0  501    0 -0.00000000000E+00 -0.00000000000E+00 -0.21337197259E+04  0.21337197259E+04  0.00000000000E+00 0. -1.
         25    2    1    2    0    0 -0.93159586424E+02 -0.42937808172E+01 -0.38912331612E+03  0.41921211243E+03  0.12499877985E+03 0.  0.
          2    1    1    2  501    0  0.44017181066E+02  0.12460944509E+02 -0.17289342114E+04  0.17295393302E+04  0.00000000000E+00 0. -1.
          1    1    1    2  502    0  0.49142405359E+02 -0.81671636921E+01  0.19677665185E+04  0.19683970001E+04  0.00000000000E+00 0. -1.
         22    1    3    3    0    0 -0.36822153309E+02  0.39708956068E+02 -0.53733439769E+02  0.76288627696E+02  0.00000000000E+00 0. -1.
         22    1    3    3    0    0 -0.56337433116E+02 -0.44002736885E+02 -0.33538987635E+03  0.34292348473E+03  0.00000000000E+00 0. -1.
</event>
<event>
 7    1  0.7118985E-006  0.1664336E+03  0.7818608E-02  0.1271203E+00
          2   -1    0    0  502    0  0.00000000000E+00  0.00000000000E+00  0.62940892777E+03  0.62940892777E+03  0.00000000000E+00 0. -1.
          1   -1    0    0  501    0 -0.00000000000E+00 -0.00000000000E+00 -0.29368350884E+03  0.29368350884E+03  0.00000000000E+00 0. -1.
         25    2    1    2    0    0 -0.79966228603E+02  0.18571881260E+03  0.21598122200E+03  0.32118409242E+03  0.12500103160E+03 0.  0.
          2    1    1    2  501    0  0.10514095226E+03 -0.12519272928E+03 -0.20976061592E+03  0.26594615113E+03  0.00000000000E+00 0. -1.
          1    1    1    2  502    0 -0.25174723660E+02 -0.60526083319E+02  0.32950481286E+03  0.33596219307E+03  0.00000000000E+00 0. -1.
         22    1    3    3    0    0 -0.97646058597E+02  0.19471946883E+03  0.19975300554E+03  0.29555318899E+03  0.00000000000E+00 0.  1.
         22    1    3    3    0    0  0.17679829994E+02 -0.90006562364E+01  0.16228216458E+02  0.25630903431E+02  0.00000000000E+00 0.  1.
</event>
<event>
 7    1  0.7118985E-006  0.5496968E+02  0.7818608E-02  0.1480119E+00
          2   -1    0    0  502    0  0.00000000000E+00  0.00000000000E+00  0.53005515054E+03  0.53005515054E+03  0.00000000000E+00 0. -1.
          1   -1    0    0  501    0 -0.00000000000E+00 -0.00000000000E+00 -0.48180316994E+03  0.48180316994E+03  0.00000000000E+00 0. -1.
         25    2    1    2    0    0  0.77318543881E+02  0.13330980223E+01  0.52793026779E+02  0.15617552829E+03  0.12499503023E+03 0.  0.
          2    1    1    2  501    0 -0.27207918597E+02 -0.22584220224E+02 -0.42763881424E+03  0.42909820937E+03  0.00000000000E+00 0. -1.
          1    1    1    2  502    0 -0.50110625284E+02  0.21251122202E+02  0.42309776806E+03  0.42658458282E+03  0.00000000000E+00 0. -1.
         22    1    3    3    0    0  0.17727985233E+02 -0.64068251124E+01 -0.40804735951E+02  0.44948363090E+02  0.00000000000E+00 0.  1.
         22    1    3    3    0    0  0.59590558648E+02  0.77399231348E+01  0.93597762730E+02  0.11122716520E+03  0.00000000000E+00 0.  1.
</event>
<event>
 7    1  0.7118985E-006  0.6876896E+02  0.7818608E-02  0.1365866E+00
          2   -1    0    0  502    0  0.00000000000E+00  0.00000000000E+00  0.18454069284E+03  0.18454069284E+03  0.00000000000E+00 0. -1.
          1   -1    0    0  501    0 -0.00000000000E+00 -0.00000000000E+00 -0.48313031745E+03  0.48313031745E+03  0.00000000000E+00 0. -1.
         25    2    1    2    0    0 -0.49198933592E+01 -0.12115574519E+02 -0.12229607395E+03  0.17536353734E+03  0.12500019211E+03 0.  0.
          2    1    1    2  501    0  0.61153057786E+02  0.50159736854E+02 -0.32199360354E+03  0.33156534258E+03  0.00000000000E+00 0. -1.
          1    1    1    2  502    0 -0.56233164426E+02 -0.38044162335E+02  0.14570005288E+03  0.16074213037E+03  0.00000000000E+00 0. -1.
         22    1    3    3    0    0  0.10491385469E+02 -0.85905801102E+01 -0.14613287269E+03  0.14676063408E+03  0.00000000000E+00 0. -1.
         22    1    3    3    0    0 -0.15411278828E+02 -0.35249944090E+01  0.23836798739E+02  0.28602903258E+02  0.00000000000E+00 0. -1.
</event>
<event>
 7    1  0.7118985E-006  0.9072609E+02  0.7818608E-02  0.1307336E+00
          2   -1    0    0  502    0  0.00000000000E+00  0.00000000000E+00  0.18702057690E+04  0.18702057690E+04  0.00000000000E+00 0. -1.
          1   -1    0    0  501    0 -0.00000000000E+00 -0.00000000000E+00 -0.68475879700E+03  0.68475879700E+03  0.00000000000E+00 0. -1.
         25    2    1    2    0    0  0.55543702172E+02  0.92745883188E+02  0.51887625479E+02  0.17321260860E+03  0.12499352143E+03 0.  0.
          2    1    1    2  501    0 -0.85433306287E+02 -0.66592062944E+01 -0.61996604140E+03  0.62586027781E+03  0.00000000000E+00 0. -1.
          1    1    1    2  502    0  0.29889604116E+02 -0.86086676893E+02  0.17535253879E+04  0.17558916796E+04  0.00000000000E+00 0. -1.
         22    1    3    3    0    0  0.62547421370E+02  0.99187609231E+02 -0.32035342710E+01  0.11730568774E+03  0.00000000000E+00 0. -1.
         22    1    3    3    0    0 -0.70037191981E+01 -0.64417260430E+01  0.55091159750E+02  0.55906920856E+02  0.00000000000E+00 0. -1.
</event>
<event>
 7    1  0.7118985E-006  0.1035620E+03  0.7818608E-02  0.1341946E+00
          2   -1    0    0  502    0  0.00000000000E+00  0.00000000000E+00  0.72361027713E+03  0.72361027713E+03  0.00000000000E+00 0. -1.
          1   -1    0    0  501    0 -0.00000000000E+00 -0.00000000000E+00 -0.75997292707E+03  0.75997292707E+03  0.00000000000E+00 0. -1.
         25    2    1    2    0    0  0.46309427033E+02  0.61103525799E+02 -0.39686568262E+03  0.42309104928E+03  0.12500184817E+03 0.  0.
          2    1    1    2  501    0 -0.95443227281E+02 -0.86315254356E+02 -0.33703766494E+03  0.36076879072E+03  0.00000000000E+00 0. -1.
          1    1    1    2  502    0  0.49133800248E+02  0.25211728557E+02  0.69754069761E+03  0.69972336420E+03  0.00000000000E+00 0. -1.
         22    1    3    3    0    0  0.84217867855E+02  0.24573841601E+02 -0.18447593196E+03  0.20427406206E+03  0.00000000000E+00 0.  1.
         22    1    3    3    0    0 -0.37908440822E+02  0.36529684198E+02 -0.21238975065E+03  0.21881698722E+03  0.00000000000E+00 0.  1.
</event>
<event>
 7    1  0.7118985E-006  0.5960327E+02  0.7818608E-02  0.1482827E+00
          2   -1    0    0  502    0  0.00000000000E+00  0.00000000000E+00  0.82326139130E+03  0.82326139130E+03  0.00000000000E+00 0. -1.
          1   -1    0    0  501    0 -0.00000000000E+00 -0.00000000000E+00 -0.68660274435E+02  0.68660274435E+02  0.00000000000E+00 0. -1.
         25    2    1    2    0    0  0.54287323119E+02  0.87103959339E+01  0.26677712258E+03  0.29969727099E+03  0.12500174664E+03 0.  0.
          2    1    1    2  501    0 -0.81059129242E+01  0.30950546869E+02 -0.45397700387E+02  0.55539115732E+02  0.00000000000E+00 0. -1.
          1    1    1    2  502    0 -0.46181410195E+02 -0.39660942803E+02  0.53322169467E+03  0.53668527901E+03  0.00000000000E+00 0. -1.
         22    1    3    3    0    0 -0.38238587396E+02 -0.19268337610E+01  0.44544595149E+02  0.58737749458E+02  0.00000000000E+00 0.  1.
         22    1    3    3    0    0  0.92525910516E+02  0.10637229695E+02  0.22223252743E+03  0.24095952154E+03  0.00000000000E+00 0.  1.
</event>
<event>
 7    1  0.7118985E-006  0.4020679E+02  0.7818608E-02  0.1579820E+00
          2   -1    0    0  502    0  0.00000000000E+00  0.00000000000E+00  0.15342933241E+03  0.15342933241E+03  0.00000000000E+00 0. -1.
          1   -1    0    0  501    0 -0.00000000000E+00 -0.00000000000E+00 -0.83523749406E+03  0.83523749406E+03  0.00000000000E+00 0. -1.
         25    2    1    2    0    0  0.26022790326E+02  0.12727200154E+02  0.78186278082E+02  0.15025354817E+03  0.12499546959E+03 0.  0.
          2    1    1    2  501    0 -0.39393522691E+02  0.84257918526E+01 -0.79464816339E+03  0.79566861644E+03  0.00000000000E+00 0. -1.
          1    1    1    2  502    0  0.13370732365E+02 -0.21152992007E+02  0.34653723657E+02  0.42744661867E+02  0.00000000000E+00 0. -1.
         22    1    3    3    0    0  0.60865663962E+02 -0.29667581461E+02  0.20756606688E+02  0.70821120864E+02  0.00000000000E+00 0. -1.
         22    1    3    3    0    0 -0.34842873635E+02  0.42394781616E+02  0.57429671395E+02  0.79432427307E+02  0.00000000000E+00 0. -1.
</event>
<event>
 7    1  0.7118985E-006  0.3577819E+02  0.7818608E-02  0.1565425E+00
          2   -1    0    0  502    0  0.00000000000E+00  0.00000000000E+00  0.23530216711E+03  0.23530216711E+03  0.00000000000E+00 0. -1.
          1   -1    0    0  501    0 -0.00000000000E+00 -0.00000000000E+00 -0.25489477684E+03  0.25489477684E+03  0.00000000000E+00 0. -1.
         25    2    1    2    0    0 -0.26204517117E+02  0.60014390711E+02  0.18173207231E+02  0.14228343181E+03  0.12500362273E+03 0.  0.
          2    1    1    2  501    0  0.10521189644E+02 -0.28907319023E+02 -0.18962787546E+03  0.19210689649E+03  0.00000000000E+00 0. -1.
          1    1    1    2  502    0  0.15683327474E+02 -0.31107071689E+02  0.15186205851E+03  0.15580661566E+03  0.00000000000E+00 0. -1.
         22    1    3    3    0    0 -0.71564715709E+01  0.90329504681E+02  0.41383607393E+02  0.99615447909E+02  0.00000000000E+00 0.  1.
         22    1    3    3    0    0 -0.19048045546E+02 -0.30315113970E+02 -0.23210400163E+02  0.42667983897E+02  0.00000000000E+00 0.  1.
</event>
<event>
 7    1  0.7118985E-006  0.4756834E+02  0.7818608E-02  0.1497491E+00
          2   -1    0    0  502    0  0.00000000000E+00  0.00000000000E+00  0.12541291467E+04  0.12541291467E+04  0.00000000000E+00 0. -1.
          1   -1    0    0  501    0 -0.00000000000E+00 -0.00000000000E+00 -0.14532099406E+04  0.14532099406E+04  0.00000000000E+00 0. -1.
         25    2    1    2    0    0 -0.10537250206E+02 -0.12188995547E+02  0.69732853834E+03  0.70862702446E+03  0.12500225660E+03 0.  0.
          2    1    1    2  501    0  0.26428235500E+01  0.47514269421E+02 -0.14465747100E+04  0.14473572406E+04  0.00000000000E+00 0. -1.
          1    1    1    2  502    0  0.78944266564E+01 -0.35325273874E+02  0.55016537789E+03  0.55135482221E+03  0.00000000000E+00 0. -1.
         22    1    3    3    0    0  0.22821928134E+02  0.50173012820E+02  0.32501181817E+03  0.32965262561E+03  0.00000000000E+00 0.  1.
         22    1    3    3    0    0 -0.33359178340E+02 -0.62362008367E+02  0.37231672016E+03  0.37897439884E+03  0.00000000000E+00 0.  1.
</event>
<event>
 7    1  0.7118985E-006  0.3944859E+02  0.7818608E-02  0.1569200E+00
          2   -1    0    0  502    0  0.00000000000E+00  0.00000000000E+00  0.16660380988E+04  0.16660380988E+04  0.00000000000E+00 0. -1.
          1   -1    0    0  501    0 -0.00000000000E+00 -0.00000000000E+00 -0.58295117770E+03  0.58295117770E+03  0.00000000000E+00 0. -1.
         25    2    1    2    0    0 -0.10012332188E+02  0.86062028166E+01  0.16982787047E+03  0.21128509463E+03  0.12500228839E+03 0.  0.
          2    1    1    2  501    0 -0.12486232322E+02  0.24217352466E+02 -0.56162392139E+03  0.56228446114E+03  0.00000000000E+00 0. -1.
          1    1    1    2  502    0  0.22498564510E+02 -0.32823555283E+02  0.14748829720E+04  0.14754197207E+04  0.00000000000E+00 0. -1.
         22    1    3    3    0    0  0.41057675669E+01 -0.57671810522E+02  0.82700493378E+02  0.10090721808E+03  0.00000000000E+00 0.  1.
         22    1    3    3    0    0 -0.14118099755E+02  0.66278013338E+02  0.87127377094E+02  0.11037787655E+03  0.00000000000E+00 0.  1.
</event>
<event>
 7    1  0.7118985E-006  0.1114352E+03  0.7818608E-02  0.1289748E+00
          2   -1    0    0  502    0  0.00000000000E+00  0.00000000000E+00  0.55075135177E+03  0.55075135177E+03  0.00000000000E+00 0. -1.
          1   -1    0    0  501    0 -0.00000000000E+00 -0.00000000000E+00 -0.85462600701E+03  0.85462600701E+03  0.00000000000E+00 0. -1.
         25    2    1    2    0    0  0.57342622069E+02 -0.19632493621E+02 -0.20724751443E+03  0.24949881708E+03  0.12499806547E+03 0.  0.
          2    1    1    2  501    0  0.44641156716E+02  0.68876445745E+02 -0.61745180698E+03  0.62288324074E+03  0.00000000000E+00 0. -1.
          1    1    1    2  502    0 -0.10198377879E+03 -0.49243952125E+02  0.52082466617E+03  0.53299530096E+03  0.00000000000E+00 0. -1.
         22    1    3    3    0    0  0.60563714620E+02  0.43886873846E+02 -0.12272594727E+03  0.14372083829E+03  0.00000000000E+00 0.  1.
         22    1    3    3    0    0 -0.32210925503E+01 -0.63519367467E+02 -0.84521567165E+02  0.10577797879E+03  0.00000000000E+00 0.  1.
</event>
<event>
 7    1  0.7118985E-006  0.2348549E+03  0.7818608E-02  0.1128828E+00
          2   -1    0    0  502    0  0.00000000000E+00  0.00000000000E+00  0.47478405613E+03  0.47478405613E+03  0.00000000000E+00 0. -1.
          1   -1    0    0  501    0 -0.00000000000E+00 -0.00000000000E+00 -0.33000297383E+03  0.33000297383E+03  0.00000000000E+00 0. -1.
         25    2    1    2    0    0  0.18579908980E+03 -0.23426041153E+02 -0.71078708986E+02  0.23610260612E+03  0.12498870577E+03 0.  0.
          2    1    1    2  501    0 -0.82032626641E+02 -0.22006240656E+03  0.13010687985E+02  0.23521499233E+03  0.00000000000E+00 0. -1.
          1    1    1    2  502    0 -0.10376646316E+03  0.24348844771E+03  0.20284910330E+03  0.33346943151E+03  0.00000000000E+00 0. -1.
         22    1    3    3    0    0  0.63545171640E+02  0.16694187357E+02  0.30244223303E+02  0.72328402260E+02  0.00000000000E+00 0. -1.
         22    1    3    3    0    0  0.12225391816E+03 -0.40120228509E+02 -0.10132293229E+03  0.16377420386E+03  0.00000000000E+00 0. -1.
</event>
<event>
 7    1  0.7118985E-006  0.1639549E+03  0.7818608E-02  0.1249982E+00
          2   -1    0    0  502    0  0.00000000000E+00  0.00000000000E+00  0.20741904572E+04  0.20741904572E+04  0.00000000000E+00 0. -1.
          1   -1    0    0  501    0 -0.00000000000E+00 -0.00000000000E+00 -0.12525267386E+04  0.12525267386E+04  0.00000000000E+00 0. -1.
         25    2    1    2    0    0  0.17011313753E+03  0.21508523698E+02  0.27954535718E+02  0.21403131388E+03  0.12500740418E+03 0.  0.
          2    1    1    2  501    0 -0.13419940922E+03 -0.95180916165E+02 -0.11527852427E+04  0.11644667037E+04  0.00000000000E+00 0. -1.
          1    1    1    2  502    0 -0.35913728312E+02  0.73672392466E+02  0.19464944256E+04  0.19482191782E+04  0.00000000000E+00 0. -1.
         22    1    3    3    0    0  0.84469033449E+02  0.30527328926E+02 -0.45643775589E+02  0.10074864601E+03  0.00000000000E+00 0. -1.
         22    1    3    3    0    0  0.85644104086E+02 -0.90188052274E+01  0.73598311307E+02  0.11328266787E+03  0.00000000000E+00 0. -1.
</event>
<event>
 7    1  0.7118985E-006  0.1184646E+03  0.7818608E-02  0.1427991E+00
          2   -1    0    0  502    0  0.00000000000E+00  0.00000000000E+00  0.17077897332E+04  0.17077897332E+04  0.00000000000E+00 0. -1.
          1   -1    0    0  501    0 -0.00000000000E+00 -0.00000000000E+00 -0.82651356232E+02  0.82651356232E+02  0.00000000000E+00 0. -1.
         25    2    1    2    0    0  0.10457737225E+03 -0.93698618747E+02  0.52638568911E+03  0.55894755894E+03  0.12499848801E+03 0.  0.
          2    1    1    2  501    0 -0.86041466218E+02  0.78390710749E+02 -0.15108146114E+02  0.11737330838E+03  0.00000000000E+00 0. -1.
          1    1    1    2  502    0 -0.18535906030E+02  0.15307907998E+02  0.11138608339E+04  0.11141202221E+04  0.00000000000E+00 0. -1.
         22    1    3    3    0    0  0.91895410393E+02 -0.10919566897E+03  0.51789018264E+03  0.53719521763E+03  0.00000000000E+00 0.  1.
         22    1    3    3    0    0  0.12681961855E+02  0.15497050227E+02  0.84955064711E+01  0.21752341309E+02  0.00000000000E+00 0.  1.
</event>
<event>
 7    1  0.7118985E-006  0.8800723E+02  0.7818608E-02  0.1451247E+00
          2   -1    0    0  502    0  0.00000000000E+00  0.00000000000E+00  0.29363534620E+03  0.29363534620E+03  0.00000000000E+00 0. -1.
          1   -1    0    0  501    0 -0.00000000000E+00 -0.00000000000E+00 -0.19691258200E+04  0.19691258200E+04  0.00000000000E+00 0. -1.
         25    2    1    2    0    0 -0.92681069941E+02  0.21493955294E+02 -0.20577310654E+03  0.25887998234E+03  0.12499801216E+03 0.  0.
          2    1    1    2  501    0  0.76448267326E+02 -0.43312291191E+02 -0.17349924112E+04  0.17372158643E+04  0.00000000000E+00 0. -1.
          1    1    1    2  502    0  0.16232802615E+02  0.21818335897E+02  0.26527504400E+03  0.26666531951E+03  0.00000000000E+00 0. -1.
         22    1    3    3    0    0 -0.10279981983E+03  0.57172170637E+02 -0.13559931831E+03  0.17950942922E+03  0.00000000000E+00 0.  1.
         22    1    3    3    0    0  0.10118749888E+02 -0.35678215343E+02 -0.70173788226E+02  0.79370553125E+02  0.00000000000E+00 0.  1.
</event>
<event>
 7    1  0.7118985E-006  0.2215121E+03  0.7818608E-02  0.1176849E+00
          2   -1    0    0  502    0  0.00000000000E+00  0.00000000000E+00  0.25109088785E+04  0.25109088785E+04  0.00000000000E+00 0. -1.
          1   -1    0    0  501    0 -0.00000000000E+00 -0.00000000000E+00 -0.60988261189E+02  0.60988261189E+02  0.00000000000E+00 0. -1.
         25    2    1    2    0    0 -0.14625104210E+03 -0.28681483279E+03  0.11573460995E+04  0.12077778005E+04  0.12500042275E+03 0.  0.
          2    1    1    2  501    0  0.60098514698E+02  0.18687588286E+03  0.27415310721E+03  0.33718593276E+03  0.00000000000E+00 0. -1.
          1    1    1    2  502    0  0.86152527403E+02  0.99938949929E+02  0.10184214106E+04  0.10269334065E+04  0.00000000000E+00 0. -1.
         22    1    3    3    0    0  0.10912054651E+02  0.40033810276E+01  0.17846806783E+02  0.21298086972E+02  0.00000000000E+00 0.  1.
         22    1    3    3    0    0 -0.15716309675E+03 -0.29081821382E+03  0.11394992927E+04  0.11864797135E+04  0.00000000000E+00 0.  1.
</event>
<event>
 7    1  0.7118985E-006  0.8468532E+02  0.7818608E-02  0.1353576E+00
          2   -1    0    0  502    0  0.00000000000E+00  0.00000000000E+00  0.19101661636E+04  0.19101661636E+04  0.00000000000E+00 0. -1.
          1   -1    0    0  501    0 -0.00000000000E+00 -0.00000000000E+00 -0.50105355738E+03  0.50105355738E+03  0.00000000000E+00 0. -1.
         25    2    1    2    0    0  0.61354959803E+02 -0.86228504645E+02  0.20737580131E+03  0.26425511122E+03  0.12500501882E+03 0.  0.
          2    1    1    2  501    0  0.18482838201E+02  0.58273242624E+02 -0.46956276571E+03  0.47352568785E+03  0.00000000000E+00 0. -1.
          1    1    1    2  502    0 -0.79837798004E+02  0.27955262021E+02  0.16712995706E+04  0.16734389219E+04  0.00000000000E+00 0. -1.
         22    1    3    3    0    0  0.74988516486E+01 -0.98611356090E+02  0.86664825598E+02  0.13149610003E+03  0.00000000000E+00 0.  1.
         22    1    3    3    0    0  0.53856108154E+02  0.12382851445E+02  0.12071097571E+03  0.13275901119E+03  0.00000000000E+00 0.  1.
</event>
<event>
 7    1  0.7118985E-006  0.1662131E+03  0.7818608E-02  0.1340486E+00
          2   -1    0    0  502    0  0.00000000000E+00  0.00000000000E+00  0.28436192776E+03  0.28436192776E+03  0.00000000000E+00 0. -1.
          1   -1    0    0  501    0 -0.00000000000E+00 -0.00000000000E+00 -0.61227066852E+03  0.61227066852E+03  0.00000000000E+00 0. -1.
         25    2    1    2    0    0  0.10281863130E+03 -0.11232911906E+03 -0.23095145075E+03  0.30356766672E+03  0.12500101496E+03 0.  0.
          2    1    1    2  501    0  0.32442162470E+02  0.12717334077E+02 -0.31550210524E+03  0.31742054581E+03  0.00000000000E+00 0. -1.
          1    1    1    2  502    0 -0.13526079377E+03  0.99611784982E+02  0.21854481523E+03  0.27564438376E+03  0.00000000000E+00 0. -1.
         22    1    3    3    0    0  0.25217188999E+02 -0.11582612345E+03 -0.12600232356E+03  0.17299763882E+03  0.00000000000E+00 0. -1.
         22    1    3    3    0    0  0.77601442297E+02  0.34970043912E+01 -0.10494912719E+03  0.13057002790E+03  0.00000000000E+00 0. -1.
</event>
<event>
 7    1  0.1405728E-005  0.6090448E+02  0.7818608E-02  0.1456603E+00
          2   -1    0    0  502    0  0.00000000000E+00  0.00000000000E+00  0.17474984434E+04  0.17474984434E+04  0.00000000000E+00 0. -1.
          1   -1    0    0  501    0 -0.00000000000E+00 -0.00000000000E+00 -0.16231499767E+04  0.16231499767E+04  0.00000000000E+00 0. -1.
         25    2    1    2    0    0  0.37363273260E+02  0.61710151930E+02 -0.20106701563E+03  0.24750148570E+03  0.12499953445E+03 0.  0.
          2    1    1    2  501    0 -0.37775487195E+02 -0.80845736850E+00 -0.13980726183E+04  0.13985830998E+04  0.00000000000E+00 0. -1.
          1    1    1    2  502    0  0.41221393456E+00 -0.60901694561E+02  0.17234881007E+04  0.17245638346E+04  0.00000000000E+00 0. -1.
         22    1    3    3    0    0  0.82441416634E+02  0.25645169412E+02 -0.12763232733E+03  0.15409176769E+03  0.00000000000E+00 0. -1.
         22    1    3    3    0    0 -0.45078143374E+02  0.36064982518E+02 -0.73434688297E+02  0.93409718013E+02  0.00000000000E+00 0. -1.
</event>
<event>
 7    1  0.7118985E-006  0.1710289E+03  0.7818608E-02  0.1301201E+00
          2   -1    0    0  502    0  0.00000000000E+00  0.00000000000E+00  0.31568256380E+03  0.31568256380E+03  0.00000000000E+00 0. -1.
          1   -1    0    0  501    0 -0.00000000000E+00 -0.00000000000E+00 -0.62511134896E+03  0.62511134896E+03  0.00000000000E+00 0. -1.
         25    2    1    2    0    0  0.17647731247E+03  0.10777688199E+03 -0.10753216081E+03  0.26447821747E+03  0.12500185518E+03 0.  0.
          2    1    1    2  501    0 -0.24751423972E+02 -0.41224361693E+02 -0.40859329733E+03  0.41141288703E+03  0.00000000000E+00 0. -1.
          1    1    1    2  502    0 -0.15172588850E+03 -0.66552520295E+02  0.20669667299E+03  0.26490280826E+03  0.00000000000E+00 0. -1.
         22    1    3    3    0    0  0.84176267031E+02  0.62349907955E+02 -0.12176586384E+03  0.16062403478E+03  0.00000000000E+00 0. -1.
         22    1    3    3    0    0  0.92301045441E+02  0.45426974032E+02  0.14233703027E+02  0.10385418268E+03  0.00000000000E+00 0. -1.
</event>
<event>
 7    1  0.7118985E-006  0.2024672E+03  0.7818608E-02  0.1228469E+00
          2   -1    0    0  502    0  0.00000000000E+00  0.00000000000E+00  0.11814167374E+04  0.11814167374E+04  0.00000000000E+00 0. -1.
          1   -1    0    0  501    0 -0.00000000000E+00 -0.00000000000E+00 -0.11558812716E+04  0.11558812716E+04  0.00000000000E+00 0. -1.
         25    2    1    2    0    0  0.91855706113E+02  0.14621248476E+03  0.21519377142E+02  0.21423659857E+03  0.12497469796E+03 0.  0.
          2    1    1    2  501    0 -0.58781472273E+02  0.58027834795E+02 -0.10478193618E+04  0.10510698863E+04  0.00000000000E+00 0. -1.
          1    1    1    2  502    0 -0.33074233840E+02 -0.20424031956E+03  0.10518354504E+04  0.10719915241E+04  0.00000000000E+00 0. -1.
         22    1    3    3    0    0  0.11104580950E+03  0.97499307368E+02  0.48248440031E+02  0.15545159604E+03  0.00000000000E+00 0.  1.
         22    1    3    3    0    0 -0.19190103390E+02  0.48713177393E+02 -0.26729062889E+02  0.58785002533E+02  0.00000000000E+00 0.  1.
</event>
<event>
 7    1  0.7118985E-006  0.7068678E+02  0.7818608E-02  0.1370105E+00
          2   -1    0    0  502    0  0.00000000000E+00  0.00000000000E+00  0.61514813234E+03  0.61514813234E+03  0.00000000000E+00 0. -1.
          1   -1    0    0  501    0 -0.00000000000E+00 -0.00000000000E+00 -0.43008729027E+03  0.43008729027E+03  0.00000000000E+00 0. -1.
         25    2    1    2    0    0  0.18897856430E+02 -0.10016771832E+02  0.30992341483E+03  0.33486524618E+03  0.12499898137E+03 0.  0.
          2    1    1    2  501    0  0.25638740772E+02 -0.65873178050E+02 -0.40789517617E+03  0.41397475207E+03  0.00000000000E+00 0. -1.
          1    1    1    2  502    0 -0.44536597202E+02  0.75889949882E+02  0.28303260340E+03  0.29639542435E+03  0.00000000000E+00 0. -1.
         22    1    3    3    0    0  0.57982949538E+01 -0.50674224185E+02  0.27500092422E+03  0.27969091072E+03  0.00000000000E+00 0.  1.
         22    1    3    3    0    0  0.13099561476E+02  0.40657452352E+02  0.34922490615E+02  0.55174335460E+02  0.00000000000E+00 0.  1.
</event>
<event>
 7    1  0.7118985E-006  0.3640650E+02  0.7818608E-02  0.1602005E+00
          2   -1    0    0  502    0  0.00000000000E+00  0.00000000000E+00  0.11080523698E+04  0.11080523698E+04  0.00000000000E+00 0. -1.
          1   -1    0    0  501    0 -0.00000000000E+00 -0.00000000000E+00 -0.91483897935E+02  0.91483897935E+02  0.00000000000E+00 0. -1.
         25    2    1    2    0    0  0.48755055928E+02  0.37440985040E+01  0.52032563679E+02  0.14396080057E+03  0.12500500256E+03 0.  0.
          2    1    1    2  501    0 -0.32855675490E+02  0.14427291765E+02 -0.38279931146E+02  0.52468993588E+02  0.00000000000E+00 0. -1.
          1    1    1    2  502    0 -0.15899380438E+02 -0.18171390269E+02  0.10028158394E+04  0.10031064736E+04  0.00000000000E+00 0. -1.
         22    1    3    3    0    0  0.31401677799E+02  0.64042128894E+02  0.24207084161E+02  0.75322258101E+02  0.00000000000E+00 0.  1.
         22    1    3    3    0    0  0.17353378129E+02 -0.60298030390E+02  0.27825479518E+02  0.68638542466E+02  0.00000000000E+00 0.  1.
</event>
<event>
 7    1  0.7118985E-006  0.1489405E+03  0.7818608E-02  0.1300298E+00
          2   -1    0    0  502    0  0.00000000000E+00  0.00000000000E+00  0.19404242989E+04  0.19404242989E+04  0.00000000000E+00 0. -1.
          1   -1    0    0  501    0 -0.00000000000E+00 -0.00000000000E+00 -0.16906016024E+03  0.16906016024E+03  0.00000000000E+00 0. -1.
         25    2    1    2    0    0  0.98063617626E+02  0.11584421647E+03  0.52783814679E+03  0.56326822982E+03  0.12498653500E+03 0.  0.
          2    1    1    2  501    0 -0.13134491911E+03 -0.71210021655E+02 -0.11376155181E+03  0.18778723500E+03  0.00000000000E+00 0. -1.
          1    1    1    2  502    0  0.33281301483E+02 -0.44634194810E+02  0.13572875437E+04  0.13584289943E+04  0.00000000000E+00 0. -1.
         22    1    3    3    0    0  0.95443546842E+02  0.64315657672E+02  0.19481240267E+03  0.22626941174E+03  0.00000000000E+00 0.  1.
         22    1    3    3    0    0  0.26200707842E+01  0.51528558793E+02  0.33302574411E+03  0.33699881808E+03  0.00000000000E+00 0.  1.
</event>
<event>
 7    1  0.7118985E-006  0.1679192E+03  0.7818608E-02  0.1295776E+00
          2   -1    0    0  502    0  0.00000000000E+00  0.00000000000E+00  0.27695806447E+04  0.27695806447E+04  0.00000000000E+00 0. -1.
          1   -1    0    0  501    0 -0.00000000000E+00 -0.00000000000E+00 -0.50523966356E+02  0.50523966356E+02  0.00000000000E+00 0. -1.
         25    2    1    2    0    0 -0.16480330886E+03 -0.13066656860E+03  0.44451516650E+03  0.50739837689E+03  0.12500198744E+03 0.  0.
          2    1    1    2  501    0  0.49568743951E+02  0.13941395018E+02  0.25084341506E+02  0.57276933060E+02  0.00000000000E+00 0. -1.
          1    1    1    2  502    0  0.11523456491E+03  0.11672517358E+03  0.22494571704E+04  0.22554293011E+04  0.00000000000E+00 0. -1.
         22    1    3    3    0    0 -0.16345059257E+03 -0.12868640579E+03  0.31278928126E+03  0.37565066447E+03  0.00000000000E+00 0.  1.
         22    1    3    3    0    0 -0.13527162931E+01 -0.19801628044E+01  0.13172588524E+03  0.13174771242E+03  0.00000000000E+00 0.  1.
</event>
<event>
 7    1  0.7118985E-006  0.8111335E+02  0.7818608E-02  0.1393287E+00
          2   -1    0    0  502    0  0.00000000000E+00  0.00000000000E+00  0.24040888331E+02  0.24040888331E+02  0.00000000000E+00 0. -1.
          1   -1    0    0  501    0 -0.00000000000E+00 -0.00000000000E+00 -0.12280312861E+04  0.12280312861E+04  0.00000000000E+00 0. -1.
         25    2    1    2    0    0 -0.11039612050E+02  0.45705406544E+02 -0.46341051516E+03  0.48227208022E+03  0.12500478621E+03 0.  0.
          2    1    1    2  501    0  0.34339929849E+02 -0.85390219664E+02 -0.70666588099E+03  0.71263411914E+03  0.00000000000E+00 0. -1.
          1    1    1    2  502    0 -0.23300317799E+02  0.39684813120E+02 -0.33914001637E+02  0.57165975098E+02  0.00000000000E+00 0. -1.
         22    1    3    3    0    0 -0.41779841545E+01  0.58447830874E+02 -0.83076008993E+02  0.10166232220E+03  0.00000000000E+00 0.  1.
         22    1    3    3    0    0 -0.68616278956E+01 -0.12742424330E+02 -0.38033450617E+03  0.38060975802E+03  0.00000000000E+00 0.  1.
</event>
<event>
 7    1  0.7118985E-006  0.7234581E+02  0.7818608E-02  0.1424789E+00
          2   -1    0    0  502    0  0.00000000000E+00  0.00000000000E+00  0.61626433440E+03  0.61626433440E+03  0.00000000000E+00 0. -1.
          1   -1    0    0  501    0 -0.00000000000E+00 -0.00000000000E+00 -0.10792745355E+03  0.10792745355E+03  0.00000000000E+00 0. -1.
         25    2    1    2    0    0  0.46111711799E+02  0.72835521022E+02  0.36122426942E+03  0.39183647326E+03  0.12498618272E+03 0.  0.
          2    1    1    2  501    0  0.14410081253E+02 -0.37675164694E+02 -0.82757801751E+02  0.92064771911E+02  0.00000000000E+00 0. -1.
          1    1    1    2  502    0 -0.60521793052E+02 -0.35160356328E+02  0.22987041319E+03  0.24029054278E+03  0.00000000000E+00 0. -1.
         22    1    3    3    0    0  0.73109231198E+01  0.67435126895E+02  0.68140308413E+02  0.96145970102E+02  0.00000000000E+00 0. -1.
         22    1    3    3    0    0  0.38800788679E+02  0.54003941266E+01  0.29308396100E+03  0.29569050316E+03  0.00000000000E+00 0. -1.
</event>
<event>
 7    1  0.7118985E-006  0.1406224E+03  0.7818608E-02  0.1392784E+00
          2   -1    0    0  502    0  0.00000000000E+00  0.00000000000E+00  0.53317324574E+03  0.53317324574E+03  0.00000000000E+00 0. -1.
          1   -1    0    0  501    0 -0.00000000000E+00 -0.00000000000E+00 -0.63511392571E+03  0.63511392571E+03  0.00000000000E+00 0. -1.
         25    2    1    2    0    0 -0.29756932621E+02  0.11646705393E+03 -0.41065120440E+02  0.17822003417E+03  0.12500394703E+03 0.  0.
          2    1    1    2  501    0 -0.20388241574E+02  0.17164897948E+02 -0.51415581415E+03  0.51484610841E+03  0.00000000000E+00 0. -1.
          1    1    1    2  502    0  0.50145174196E+02 -0.13363195187E+03  0.45328025462E+03  0.47522102887E+03  0.00000000000E+00 0. -1.
         22    1    3    3    0    0 -0.77685823040E+02  0.55423387251E+02 -0.28528381834E+02  0.99602748586E+02  0.00000000000E+00 0.  1.
         22    1    3    3    0    0  0.47928890419E+02  0.61043666675E+02 -0.12536738606E+02  0.78617285586E+02  0.00000000000E+00 0.  1.
</event>
<event>
 7    1  0.1426850E-005  0.8486761E+02  0.7818608E-02  0.1385828E+00
          2   -1    0    0  502    0  0.00000000000E+00  0.00000000000E+00  0.17226823916E+04  0.17226823916E+04  0.00000000000E+00 0. -1.
          1   -1    0    0  501    0 -0.00000000000E+00 -0.00000000000E+00 -0.14927813812E+04  0.14927813812E+04  0.00000000000E+00 0. -1.
         25    2    1    2    0    0 -0.62110522684E+02  0.49907130176E+02 -0.51228287611E+03  0.53329845627E+03  0.12500023855E+03 0.  0.
          2    1    1    2  501    0 -0.22326617334E+02 -0.41019845171E+02 -0.96837505965E+03  0.96950057333E+03  0.00000000000E+00 0. -1.
          1    1    1    2  502    0  0.84437140018E+02 -0.88872850047E+01  0.17105589461E+04  0.17126647432E+04  0.00000000000E+00 0. -1.
         22    1    3    3    0    0 -0.14061668070E+02  0.62212802916E+02 -0.44586611575E+03  0.45040510269E+03  0.00000000000E+00 0. -1.
         22    1    3    3    0    0 -0.48048854614E+02 -0.12305672740E+02 -0.66416760355E+02  0.82893353577E+02  0.00000000000E+00 0. -1.
</event>
<event>
 7    1  0.7118985E-006  0.7759747E+02  0.7818608E-02  0.1457369E+00
          2   -1    0    0  502    0  0.00000000000E+00  0.00000000000E+00  0.64043968974E+03  0.64043968974E+03  0.00000000000E+00 0. -1.
          1   -1    0    0  501    0 -0.00000000000E+00 -0.00000000000E+00 -0.32513546052E+03  0.32513546052E+03  0.00000000000E+00 0. -1.
         25    2    1    2    0    0 -0.18288489209E+02  0.45581114516E+02 -0.44976711303E+02  0.14163561245E+03  0.12500254124E+03 0.  0.
          2    1    1    2  501    0 -0.14981952916E+02  0.25401581125E+02 -0.22828190624E+03  0.23017890423E+03  0.00000000000E+00 0. -1.
          1    1    1    2  502    0  0.33270442126E+02 -0.70982695641E+02  0.58856284676E+03  0.59376063358E+03  0.00000000000E+00 0. -1.
         22    1    3    3    0    0  0.34954008914E+02  0.71559976712E+01 -0.64001609638E+02  0.73274805206E+02  0.00000000000E+00 0. -1.
         22    1    3    3    0    0 -0.53242498123E+02  0.38425116845E+02  0.19024898335E+02  0.68360807248E+02  0.00000000000E+00 0. -1.
</event>
<event>
 7    1  0.7118985E-006  0.6128192E+02  0.7818608E-02  0.1423885E+00
          2   -1    0    0  502    0  0.00000000000E+00  0.00000000000E+00  0.13515423195E+04  0.13515423195E+04  0.00000000000E+00 0. -1.
          1   -1    0    0  501    0 -0.00000000000E+00 -0.00000000000E+00 -0.34282987205E+03  0.34282987205E+03  0.00000000000E+00 0. -1.
         25    2    1    2    0    0 -0.36671397503E+02  0.96626229862E+02  0.44625905405E+03  0.47482097758E+03  0.12500559080E+03 0.  0.
          2    1    1    2  501    0  0.36842819656E+02 -0.48676971001E+02 -0.32506031014E+03  0.33074317241E+03  0.00000000000E+00 0. -1.
          1    1    1    2  502    0 -0.17142215260E+00 -0.47949258860E+02  0.88751370352E+03  0.88880804157E+03  0.00000000000E+00 0. -1.
         22    1    3    3    0    0  0.32368087518E+01  0.98812565744E+02  0.40685552511E+03  0.41869537661E+03  0.00000000000E+00 0.  1.
         22    1    3    3    0    0 -0.39908206255E+02 -0.21863358821E+01  0.39403528941E+02  0.56125600969E+02  0.00000000000E+00 0.  1.
</event>
<event>
 7    1  0.7118985E-006  0.4765038E+02  0.7818608E-02  0.1516286E+00
          2   -1    0    0  502    0  0.00000000000E+00  0.00000000000E+00  0.70436756082E+03  0.70436756082E+03  0.00000000000E+00 0. -1.
          1   -1    0    0  501    0 -0.00000000000E+00 -0.00000000000E+00 -0.40717817182E+03  0.40717817182E+03  0.00000000000E+00 0. -1.
         25    2    1    2    0    0  0.37304197868E+02 -0.62811118494E+02  0.53771065048E+02  0.15444572427E+03  0.12500125809E+03 0.  0.
          2    1    1    2  501    0 -0.10185950465E+02  0.46212217795E+02 -0.35484799090E+03  0.35798941228E+03  0.00000000000E+00 0. -1.
          1    1    1    2  502    0 -0.27118247404E+02  0.16598900700E+02  0.59826631485E+03  0.59911059608E+03  0.00000000000E+00 0. -1.
         22    1    3    3    0    0  0.52521383624E+02  0.23207298988E+02  0.22165797290E+02  0.61549955594E+02  0.00000000000E+00 0.  1.
         22    1    3    3    0    0 -0.15217185756E+02 -0.86018417482E+02  0.31605267758E+02  0.92895768679E+02  0.00000000000E+00 0.  1.
</event>
<event>
 7    1  0.7118985E-006  0.1523536E+03  0.7818608E-02  0.1282843E+00
          2   -1    0    0  502    0  0.00000000000E+00  0.00000000000E+00  0.10884353065E+03  0.10884353065E+03  0.00000000000E+00 0. -1.
          1   -1    0    0  501    0 -0.00000000000E+00 -0.00000000000E+00 -0.21804520126E+04  0.21804520126E+04  0.00000000000E+00 0. -1.
         25    2    1    2    0    0  0.10616996435E+03 -0.16673602967E+03 -0.39066799164E+03  0.45532320525E+03  0.12499910649E+03 0.  0.
          2    1    1    2  501    0 -0.10716868255E+03  0.10267494230E+03 -0.17403087520E+04  0.17466258393E+04  0.00000000000E+00 0. -1.
          1    1    1    2  502    0  0.99871820121E+00  0.64061087366E+02  0.59368261632E+02  0.87346498738E+02  0.00000000000E+00 0. -1.
         22    1    3    3    0    0  0.21576730658E+02 -0.11211646309E+03 -0.29542935048E+03  0.31672410349E+03  0.00000000000E+00 0.  1.
         22    1    3    3    0    0  0.84593233691E+02 -0.54619566574E+02 -0.95238641158E+02  0.13859910176E+03  0.00000000000E+00 0.  1.
</event>
<event>
 7    1  0.7118985E-006  0.2941187E+02  0.7818608E-02  0.1652145E+00
          2   -1    0    0  502    0  0.00000000000E+00  0.00000000000E+00  0.13586743577E+04  0.13586743577E+04  0.00000000000E+00 0. -1.
          1   -1    0    0  501    0 -0.00000000000E+00 -0.00000000000E+00 -0.25015370593E+04  0.25015370593E+04  0.00000000000E+00 0. -1.
         25    2    1    2    0    0 -0.14234446150E+02 -0.28036993286E+02 -0.20620967543E+04  0.20661213892E+04  0.12500351452E+03 0.  0.
          2    1    1    2  501    0 -0.80458469834E+01  0.29533701727E+02 -0.43680044676E+03  0.43787167696E+03  0.00000000000E+00 0. -1.
          1    1    1    2  502    0  0.22280293134E+02 -0.14967084417E+01  0.13560344994E+04  0.13562183509E+04  0.00000000000E+00 0. -1.
         22    1    3    3    0    0 -0.56946234727E+02  0.15157365043E+02 -0.63385158946E+03  0.63658499576E+03  0.00000000000E+00 0. -1.
         22    1    3    3    0    0  0.42711788576E+02 -0.43194358328E+02 -0.14282451648E+04  0.14295363935E+04  0.00000000000E+00 0. -1.
</event>
<event>
 7    1  0.7118985E-006  0.1157726E+03  0.7818608E-02  0.1290875E+00
          2   -1    0    0  502    0  0.00000000000E+00  0.00000000000E+00  0.14892381673E+04  0.14892381673E+04  0.00000000000E+00 0. -1.
          1   -1    0    0  501    0 -0.00000000000E+00 -0.00000000000E+00 -0.68350274531E+03  0.68350274531E+03  0.00000000000E+00 0. -1.
         25    2    1    2    0    0  0.20455117533E+02 -0.16241940770E+03  0.26070598771E+03  0.33224964456E+03  0.12499495371E+03 0.  0.
          2    1    1    2  501    0  0.36794002832E+02  0.10918587310E+03 -0.64131048205E+03  0.65157845876E+03  0.00000000000E+00 0. -1.
          1    1    1    2  502    0 -0.57249120365E+02  0.53233534600E+02  0.11863399163E+04  0.11889128093E+04  0.00000000000E+00 0. -1.
         22    1    3    3    0    0 -0.17758991501E+02 -0.94432343640E+01  0.11762200674E+03  0.11932934645E+03  0.00000000000E+00 0.  1.
         22    1    3    3    0    0  0.38214109034E+02 -0.15297617334E+03  0.14308398097E+03  0.21292029811E+03  0.00000000000E+00 0.  1.
</event>
<event>
 7    1  0.7118985E-006  0.1063419E+03  0.7818608E-02  0.1336489E+00
          2   -1    0    0  502    0  0.00000000000E+00  0.00000000000E+00  0.12176852504E+04  0.12176852504E+04  0.00000000000E+00 0. -1.
          1   -1    0    0  501    0 -0.00000000000E+00 -0.00000000000E+00 -0.11071137995E+04  0.11071137995E+04  0.00000000000E+00 0. -1.
         25    2    1    2    0    0 -0.45212016281E+02 -0.47719575488E+02  0.23833875154E+02  0.14322808310E+03  0.12499978353E+03 0.  0.
          2    1    1    2  501    0 -0.55762520966E+02  0.83725736547E+01 -0.10440654487E+04  0.10455870216E+04  0.00000000000E+00 0. -1.
          1    1    1    2  502    0  0.10097453725E+03  0.39347001834E+02  0.11308030244E+04  0.11359839452E+04  0.00000000000E+00 0. -1.
         22    1    3    3    0    0  0.18278083194E+02  0.42043517864E+01  0.52966444671E+02  0.56189048402E+02  0.00000000000E+00 0. -1.
         22    1    3    3    0    0 -0.63490099474E+02 -0.51923927275E+02 -0.29132569518E+02  0.87039034700E+02  0.00000000000E+00 0. -1.
</event>
<event>
 7    1  0.7118985E-006  0.2317672E+03  0.7818608E-02  0.1262911E+00
          2   -1    0    0  502    0  0.00000000000E+00  0.00000000000E+00  0.21540216071E+03  0.21540216071E+03  0.00000000000E+00 0. -1.
          1   -1    0    0  501    0 -0.00000000000E+00 -0.00000000000E+00 -0.15155945421E+04  0.15155945421E+04  0.00000000000E+00 0. -1.
         25    2    1    2    0    0  0.11150680670E+03 -0.21281091150E+03  0.22027589621E+02  0.27172082192E+03  0.12499895346E+03 0.  0.
          2    1    1    2  501    0 -0.14849068907E+03  0.17765998862E+03 -0.13699669106E+04  0.13893962331E+04  0.00000000000E+00 0. -1.
          1    1    1    2  502    0  0.36983882373E+02  0.35150922881E+02  0.47746939624E+02  0.69879647811E+02  0.00000000000E+00 0. -1.
         22    1    3    3    0    0  0.40637016705E+02 -0.56623853578E+02  0.64569723452E+02  0.95009878999E+02  0.00000000000E+00 0. -1.
         22    1    3    3    0    0  0.70869789992E+02 -0.15618705792E+03 -0.42542133832E+02  0.17671094292E+03  0.00000000000E+00 0. -1.
</event>
<event>
 7    1  0.7118985E-006  0.9854259E+02  0.7818608E-02  0.1427051E+00
          2   -1    0    0  502    0  0.00000000000E+00  0.00000000000E+00  0.10804208140E+04  0.10804208140E+04  0.00000000000E+00 0. -1.
          1   -1    0    0  501    0 -0.00000000000E+00 -0.00000000000E+00 -0.44767276508E+03  0.44767276508E+03  0.00000000000E+00 0. -1.
         25    2    1    2    0    0  0.27773052805E+02 -0.75324506143E+02 -0.18119947652E+03  0.23431570597E+03  0.12500190433E+03 0.  0.
          2    1    1    2  501    0 -0.24127465864E+02  0.10420263159E+03 -0.22778056246E+03  0.25164321504E+03  0.00000000000E+00 0. -1.
          1    1    1    2  502    0 -0.36455869417E+01 -0.28878125450E+02  0.10417280879E+04  0.10421346581E+04  0.00000000000E+00 0. -1.
         22    1    3    3    0    0  0.28886915975E+02 -0.56139853822E+02 -0.19859834145E+03  0.20839251025E+03  0.00000000000E+00 0. -1.
         22    1    3    3    0    0 -0.11138631694E+01 -0.19184652321E+02  0.17398864926E+02  0.25923195724E+02  0.00000000000E+00 0. -1.
</event>
<event>
 7    1  0.7118985E-006  0.8053718E+02  0.7818608E-02  0.1502820E+00
          2   -1    0    0  502    0  0.00000000000E+00  0.00000000000E+00  0.87575776073E+03  0.87575776073E+03  0.00000000000E+00 0. -1.
          1   -1    0    0  501    0 -0.00000000000E+00 -0.00000000000E+00 -0.14496714317E+04  0.14496714317E+04  0.00000000000E+00 0. -1.
         25    2    1    2    0    0  0.36441482110E+02  0.62996904690E+02 -0.12836818059E+03  0.19339167092E+03  0.12500142789E+03 0.  0.
          2    1    1    2  501    0  0.19918027207E+02 -0.52982034180E+01 -0.12867800734E+04  0.12869451255E+04  0.00000000000E+00 0. -1.
          1    1    1    2  502    0 -0.56359509318E+02 -0.57698701273E+02  0.84123458293E+03  0.84509239609E+03  0.00000000000E+00 0. -1.
         22    1    3    3    0    0  0.41991789426E+02  0.84687063467E+02 -0.40710874077E+02  0.10292028161E+03  0.00000000000E+00 0.  1.
         22    1    3    3    0    0 -0.55503073157E+01 -0.21690158776E+02 -0.87657306510E+02  0.90471389310E+02  0.00000000000E+00 0.  1.
</event>
<event>
 7    1  0.7118985E-006  0.5822673E+02  0.7818608E-02  0.1422462E+00
          2   -1    0    0  502    0  0.00000000000E+00  0.00000000000E+00  0.40333133907E+03  0.40333133907E+03  0.00000000000E+00 0. -1.
          1   -1    0    0  501    0 -0.00000000000E+00 -0.00000000000E+00 -0.42823857604E+03  0.42823857604E+03  0.00000000000E+00 0. -1.
         25    2    1    2    0    0  0.93371914090E+02 -0.17735561180E+02 -0.11316855001E+03  0.19355549144E+03  0.12499497223E+03 0.  0.
          2    1    1    2  501    0 -0.47793154579E+02 -0.17851150407E+02 -0.27017186091E+03  0.27494669233E+03  0.00000000000E+00 0. -1.
          1    1    1    2  502    0 -0.45578759512E+02  0.35586711586E+02  0.35843317394E+03  0.36306773134E+03  0.00000000000E+00 0. -1.
         22    1    3    3    0    0  0.66989175521E+02  0.19581098997E+02 -0.12776122390E+03  0.14558124676E+03  0.00000000000E+00 0. -1.
         22    1    3    3    0    0  0.26382738569E+02 -0.37316660176E+02  0.14592673893E+02  0.47974244678E+02  0.00000000000E+00 0. -1.
</event>
<event>
 7    1  0.7118985E-006  0.2080021E+03  0.7818608E-02  0.1250062E+00
          2   -1    0    0  502    0  0.00000000000E+00  0.00000000000E+00  0.20411748941E+04  0.20411748941E+04  0.00000000000E+00 0. -1.
          1   -1    0    0  501    0 -0.00000000000E+00 -0.00000000000E+00 -0.23059472910E+04  0.23059472910E+04  0.00000000000E+00 0. -1.
         25    2    1    2    0    0 -0.15209240225E+03 -0.22590735771E+03  0.13928431817E+04  0.14247110063E+04  0.12499235724E+03 0.  0.
          2    1    1    2  501    0  0.11657386123E+03  0.17200536267E+03 -0.22836368485E+04  0.22930705540E+04  0.00000000000E+00 0. -1.
          1    1    1    2  502    0  0.35518541016E+02  0.53901995038E+02  0.62602126978E+03  0.62934062482E+03  0.00000000000E+00 0. -1.
         22    1    3    3    0    0 -0.16887428083E+03 -0.17131652773E+03  0.11845867321E+04  0.12087653210E+04  0.00000000000E+00 0. -1.
         22    1    3    3    0    0  0.16781878582E+02 -0.54590829973E+02  0.20825644967E+03  0.21594568529E+03  0.00000000000E+00 0. -1.
</event>
<event>
 7    1  0.7118985E-006  0.2467400E+02  0.7818608E-02  0.1699739E+00
          2   -1    0    0  502    0  0.00000000000E+00  0.00000000000E+00  0.86610447232E+01  0.86610447232E+01  0.00000000000E+00 0. -1.
          1   -1    0    0  501    0 -0.00000000000E+00 -0.00000000000E+00 -0.12580048309E+04  0.12580048309E+04  0.00000000000E+00 0. -1.
         25    2    1    2    0    0  0.12751320623E+02 -0.22481039710E+02 -0.57785887320E+03  0.59178842803E+03  0.12499869157E+03 0.  0.
          2    1    1    2  501    0  0.12301155796E+02  0.16422013416E+02 -0.56295859478E+03  0.56333238891E+03  0.00000000000E+00 0. -1.
          1    1    1    2  502    0 -0.25052476419E+02  0.60590262936E+01 -0.10852631815E+03  0.11154505864E+03  0.00000000000E+00 0. -1.
         22    1    3    3    0    0 -0.58248051218E+01  0.36356425970E+02 -0.42998492267E+03  0.43155851491E+03  0.00000000000E+00 0.  1.
         22    1    3    3    0    0  0.18576125745E+02 -0.58837465680E+02 -0.14787395052E+03  0.16022991312E+03  0.00000000000E+00 0.  1.
</event>
<event>
 7    1  0.7118985E-006  0.9507783E+02  0.7818608E-02  0.1371955E+00
          2   -1    0    0  502    0  0.00000000000E+00  0.00000000000E+00  0.11082449674E+04  0.11082449674E+04  0.00000000000E+00 0. -1.
          1   -1    0    0  501    0 -0.00000000000E+00 -0.00000000000E+00 -0.13118988423E+04  0.13118988423E+04  0.00000000000E+00 0. -1.
         25    2    1    2    0    0  0.10810272569E+03  0.75039162228E+02  0.59217324617E+03  0.61936370691E+03  0.12500069114E+03 0.  0.
          2    1    1    2  501    0 -0.41144336557E+02 -0.22069116831E+02 -0.12942529716E+04  0.12950948448E+04  0.00000000000E+00 0. -1.
          1    1    1    2  502    0 -0.66958389136E+02 -0.52970045398E+02  0.49842585061E+03  0.50568525799E+03  0.00000000000E+00 0. -1.
         22    1    3    3    0    0  0.52629454862E+02 -0.17225556681E+02  0.34980421880E+03  0.35416037443E+03  0.00000000000E+00 0.  1.
         22    1    3    3    0    0  0.55473270831E+02  0.92264718910E+02  0.24236902737E+03  0.26520333248E+03  0.00000000000E+00 0.  1.
</event>
<event>
 7    1  0.7118985E-006  0.7675528E+02  0.7818608E-02  0.1375926E+00
          2   -1    0    0  502    0  0.00000000000E+00  0.00000000000E+00  0.24098190251E+04  0.24098190251E+04  0.00000000000E+00 0. -1.
          1   -1    0    0  501    0 -0.00000000000E+00 -0.00000000000E+00 -0.33404360065E+03  0.33404360065E+03  0.00000000000E+00 0. -1.
         25    2    1    2    0    0 -0.44693658588E+02 -0.11926020129E+02  0.21373279460E+02  0.13498782292E+03  0.12500056875E+03 0.  0.
          2    1    1    2  501    0  0.42190243722E+02  0.67845457467E+02 -0.27113660631E+03  0.28266248786E+03  0.00000000000E+00 0. -1.
          1    1    1    2  502    0  0.25034148662E+01 -0.55919437337E+02  0.23255387513E+04  0.23262123150E+04  0.00000000000E+00 0. -1.
         22    1    3    3    0    0 -0.47494202034E+02 -0.41428371911E+02 -0.34421477197E+02  0.71811192153E+02  0.00000000000E+00 0.  1.
         22    1    3    3    0    0  0.28005434455E+01  0.29502351781E+02  0.55794756657E+02  0.63176630763E+02  0.00000000000E+00 0.  1.
</event>
<event>
 7    1  0.7118985E-006  0.2735136E+03  0.7818608E-02  0.1296710E+00
          2   -1    0    0  502    0  0.00000000000E+00  0.00000000000E+00  0.45116143317E+03  0.45116143317E+03  0.00000000000E+00 0. -1.
          1   -1    0    0  501    0 -0.00000000000E+00 -0.00000000000E+00 -0.55433263759E+03  0.55433263759E+03  0.00000000000E+00 0. -1.
         25    2    1    2    0    0  0.15378205652E+03 -0.21478992290E+03 -0.51746844466E+02  0.29679419435E+03  0.12500170400E+03 0.  0.
          2    1    1    2  501    0 -0.13736639507E+03  0.24148698343E+03 -0.32828803068E+03  0.43006804200E+03  0.00000000000E+00 0. -1.
          1    1    1    2  502    0 -0.16415661450E+02 -0.26697060534E+02  0.27686367072E+03  0.27863183441E+03  0.00000000000E+00 0. -1.
         22    1    3    3    0    0  0.13916093780E+03 -0.17597899703E+03  0.74943015744E+01  0.22447836992E+03  0.00000000000E+00 0.  1.
         22    1    3    3    0    0  0.14621118721E+02 -0.38810925866E+02 -0.59241146040E+02  0.72315824433E+02  0.00000000000E+00 0.  1.
</event>
<event>
 7    1  0.7118985E-006  0.3367656E+03  0.7818608E-02  0.1160999E+00
          2   -1    0    0  502    0  0.00000000000E+00  0.00000000000E+00  0.87396559134E+03  0.87396559134E+03  0.00000000000E+00 0. -1.
          1   -1    0    0  501    0 -0.00000000000E+00 -0.00000000000E+00 -0.49040360964E+03  0.49040360964E+03  0.00000000000E+00 0. -1.
         25    2    1    2    0    0 -0.77759702956E+02  0.30193285245E+03 -0.11716441388E+02  0.33611298322E+03  0.12499857476E+03 0.  0.
          2    1    1    2  501    0 -0.10309267108E+02 -0.35738867386E+03 -0.20962957968E+03  0.41446049977E+03  0.00000000000E+00 0. -1.
          1    1    1    2  502    0  0.88068970064E+02  0.55455821404E+02  0.60490800277E+03  0.61379571799E+03  0.00000000000E+00 0. -1.
         22    1    3    3    0    0 -0.55195879570E+02  0.96559980584E+02  0.47865440993E+02  0.12108474476E+03  0.00000000000E+00 0.  1.
         22    1    3    3    0    0 -0.22563823387E+02  0.20537287187E+03 -0.59581882381E+02  0.21502823846E+03  0.00000000000E+00 0.  1.
</event>
<event>
 7    1  0.7118985E-006  0.2628443E+03  0.7818608E-02  0.1195020E+00
          2   -1    0    0  502    0  0.00000000000E+00  0.00000000000E+00  0.31978387804E+04  0.31978387804E+04  0.00000000000E+00 0. -1.
          1   -1    0    0  501    0 -0.00000000000E+00 -0.00000000000E+00 -0.41164747225E+03  0.41164747225E+03  0.00000000000E+00 0. -1.
         25    2    1    2    0    0  0.29973775494E+03 -0.17979921768E+03  0.90114588516E+03  0.97460729166E+03  0.12499994485E+03 0.  0.
          2    1    1    2  501    0 -0.22279385483E+03  0.13150453352E+03 -0.32924398636E+03  0.41872681624E+03  0.00000000000E+00 0. -1.
          1    1    1    2  502    0 -0.76943900119E+02  0.48294684161E+02  0.22142894093E+04  0.22161521447E+04  0.00000000000E+00 0. -1.
         22    1    3    3    0    0  0.80488457571E+02  0.68321283385E+01  0.15394323781E+03  0.17384933203E+03  0.00000000000E+00 0. -1.
         22    1    3    3    0    0  0.21924929737E+03 -0.18663134602E+03  0.74720264735E+03  0.80075795963E+03  0.00000000000E+00 0. -1.
</event>
<event>
 7    1  0.7118985E-006  0.4469252E+02  0.7818608E-02  0.1566622E+00
          2   -1    0    0  502    0  0.00000000000E+00  0.00000000000E+00  0.16050538746E+04  0.16050538746E+04  0.00000000000E+00 0. -1.
          1   -1    0    0  501    0 -0.00000000000E+00 -0.00000000000E+00 -0.31960991425E+03  0.31960991425E+03  0.00000000000E+00 0. -1.
         25    2    1    2    0    0  0.60055798782E+01 -0.51961616417E+02  0.45940667026E+02  0.14308052244E+03  0.12500165776E+03 0.  0.
          2    1    1    2  501    0 -0.22163684189E+02  0.10304105138E+02 -0.27015774778E+03  0.27126115123E+03  0.00000000000E+00 0. -1.
          1    1    1    2  502    0  0.16158104311E+02  0.41657511279E+02  0.15096610411E+04  0.15103221152E+04  0.00000000000E+00 0. -1.
         22    1    3    3    0    0  0.22614239327E+02 -0.53023676468E+02 -0.30245590831E+02  0.65097694669E+02  0.00000000000E+00 0.  1.
         22    1    3    3    0    0 -0.16608659449E+02  0.10620600510E+01  0.76186257857E+02  0.77982827766E+02  0.00000000000E+00 0.  1.
</event>
<event>
 7    1  0.7118985E-006  0.1650710E+03  0.7818608E-02  0.1268147E+00
          2   -1    0    0  502    0  0.00000000000E+00  0.00000000000E+00  0.74260184840E+03  0.74260184840E+03  0.00000000000E+00 0. -1.
          1   -1    0    0  501    0 -0.00000000000E+00 -0.00000000000E+00 -0.65748654279E+03  0.65748654279E+03  0.00000000000E+00 0. -1.
         25    2    1    2    0    0  0.24331729642E+02  0.22644369331E+03  0.87015031985E+02  0.27398088639E+03  0.12500052402E+03 0.  0.
          2    1    1    2  501    0 -0.28753636657E+02 -0.15850972085E+03 -0.55035251915E+03  0.57344572417E+03  0.00000000000E+00 0. -1.
          1    1    1    2  502    0  0.44219070144E+01 -0.67933972459E+02  0.54845279277E+03  0.55266178064E+03  0.00000000000E+00 0. -1.
         22    1    3    3    0    0 -0.22440012333E+01  0.47535609514E+02 -0.32106891664E+02  0.57406639039E+02  0.00000000000E+00 0. -1.
         22    1    3    3    0    0  0.26575730876E+02  0.17890808380E+03  0.11912192365E+03  0.21657424735E+03  0.00000000000E+00 0. -1.
</event>
<event>
 7    1  0.7118985E-006  0.5098236E+02  0.7818608E-02  0.1495169E+00
          2   -1    0    0  502    0  0.00000000000E+00  0.00000000000E+00  0.20312488389E+04  0.20312488389E+04  0.00000000000E+00 0. -1.
          1   -1    0    0  501    0 -0.00000000000E+00 -0.00000000000E+00 -0.68650760394E+03  0.68650760394E+03  0.00000000000E+00 0. -1.
         25    2    1    2    0    0 -0.95805732139E+01  0.75066941509E+02  0.10506637193E+04  0.10607755241E+04  0.12499451395E+03 0.  0.
          2    1    1    2  501    0 -0.13049139660E+02 -0.49266212573E+02 -0.68019624540E+03  0.68210290426E+03  0.00000000000E+00 0. -1.
          1    1    1    2  502    0  0.22629712873E+02 -0.25800728936E+02  0.97427376108E+03  0.97487801444E+03  0.00000000000E+00 0. -1.
         22    1    3    3    0    0  0.31171132773E+02  0.90233850846E+02  0.54969586255E+03  0.55792412446E+03  0.00000000000E+00 0. -1.
         22    1    3    3    0    0 -0.40751705987E+02 -0.15166909337E+02  0.50096785671E+03  0.50285139966E+03  0.00000000000E+00 0. -1.
</event>
<event>
 7    1  0.7118985E-006  0.5499591E+02  0.7818608E-02  0.1548010E+00
          2   -1    0    0  502    0  0.00000000000E+00  0.00000000000E+00  0.28998510912E+03  0.28998510912E+03  0.00000000000E+00 0. -1.
          1   -1    0    0  501    0 -0.00000000000E+00 -0.00000000000E+00 -0.34744059342E+03  0.34744059342E+03  0.00000000000E+00 0. -1.
         25    2    1    2    0    0  0.38692937179E+02 -0.63035208929E+02  0.12059419404E+02  0.14574536864E+03  0.12500280770E+03 0.  0.
          2    1    1    2  501    0 -0.35919877539E+02  0.40848629337E+02 -0.27735615981E+03  0.28263985477E+03  0.00000000000E+00 0. -1.
          1    1    1    2  502    0 -0.27730596405E+01  0.22186579592E+02  0.20784125610E+03  0.20904047913E+03  0.00000000000E+00 0. -1.
         22    1    3    3    0    0 -0.36667642816E+02 -0.83599381198E+01 -0.25404858598E+02  0.45385145537E+02  0.00000000000E+00 0.  1.
         22    1    3    3    0    0  0.75360579996E+02 -0.54675270810E+02  0.37464278001E+02  0.10036022310E+03  0.00000000000E+00 0.  1.
</event>
<event>
 7    1  0.7118985E-006  0.4732482E+02  0.7818608E-02  0.1476574E+00
          2   -1    0    0  502    0  0.00000000000E+00  0.00000000000E+00  0.47418055814E+03  0.47418055814E+03  0.00000000000E+00 0. -1.
          1   -1    0    0  501    0 -0.00000000000E+00 -0.00000000000E+00 -0.90943355912E+03  0.90943355912E+03  0.00000000000E+00 0. -1.
         25    2    1    2    0    0  0.10350501107E+02 -0.27861322114E+01  0.97014860194E+02  0.15859420914E+03  0.12500137866E+03 0.  0.
          2    1    1    2  501    0 -0.37025430071E+02 -0.29805163819E+02 -0.87671752783E+03  0.87800504205E+03  0.00000000000E+00 0. -1.
          1    1    1    2  502    0  0.26674928965E+02  0.32591296030E+02  0.34444966666E+03  0.34701486607E+03  0.00000000000E+00 0. -1.
         22    1    3    3    0    0 -0.29256976249E+02  0.50488378542E+02  0.36938520932E+02  0.69061576551E+02  0.00000000000E+00 0. -1.
         22    1    3    3    0    0  0.39607477355E+02 -0.53274510754E+02  0.60076339262E+02  0.89532632585E+02  0.00000000000E+00 0. -1.
</event>
<event>
 7    1  0.7118985E-006  0.6314291E+02  0.7818608E-02  0.1494482E+00
          2   -1    0    0  502    0  0.00000000000E+00  0.00000000000E+00  0.35804685003E+04  0.35804685003E+04  0.00000000000E+00 0. -1.
          1   -1    0    0  501    0 -0.00000000000E+00 -0.00000000000E+00 -0.42967680880E+03  0.42967680880E+03  0.00000000000E+00 0. -1.
         25    2    1    2    0    0  0.30705234665E+02 -0.19363453975E+02  0.44972343634E+03  0.46818067299E+03  0.12499687431E+03 0.  0.
          2    1    1    2  501    0  0.22411092991E+02 -0.16519312628E+02 -0.41965779668E+03  0.42058032656E+03  0.00000000000E+00 0. -1.
          1    1    1    2  502    0 -0.53116327656E+02  0.35882766603E+02  0.31207260519E+04  0.31213843096E+04  0.00000000000E+00 0. -1.
         22    1    3    3    0    0 -0.86922649411E+01 -0.57957662210E+02  0.11635473781E+03  0.13028073952E+03  0.00000000000E+00 0. -1.
         22    1    3    3    0    0  0.39397499606E+02  0.38594208235E+02  0.33336869853E+03  0.33789993348E+03  0.00000000000E+00 0. -1.
</event>
<event>
 7    1  0.7118985E-006  0.6052741E+02  0.7818608E-02  0.1456096E+00
          2   -1    0    0  502    0  0.00000000000E+00  0.00000000000E+00  0.69618503438E+03  0.69618503438E+03  0.00000000000E+00 0. -1.
          1   -1    0    0  501    0 -0.00000000000E+00 -0.00000000000E+00 -0.38019018492E+03  0.38019018492E+03  0.00000000000E+00 0. -1.
         25    2    1    2    0    0 -0.20820175112E+02 -0.95773872081E+01  0.47897911445E+03  0.49555177863E+03  0.12500146874E+03 0.  0.
          2    1    1    2  501    0  0.51091856388E+02  0.32812084985E+02 -0.36764998438E+03  0.37263054320E+03  0.00000000000E+00 0. -1.
          1    1    1    2  502    0 -0.30271681276E+02 -0.23234697777E+02  0.20466571939E+03  0.20819289748E+03  0.00000000000E+00 0. -1.
         22    1    3    3    0    0  0.16727815913E+01 -0.57747001653E+02  0.36787671466E+03  0.37238527305E+03  0.00000000000E+00 0. -1.
         22    1    3    3    0    0 -0.22492956704E+02  0.48169614445E+02  0.11110239979E+03  0.12316650557E+03  0.00000000000E+00 0. -1.
</event>
<event>
 7    1  0.7118985E-006  0.4663866E+02  0.7818608E-02  0.1475729E+00
          2   -1    0    0  502    0  0.00000000000E+00  0.00000000000E+00  0.74245766523E+03  0.74245766523E+03  0.00000000000E+00 0. -1.
          1   -1    0    0  501    0 -0.00000000000E+00 -0.00000000000E+00 -0.11289968475E+03  0.11289968475E+03  0.00000000000E+00 0. -1.
         25    2    1    2    0    0  0.62972628447E+02  0.50174667511E+02  0.13283692880E+03  0.19938349661E+03  0.12500031950E+03 0.  0.
          2    1    1    2  501    0 -0.41955967369E+02 -0.93840441670E+01 -0.72832399418E+02  0.84574948346E+02  0.00000000000E+00 0. -1.
          1    1    1    2  502    0 -0.21016661079E+02 -0.40790623344E+02  0.56955345110E+03  0.57139890502E+03  0.00000000000E+00 0. -1.
         22    1    3    3    0    0 -0.32004293154E+02  0.39804055950E+02  0.31007131826E+02  0.59750145392E+02  0.00000000000E+00 0.  1.
         22    1    3    3    0    0  0.94976921601E+02  0.10370611561E+02  0.10182979697E+03  0.13963335122E+03  0.00000000000E+00 0.  1.
</event>
<event>
 7    1  0.7118985E-006  0.6200389E+02  0.7818608E-02  0.1391086E+00
          2   -1    0    0  502    0  0.00000000000E+00  0.00000000000E+00  0.21676392988E+03  0.21676392988E+03  0.00000000000E+00 0. -1.
          1   -1    0    0  501    0 -0.00000000000E+00 -0.00000000000E+00 -0.30843283430E+03  0.30843283430E+03  0.00000000000E+00 0. -1.
         25    2    1    2    0    0  0.68914135914E+02 -0.96791466463E+01 -0.15955136372E+02  0.14395352427E+03  0.12500082705E+03 0.  0.
          2    1    1    2  501    0 -0.25109101377E+02  0.55892115928E+02 -0.21741958123E+03  0.22588862277E+03  0.00000000000E+00 0. -1.
          1    1    1    2  502    0 -0.43805034537E+02 -0.46212969281E+02  0.14170581317E+03  0.15535461714E+03  0.00000000000E+00 0. -1.
         22    1    3    3    0    0  0.58474046252E+01  0.25127586927E+02 -0.55913754485E+02  0.61578695230E+02  0.00000000000E+00 0.  1.
         22    1    3    3    0    0  0.63066731289E+02 -0.34806733573E+02  0.39958618114E+02  0.82374829038E+02  0.00000000000E+00 0.  1.
</event>
<event>
 7    1  0.7118985E-006  0.6534808E+02  0.7818608E-02  0.1412933E+00
          2   -1    0    0  502    0  0.00000000000E+00  0.00000000000E+00  0.26579614660E+03  0.26579614660E+03  0.00000000000E+00 0. -1.
          1   -1    0    0  501    0 -0.00000000000E+00 -0.00000000000E+00 -0.16828401547E+03  0.16828401547E+03  0.00000000000E+00 0. -1.
         25    2    1    2    0    0  0.71360087363E+01  0.28363429541E+02  0.24390483869E+01  0.12839500587E+03  0.12499568720E+03 0.  0.
          2    1    1    2  501    0  0.46206466010E+02  0.16087360089E+02 -0.93065200123E+02  0.10514262756E+03  0.00000000000E+00 0. -1.
          1    1    1    2  502    0 -0.53342474746E+02 -0.44450789630E+02  0.18813828287E+03  0.20054252864E+03  0.00000000000E+00 0. -1.
         22    1    3    3    0    0  0.61609103485E+02  0.83869701864E+01  0.23786538241E+02  0.66571933294E+02  0.00000000000E+00 0. -1.
         22    1    3    3    0    0 -0.54473094748E+02  0.19976459354E+02 -0.21347489854E+02  0.61823072577E+02  0.00000000000E+00 0. -1.
</event>
<event>
 7    1  0.7118985E-006  0.1089353E+03  0.7818608E-02  0.1276473E+00
          2   -1    0    0  502    0  0.00000000000E+00  0.00000000000E+00  0.11621326432E+04  0.11621326432E+04  0.00000000000E+00 0. -1.
          1   -1    0    0  501    0 -0.00000000000E+00 -0.00000000000E+00 -0.34912872438E+04  0.34912872438E+04  0.00000000000E+00 0. -1.
         25    2    1    2    0    0 -0.17109413423E+03 -0.48672571213E+02 -0.28692025947E+03  0.35998700271E+03  0.12500073947E+03 0.  0.
          2    1    1    2  501    0  0.91758759404E+02 -0.25391735238E+02 -0.31644997078E+04  0.31659315866E+04  0.00000000000E+00 0. -1.
          1    1    1    2  502    0  0.79335374823E+02  0.74064306451E+02  0.11222653667E+04  0.11275012978E+04  0.00000000000E+00 0. -1.
         22    1    3    3    0    0 -0.14966022158E+03  0.73319043596E+01 -0.24365884423E+03  0.28604470125E+03  0.00000000000E+00 0.  1.
         22    1    3    3    0    0 -0.21433912649E+02 -0.56004475573E+02 -0.43261415243E+02  0.73942301455E+02  0.00000000000E+00 0.  1.
</event>
<event>
 7    1  0.7118985E-006  0.3250571E+03  0.7818608E-02  0.1201452E+00
          2   -1    0    0  502    0  0.00000000000E+00  0.00000000000E+00  0.65701784003E+03  0.65701784003E+03  0.00000000000E+00 0. -1.
          1   -1    0    0  501    0 -0.00000000000E+00 -0.00000000000E+00 -0.11395460946E+04  0.11395460946E+04  0.00000000000E+00 0. -1.
         25    2    1    2    0    0 -0.41465555999E+02  0.29609220224E+03  0.23303900825E+03  0.39915247873E+03  0.12500214938E+03 0.  0.
          2    1    1    2  501    0  0.34258559761E+02  0.59303618819E+02 -0.96228122693E+03  0.96471536104E+03  0.00000000000E+00 0. -1.
          1    1    1    2  502    0  0.72069962379E+01 -0.35539582106E+03  0.24671396410E+03  0.43269609486E+03  0.00000000000E+00 0. -1.
         22    1    3    3    0    0  0.34452223176E+02  0.10918171181E+03  0.43902610864E+02  0.12261745845E+03  0.00000000000E+00 0.  1.
         22    1    3    3    0    0 -0.75917779176E+02  0.18691049043E+03  0.18913639738E+03  0.27653502028E+03  0.00000000000E+00 0.  1.
</event>
<event>
 7    1  0.7118985E-006  0.9087785E+02  0.7818608E-02  0.1379668E+00
          2   -1    0    0  502    0  0.00000000000E+00  0.00000000000E+00  0.19016688445E+04  0.19016688445E+04  0.00000000000E+00 0. -1.
          1   -1    0    0  501    0 -0.00000000000E+00 -0.00000000000E+00 -0.37265589138E+03  0.37265589138E+03  0.00000000000E+00 0. -1.
         25    2    1    2    0    0  0.15923607293E+02 -0.12909152931E+03  0.50587701885E+03  0.53707949038E+03  0.12499854627E+03 0.  0.
          2    1    1    2  501    0 -0.19208637660E+02  0.41633341178E+02 -0.35418800199E+03  0.35714345523E+03  0.00000000000E+00 0. -1.
          1    1    1    2  502    0  0.32850303667E+01  0.87458188137E+02  0.13773239362E+04  0.13801017902E+04  0.00000000000E+00 0. -1.
         22    1    3    3    0    0  0.66993811610E+02 -0.99939497152E+02  0.36853622095E+03  0.38767901676E+03  0.00000000000E+00 0. -1.
         22    1    3    3    0    0 -0.51070204317E+02 -0.29152032162E+02  0.13734079791E+03  0.14940047362E+03  0.00000000000E+00 0. -1.
</event>
<event>
 7    1  0.7118985E-006  0.4711196E+02  0.7818608E-02  0.1464516E+00
          2   -1    0    0  502    0  0.00000000000E+00  0.00000000000E+00  0.23756682107E+04  0.23756682107E+04  0.00000000000E+00 0. -1.
          1   -1    0    0  501    0 -0.00000000000E+00 -0.00000000000E+00 -0.22989471020E+03  0.22989471020E+03  0.00000000000E+00 0. -1.
         25    2    1    2    0    0  0.43977228728E+01 -0.43107376928E+01  0.25205914309E+02  0.12766878387E+03  0.12500423126E+03 0.  0.
          2    1    1    2  501    0  0.10892542067E+02  0.47821664198E+02 -0.17506124305E+03  0.18180208430E+03  0.00000000000E+00 0. -1.
          1    1    1    2  502    0 -0.15290264939E+02 -0.43510926505E+02  0.22956288292E+04  0.22960920527E+04  0.00000000000E+00 0. -1.
         22    1    3    3    0    0 -0.32080517653E+01  0.57660024278E+02  0.29948960300E+02  0.65053133813E+02  0.00000000000E+00 0.  1.
         22    1    3    3    0    0  0.76057746381E+01 -0.61970761971E+02 -0.47430459912E+01  0.62615650059E+02  0.00000000000E+00 0.  1.
</event>
<event>
 7    1  0.7118985E-006  0.5380489E+02  0.7818608E-02  0.1490364E+00
          2   -1    0    0  502    0  0.00000000000E+00  0.00000000000E+00  0.49612948984E+03  0.49612948984E+03  0.00000000000E+00 0. -1.
          1   -1    0    0  501    0 -0.00000000000E+00 -0.00000000000E+00 -0.18896898076E+03  0.18896898076E+03  0.00000000000E+00 0. -1.
         25    2    1    2    0    0 -0.60721131407E+02 -0.61451411847E+02  0.21953346866E+03  0.26698872530E+03  0.12499881502E+03 0.  0.
          2    1    1    2  501    0  0.34189849647E+02  0.40800274483E+02 -0.15978760994E+03  0.16842116407E+03  0.00000000000E+00 0. -1.
          1    1    1    2  502    0  0.26531281760E+02  0.20651137364E+02  0.24741465035E+03  0.24968858123E+03  0.00000000000E+00 0. -1.
         22    1    3    3    0    0 -0.55606197032E+01 -0.27172254692E+02  0.19593767160E+03  0.19789093730E+03  0.00000000000E+00 0.  1.
         22    1    3    3    0    0 -0.55160511704E+02 -0.34279157154E+02  0.23595797065E+02  0.69097787995E+02  0.00000000000E+00 0.  1.
</event>
<event>
 7    1  0.7118985E-006  0.7805481E+02  0.7818608E-02  0.1380797E+00
          2   -1    0    0  502    0  0.00000000000E+00  0.00000000000E+00  0.55404614870E+03  0.55404614870E+03  0.00000000000E+00 0. -1.
          1   -1    0    0  501    0 -0.00000000000E+00 -0.00000000000E+00 -0.13118019457E+03  0.13118019457E+03  0.00000000000E+00 0. -1.
         25    2    1    2    0    0 -0.68613015083E+02 -0.39549909737E+02  0.15445390209E+03  0.21390178557E+03  0.12500409914E+03 0.  0.
          2    1    1    2  501    0 -0.10623046464E+02  0.51816696762E+02 -0.89815474204E+02  0.10423357706E+03  0.00000000000E+00 0. -1.
          1    1    1    2  502    0  0.79236061547E+02 -0.12266787026E+02  0.35822752624E+03  0.36709098064E+03  0.00000000000E+00 0. -1.
         22    1    3    3    0    0 -0.42226851287E+02 -0.51860422816E+02  0.16871039717E+03  0.18148225405E+03  0.00000000000E+00 0.  1.
         22    1    3    3    0    0 -0.26386163796E+02  0.12310513080E+02 -0.14256495076E+02  0.32419531520E+02  0.00000000000E+00 0.  1.
</event>
<event>
 7    1  0.7118985E-006  0.1358347E+03  0.7818608E-02  0.1372896E+00
          2   -1    0    0  502    0  0.00000000000E+00  0.00000000000E+00  0.99177639960E+03  0.99177639960E+03  0.00000000000E+00 0. -1.
          1   -1    0    0  501    0 -0.00000000000E+00 -0.00000000000E+00 -0.32005688688E+03  0.32005688688E+03  0.00000000000E+00 0. -1.
         25    2    1    2    0    0 -0.12396873149E+03 -0.63991380647E+02  0.65342380485E+02  0.19839008844E+03  0.12500342923E+03 0.  0.
          2    1    1    2  501    0  0.10288061943E+03  0.88625581404E+02 -0.23501631352E+03  0.27142509677E+03  0.00000000000E+00 0. -1.
          1    1    1    2  502    0  0.21088112058E+02 -0.24634200757E+02  0.84139344575E+03  0.84201810127E+03  0.00000000000E+00 0. -1.
         22    1    3    3    0    0 -0.55731502190E+02 -0.87862804186E+02  0.70864224391E+02  0.12588729481E+03  0.00000000000E+00 0.  1.
         22    1    3    3    0    0 -0.68237229298E+02  0.23871423539E+02 -0.55218439059E+01  0.72502793630E+02  0.00000000000E+00 0.  1.
</event>
<event>
 7    1  0.7118985E-006  0.2194299E+03  0.7818608E-02  0.1272867E+00
          2   -1    0    0  502    0  0.00000000000E+00  0.00000000000E+00  0.31909906324E+03  0.31909906324E+03  0.00000000000E+00 0. -1.
          1   -1    0    0  501    0 -0.00000000000E+00 -0.00000000000E+00 -0.22268203218E+03  0.22268203218E+03  0.00000000000E+00 0. -1.
         25    2    1    2    0    0  0.13030584605E+03 -0.14943878867E+03  0.43630210366E+02  0.23841119374E+03  0.12499894788E+03 0.  0.
          2    1    1    2  501    0  0.43929041192E+02 -0.21549540906E+02  0.31785448681E+02  0.58347734499E+02  0.00000000000E+00 0. -1.
          1    1    1    2  502    0 -0.17423488724E+03  0.17098832958E+03  0.21001372019E+02  0.24502216718E+03  0.00000000000E+00 0. -1.
         22    1    3    3    0    0  0.22211811503E+02 -0.11699687341E+02  0.57531696888E+02  0.62770561579E+02  0.00000000000E+00 0. -1.
         22    1    3    3    0    0  0.10809403455E+03 -0.13773910133E+03 -0.13901486521E+02  0.17564063216E+03  0.00000000000E+00 0. -1.
</event>
<event>
 7    1  0.7118985E-006  0.1215065E+03  0.7818608E-02  0.1373242E+00
          2   -1    0    0  502    0  0.00000000000E+00  0.00000000000E+00  0.16093573087E+03  0.16093573087E+03  0.00000000000E+00 0. -1.
          1   -1    0    0  501    0 -0.00000000000E+00 -0.00000000000E+00 -0.24843940356E+04  0.24843940356E+04  0.00000000000E+00 0. -1.
         25    2    1    2    0    0  0.14710232068E+02 -0.11255035819E+03 -0.57215394971E+03  0.59655180627E+03  0.12501976381E+03 0.  0.
          2    1    1    2  501    0  0.36113778905E+02  0.15766564123E+01 -0.18747962771E+04  0.18751447335E+04  0.00000000000E+00 0. -1.
          1    1    1    2  502    0 -0.50824010973E+02  0.11097370178E+03  0.12349192212E+03  0.17363322668E+03  0.00000000000E+00 0. -1.
         22    1    3    3    0    0 -0.50623412762E+02 -0.50128322570E+02 -0.34102895113E+03  0.34839105062E+03  0.00000000000E+00 0. -1.
         22    1    3    3    0    0  0.65333644831E+02 -0.62422035619E+02 -0.23112499857E+03  0.24816075565E+03  0.00000000000E+00 0. -1.
</event>
<event>
 7    1  0.7118985E-006  0.4233113E+03  0.7818608E-02  0.1285455E+00
          2   -1    0    0  502    0  0.00000000000E+00  0.00000000000E+00  0.11400542184E+04  0.11400542184E+04  0.00000000000E+00 0. -1.
          1   -1    0    0  501    0 -0.00000000000E+00 -0.00000000000E+00 -0.11078226753E+04  0.11078226753E+04  0.00000000000E+00 0. -1.
         25    2    1    2    0    0  0.39440560483E+03 -0.10494720259E+03  0.24148279979E+03  0.49041651111E+03  0.12499886130E+03 0.  0.
          2    1    1    2  501    0  0.21898453905E+02 -0.51537850960E+01 -0.92332246572E+03  0.92359649171E+03  0.00000000000E+00 0. -1.
          1    1    1    2  502    0 -0.41630405873E+03  0.11010098769E+03  0.71407120909E+03  0.83386389084E+03  0.00000000000E+00 0. -1.
         22    1    3    3    0    0  0.26541807714E+03 -0.68258335923E+02  0.90809405534E+02  0.28870799128E+03  0.00000000000E+00 0. -1.
         22    1    3    3    0    0  0.12898752769E+03 -0.36688866668E+02  0.15067339425E+03  0.20170851983E+03  0.00000000000E+00 0. -1.
</event>
<event>
 7    1  0.7118985E-006  0.7089506E+02  0.7818608E-02  0.1421782E+00
          2   -1    0    0  502    0  0.00000000000E+00  0.00000000000E+00  0.68670579831E+03  0.68670579831E+03  0.00000000000E+00 0. -1.
          1   -1    0    0  501    0 -0.00000000000E+00 -0.00000000000E+00 -0.15360540825E+04  0.15360540825E+04  0.00000000000E+00 0. -1.
         25    2    1    2    0    0  0.65930297759E+02 -0.24653588547E+02 -0.24294520540E+03  0.28213830134E+03  0.12500017867E+03 0.  0.
          2    1    1    2  501    0 -0.69398802541E+02 -0.17324050695E+02 -0.12718415636E+04  0.12738513569E+04  0.00000000000E+00 0. -1.
          1    1    1    2  502    0  0.34685047818E+01  0.41977639241E+02  0.66543848479E+03  0.66677022261E+03  0.00000000000E+00 0. -1.
         22    1    3    3    0    0 -0.15865545312E+02  0.37363123874E+02 -0.75980301287E+02  0.86143628536E+02  0.00000000000E+00 0. -1.
         22    1    3    3    0    0  0.81795843071E+02 -0.62016712420E+02 -0.16696490411E+03  0.19599467280E+03  0.00000000000E+00 0. -1.
</event>
<event>
 7    1  0.7118985E-006  0.1173499E+03  0.7818608E-02  0.1353446E+00
          2   -1    0    0  502    0  0.00000000000E+00  0.00000000000E+00  0.24922914868E+03  0.24922914868E+03  0.00000000000E+00 0. -1.
          1   -1    0    0  501    0 -0.00000000000E+00 -0.00000000000E+00 -0.82931839276E+03  0.82931839276E+03  0.00000000000E+00 0. -1.
         25    2    1    2    0    0  0.14244370479E+03  0.34515405335E+02 -0.21491438877E+03  0.28860824710E+03  0.12500001422E+03 0.  0.
          2    1    1    2  501    0 -0.11338808874E+03 -0.12523166897E+01 -0.56961016312E+03  0.58078753852E+03  0.00000000000E+00 0. -1.
          1    1    1    2  502    0 -0.29055616046E+02 -0.33263088645E+02  0.20443530780E+03  0.20915175583E+03  0.00000000000E+00 0. -1.
         22    1    3    3    0    0  0.47134770127E+02  0.73494519168E+02 -0.12121671801E+03  0.14938749488E+03  0.00000000000E+00 0.  1.
         22    1    3    3    0    0  0.95308934659E+02 -0.38979113834E+02 -0.93697670762E+02  0.13922075221E+03  0.00000000000E+00 0.  1.
</event>
<event>
 7    1  0.7118985E-006  0.6588709E+02  0.7818608E-02  0.1474039E+00
          2   -1    0    0  502    0  0.00000000000E+00  0.00000000000E+00  0.10588146726E+04  0.10588146726E+04  0.00000000000E+00 0. -1.
          1   -1    0    0  501    0 -0.00000000000E+00 -0.00000000000E+00 -0.99293313022E+02  0.99293313022E+02  0.00000000000E+00 0. -1.
         25    2    1    2    0    0  0.77666664898E+02 -0.25957178866E+01  0.20830288674E+03  0.25505682178E+03  0.12500016450E+03 0.  0.
          2    1    1    2  501    0 -0.16453760612E+02  0.26037612296E+02 -0.71434021069E+02  0.77791406071E+02  0.00000000000E+00 0. -1.
          1    1    1    2  502    0 -0.61212904286E+02 -0.23441894409E+02  0.82265249387E+03  0.82525975773E+03  0.00000000000E+00 0. -1.
         22    1    3    3    0    0  0.53585500179E+02 -0.44494027123E+01  0.22122436729E+03  0.22766515697E+03  0.00000000000E+00 0.  1.
         22    1    3    3    0    0  0.24081164719E+02  0.18536848256E+01 -0.12921480550E+02  0.27391664813E+02  0.00000000000E+00 0.  1.
</event>
<event>
 7    1  0.7118985E-006  0.7298205E+02  0.7818608E-02  0.1400708E+00
          2   -1    0    0  502    0  0.00000000000E+00  0.00000000000E+00  0.60184437607E+02  0.60184437607E+02  0.00000000000E+00 0. -1.
          1   -1    0    0  501    0 -0.00000000000E+00 -0.00000000000E+00 -0.18121638122E+04  0.18121638122E+04  0.00000000000E+00 0. -1.
         25    2    1    2    0    0 -0.40894290624E+02 -0.22469871675E+01 -0.29154257522E+03  0.31984127405E+03  0.12499590180E+03 0.  0.
          2    1    1    2  501    0  0.59461457660E+02  0.46744075480E+02 -0.14926213903E+04  0.14945364794E+04  0.00000000000E+00 0. -1.
          1    1    1    2  502    0 -0.18567167036E+02 -0.44497088313E+02  0.32184590881E+02  0.57970496377E+02  0.00000000000E+00 0. -1.
         22    1    3    3    0    0 -0.53203903842E+02 -0.54692051825E+02 -0.19299955313E+03  0.20753482461E+03  0.00000000000E+00 0.  1.
         22    1    3    3    0    0  0.12309613218E+02  0.52445064657E+02 -0.98543022088E+02  0.11230644944E+03  0.00000000000E+00 0.  1.
</event>
<event>
 7    1  0.7118985E-006  0.2776064E+03  0.7818608E-02  0.1221956E+00
          2   -1    0    0  502    0  0.00000000000E+00  0.00000000000E+00  0.32826418515E+04  0.32826418515E+04  0.00000000000E+00 0. -1.
          1   -1    0    0  501    0 -0.00000000000E+00 -0.00000000000E+00 -0.24954750088E+03  0.24954750088E+03  0.00000000000E+00 0. -1.
         25    2    1    2    0    0 -0.19230205601E+03  0.20834487826E+03  0.16510763392E+03  0.35110329408E+03  0.12500129316E+03 0.  0.
          2    1    1    2  501    0  0.55278948260E+02  0.33168854549E+02 -0.14324273815E+03  0.15708092521E+03  0.00000000000E+00 0. -1.
          1    1    1    2  502    0  0.13702310775E+03 -0.24151373281E+03  0.30112294548E+04  0.30240051331E+04  0.00000000000E+00 0. -1.
         22    1    3    3    0    0  0.13125930435E+01  0.66687618760E+02  0.57941075764E+02  0.88352304198E+02  0.00000000000E+00 0.  1.
         22    1    3    3    0    0 -0.19361464905E+03  0.14165725950E+03  0.10716655816E+03  0.26275098988E+03  0.00000000000E+00 0.  1.
</event>
<event>
 7    1  0.7118985E-006  0.1164467E+03  0.7818608E-02  0.1250550E+00
          2   -1    0    0  502    0  0.00000000000E+00  0.00000000000E+00  0.46309554974E+03  0.46309554974E+03  0.00000000000E+00 0. -1.
          1   -1    0    0  501    0 -0.00000000000E+00 -0.00000000000E+00 -0.19686405813E+04  0.19686405813E+04  0.00000000000E+00 0. -1.
         25    2    1    2    0    0 -0.77963130202E+02  0.11982112152E+03  0.13504492712E+03  0.23302043380E+03  0.12500415751E+03 0.  0.
          2    1    1    2  501    0 -0.41748857013E+02 -0.10688060895E+03 -0.19048570444E+04  0.19083099306E+04  0.00000000000E+00 0. -1.
          1    1    1    2  502    0  0.11971198722E+03 -0.12940512573E+02  0.26426708567E+03  0.29040576668E+03  0.00000000000E+00 0. -1.
         22    1    3    3    0    0 -0.70527991210E+02  0.77537000673E+01  0.23540678813E+02  0.74756143345E+02  0.00000000000E+00 0. -1.
         22    1    3    3    0    0 -0.74351389920E+01  0.11206742145E+03  0.11150424831E+03  0.15826429045E+03  0.00000000000E+00 0. -1.
</event>
<event>
 7    1  0.7118985E-006  0.1404209E+03  0.7818608E-02  0.1357013E+00
          2   -1    0    0  502    0  0.00000000000E+00  0.00000000000E+00  0.13020865603E+04  0.13020865603E+04  0.00000000000E+00 0. -1.
          1   -1    0    0  501    0 -0.00000000000E+00 -0.00000000000E+00 -0.10206313389E+04  0.10206313389E+04  0.00000000000E+00 0. -1.
         25    2    1    2    0    0  0.88071459914E+02  0.99866233215E+02  0.26161504258E+02  0.18450533433E+03  0.12501178945E+03 0.  0.
          2    1    1    2  501    0  0.28917031175E+02 -0.21125939807E+02 -0.93696193680E+03  0.93764607984E+03  0.00000000000E+00 0. -1.
          1    1    1    2  502    0 -0.11698849109E+03 -0.78740293408E+02  0.11922556539E+04  0.12005664850E+04  0.00000000000E+00 0. -1.
         22    1    3    3    0    0  0.34955384252E+02  0.28538898637E+02 -0.50046965857E+02  0.67387286747E+02  0.00000000000E+00 0. -1.
         22    1    3    3    0    0  0.53116075662E+02  0.71327334578E+02  0.76208470115E+02  0.11711804758E+03  0.00000000000E+00 0. -1.
</event>
<event>
 7    1  0.7118985E-006  0.8333662E+02  0.7818608E-02  0.1429205E+00
          2   -1    0    0  502    0  0.00000000000E+00  0.00000000000E+00  0.22155528424E+04  0.22155528424E+04  0.00000000000E+00 0. -1.
          1   -1    0    0  501    0 -0.00000000000E+00 -0.00000000000E+00 -0.61129674776E+03  0.61129674776E+03  0.00000000000E+00 0. -1.
         25    2    1    2    0    0 -0.11340444651E+03 -0.22482045207E+02  0.91247140529E+02  0.19317704589E+03  0.12500127823E+03 0.  0.
          2    1    1    2  501    0  0.31080740937E+02  0.13432945453E+02 -0.55899227015E+03  0.56001679847E+03  0.00000000000E+00 0. -1.
          1    1    1    2  502    0  0.82323705575E+02  0.90490997541E+01  0.20720012243E+04  0.20736557458E+04  0.00000000000E+00 0. -1.
         22    1    3    3    0    0  0.18488838685E+02 -0.24752831377E+02  0.42504572696E+02  0.52546917295E+02  0.00000000000E+00 0. -1.
         22    1    3    3    0    0 -0.13189328520E+03  0.22707861700E+01  0.48742567833E+02  0.14063012860E+03  0.00000000000E+00 0. -1.
</event>
<event>
 7    1  0.7118985E-006  0.7403446E+02  0.7818608E-02  0.1352743E+00
          2   -1    0    0  502    0  0.00000000000E+00  0.00000000000E+00  0.32078180061E+04  0.32078180061E+04  0.00000000000E+00 0. -1.
          1   -1    0    0  501    0 -0.00000000000E+00 -0.00000000000E+00 -0.28197499590E+02  0.28197499590E+02  0.00000000000E+00 0. -1.
         25    2    1    2    0    0  0.54598767501E+02  0.14063936286E+02  0.20272450227E+04  0.20318775424E+04  0.12500058291E+03 0.  0.
          2    1    1    2  501    0 -0.16799293475E+02 -0.73486102540E+02  0.32565138668E+02  0.82115234788E+02  0.00000000000E+00 0. -1.
          1    1    1    2  502    0 -0.37799474026E+02  0.59422166254E+02  0.11198103452E+04  0.11220227285E+04  0.00000000000E+00 0. -1.
         22    1    3    3    0    0  0.29243489622E+02  0.62516773161E+02  0.15451721817E+04  0.15467128369E+04  0.00000000000E+00 0. -1.
         22    1    3    3    0    0  0.25355277880E+02 -0.48452836875E+02  0.48207284095E+03  0.48516470554E+03  0.00000000000E+00 0. -1.
</event>
<event>
 7    1  0.7118985E-006  0.1259239E+03  0.7818608E-02  0.1329243E+00
          2   -1    0    0  502    0  0.00000000000E+00  0.00000000000E+00  0.14764865132E+04  0.14764865132E+04  0.00000000000E+00 0. -1.
          1   -1    0    0  501    0 -0.00000000000E+00 -0.00000000000E+00 -0.13840770950E+03  0.13840770950E+03  0.00000000000E+00 0. -1.
         25    2    1    2    0    0  0.14113835654E+01  0.15743747945E+03  0.91602160960E+03  0.93782135634E+03  0.12499902083E+03 0.  0.
          2    1    1    2  501    0  0.15110242718E+02 -0.48436408588E+02 -0.11664654974E+03  0.12720386267E+03  0.00000000000E+00 0. -1.
          1    1    1    2  502    0 -0.16521626284E+02 -0.10900107086E+03  0.53870374387E+03  0.54986900371E+03  0.00000000000E+00 0. -1.
         22    1    3    3    0    0 -0.70164039335E+01  0.16964893917E+03  0.90042628139E+03  0.91629552040E+03  0.00000000000E+00 0. -1.
         22    1    3    3    0    0  0.84277874989E+01 -0.12211459728E+02  0.15595328211E+02  0.21525835937E+02  0.00000000000E+00 0. -1.
</event>
<event>
 7    1  0.7118985E-006  0.2584070E+03  0.7818608E-02  0.1271790E+00
          2   -1    0    0  502    0  0.00000000000E+00  0.00000000000E+00  0.25700861464E+03  0.25700861464E+03  0.00000000000E+00 0. -1.
          1   -1    0    0  501    0 -0.00000000000E+00 -0.00000000000E+00 -0.28951080983E+04  0.28951080983E+04  0.00000000000E+00 0. -1.
         25    2    1    2    0    0  0.16982263653E+03  0.20059477222E+03  0.33888343507E+02  0.29300390285E+03  0.12499950697E+03 0.  0.
          2    1    1    2  501    0 -0.38322508245E+02  0.17144485775E+02 -0.25921794501E+04  0.25925194019E+04  0.00000000000E+00 0. -1.
          1    1    1    2  502    0 -0.13150012828E+03 -0.21773925799E+03 -0.79808377074E+02  0.26659340814E+03  0.00000000000E+00 0. -1.
         22    1    3    3    0    0  0.12600652369E+03  0.77368537726E+02 -0.24321819401E+02  0.14985021035E+03  0.00000000000E+00 0. -1.
         22    1    3    3    0    0  0.43816112836E+02  0.12322623449E+03  0.58210162908E+02  0.14315369250E+03  0.00000000000E+00 0. -1.
</event>
<event>
 7    1  0.7118985E-006  0.7293324E+02  0.7818608E-02  0.1378863E+00
          2   -1    0    0  502    0  0.00000000000E+00  0.00000000000E+00  0.95484611074E+03  0.95484611074E+03  0.00000000000E+00 0. -1.
          1   -1    0    0  501    0 -0.00000000000E+00 -0.00000000000E+00 -0.23248857439E+04  0.23248857439E+04  0.00000000000E+00 0. -1.
         25    2    1    2    0    0 -0.18687160403E+02  0.37394634880E+02 -0.14801931071E+03  0.19819787423E+03  0.12500044929E+03 0.  0.
          2    1    1    2  501    0 -0.30204766269E+02 -0.67674727260E+02 -0.21502488835E+04  0.21515256116E+04  0.00000000000E+00 0. -1.
          1    1    1    2  502    0  0.48891926673E+02  0.30280092381E+02  0.92822856103E+03  0.93000836878E+03  0.00000000000E+00 0. -1.
         22    1    3    3    0    0  0.19740886651E+02  0.68751208474E+02 -0.12385607634E+03  0.14302712651E+03  0.00000000000E+00 0.  1.
         22    1    3    3    0    0 -0.38428047055E+02 -0.31356573595E+02 -0.24163234369E+02  0.55170747713E+02  0.00000000000E+00 0.  1.
</event>
<event>
 7    1  0.7118985E-006  0.1164685E+03  0.7818608E-02  0.1421276E+00
          2   -1    0    0  502    0  0.00000000000E+00  0.00000000000E+00  0.21226866402E+03  0.21226866402E+03  0.00000000000E+00 0. -1.
          1   -1    0    0  501    0 -0.00000000000E+00 -0.00000000000E+00 -0.68458115264E+03  0.68458115264E+03  0.00000000000E+00 0. -1.
         25    2    1    2    0    0 -0.12037433319E+03  0.41059617851E+02 -0.30265792687E+03  0.35128441831E+03  0.12499219790E+03 0.  0.
          2    1    1    2  501    0  0.11180045721E+03 -0.16790697345E+02 -0.34772631571E+03  0.36564307786E+03  0.00000000000E+00 0. -1.
          1    1    1    2  502    0  0.85738759875E+01 -0.24268920506E+02  0.17807175396E+03  0.17992232049E+03  0.00000000000E+00 0. -1.
         22    1    3    3    0    0 -0.54868456040E+02  0.17845178127E+02 -0.26701898867E+03  0.27318151139E+03  0.00000000000E+00 0. -1.
         22    1    3    3    0    0 -0.65505877155E+02  0.23214439725E+02 -0.35638938195E+02  0.78102906919E+02  0.00000000000E+00 0. -1.
</event>
<event>
 7    1  0.7118985E-006  0.7693151E+02  0.7818608E-02  0.1375411E+00
          2   -1    0    0  502    0  0.00000000000E+00  0.00000000000E+00  0.18470735551E+03  0.18470735551E+03  0.00000000000E+00 0. -1.
          1   -1    0    0  501    0 -0.00000000000E+00 -0.00000000000E+00 -0.72565583749E+03  0.72565583749E+03  0.00000000000E+00 0. -1.
         25    2    1    2    0    0 -0.78000586400E+02  0.35398254630E+02 -0.13951719662E+02  0.15217367384E+03  0.12500019447E+03 0.  0.
          2    1    1    2  501    0  0.43812173299E+02  0.35012088669E+02 -0.62794889485E+03  0.63044838601E+03  0.00000000000E+00 0. -1.
          1    1    1    2  502    0  0.34188413102E+02 -0.70410343299E+02  0.10095213254E+03  0.12774113315E+03  0.00000000000E+00 0. -1.
         22    1    3    3    0    0 -0.28711028774E+02 -0.47194988360E+02 -0.23272668278E+01  0.55291104804E+02  0.00000000000E+00 0. -1.
         22    1    3    3    0    0 -0.49289557626E+02  0.82593242990E+02 -0.11624452835E+02  0.96882569032E+02  0.00000000000E+00 0. -1.
</event>
<event>
 7    1  0.7118985E-006  0.1264081E+03  0.7818608E-02  0.1320257E+00
          2   -1    0    0  502    0  0.00000000000E+00  0.00000000000E+00  0.11875116671E+04  0.11875116671E+04  0.00000000000E+00 0. -1.
          1   -1    0    0  501    0 -0.00000000000E+00 -0.00000000000E+00 -0.94312122203E+03  0.94312122203E+03  0.00000000000E+00 0. -1.
         25    2    1    2    0    0  0.13926476997E+03  0.27172082046E+02  0.19010788351E+03  0.26813950404E+03  0.12499915222E+03 0.  0.
          2    1    1    2  501    0 -0.34510118724E+02  0.42487520996E+02 -0.89914125296E+03  0.90080582287E+03  0.00000000000E+00 0. -1.
          1    1    1    2  502    0 -0.10475465125E+03 -0.69659603042E+02  0.95342381450E+03  0.96168756221E+03  0.00000000000E+00 0. -1.
         22    1    3    3    0    0  0.47074070318E+02 -0.32203459999E+02  0.13253839269E+03  0.14428948842E+03  0.00000000000E+00 0.  1.
         22    1    3    3    0    0  0.92190699653E+02  0.59375542044E+02  0.57569490821E+02  0.12385001562E+03  0.00000000000E+00 0.  1.
</event>
<event>
 7    1  0.7118985E-006  0.1061605E+03  0.7818608E-02  0.1322642E+00
          2   -1    0    0  502    0  0.00000000000E+00  0.00000000000E+00  0.11703534960E+04  0.11703534960E+04  0.00000000000E+00 0. -1.
          1   -1    0    0  501    0 -0.00000000000E+00 -0.00000000000E+00 -0.32967011076E+03  0.32967011076E+03  0.00000000000E+00 0. -1.
         25    2    1    2    0    0  0.17148932216E+02  0.50004926155E+02  0.17652760430E+03  0.22267286667E+03  0.12500652765E+03 0.  0.
          2    1    1    2  501    0 -0.72968957684E+02 -0.80913311477E+02 -0.29582488208E+03  0.31525195260E+03  0.00000000000E+00 0. -1.
          1    1    1    2  502    0  0.55820025468E+02  0.30908385322E+02  0.95998066303E+03  0.96209878751E+03  0.00000000000E+00 0. -1.
         22    1    3    3    0    0 -0.54079640347E+02  0.25662739401E+02  0.67964681605E+02  0.90567000829E+02  0.00000000000E+00 0. -1.
         22    1    3    3    0    0  0.71228572563E+02  0.24342186754E+02  0.10856292270E+03  0.13210586584E+03  0.00000000000E+00 0. -1.
</event>
<event>
 7    1  0.7118985E-006  0.9218371E+02  0.7818608E-02  0.1369216E+00
          2   -1    0    0  502    0  0.00000000000E+00  0.00000000000E+00  0.12025082298E+04  0.12025082298E+04  0.00000000000E+00 0. -1.
          1   -1    0    0  501    0 -0.00000000000E+00 -0.00000000000E+00 -0.14248791455E+04  0.14248791455E+04  0.00000000000E+00 0. -1.
         25    2    1    2    0    0 -0.50980655489E+02 -0.32977085170E+02  0.55532790582E+02  0.14965054744E+03  0.12499952055E+03 0.  0.
          2    1    1    2  501    0  0.43913356923E+02  0.81725916369E+02 -0.13757055629E+04  0.13788304116E+04  0.00000000000E+00 0. -1.
          1    1    1    2  502    0  0.70672985663E+01 -0.48748831199E+02  0.10978018566E+04  0.10989064162E+04  0.00000000000E+00 0. -1.
         22    1    3    3    0    0  0.30666533239E+02 -0.21983364521E+02 -0.15577711035E+02  0.40821191281E+02  0.00000000000E+00 0. -1.
         22    1    3    3    0    0 -0.81647188728E+02 -0.10993720649E+02  0.71110501617E+02  0.10882935616E+03  0.00000000000E+00 0. -1.
</event>
<event>
 7    1  0.7118985E-006  0.1464306E+03  0.7818608E-02  0.1284006E+00
          2   -1    0    0  502    0  0.00000000000E+00  0.00000000000E+00  0.46636272976E+03  0.46636272976E+03  0.00000000000E+00 0. -1.
          1   -1    0    0  501    0 -0.00000000000E+00 -0.00000000000E+00 -0.15557946860E+04  0.15557946860E+04  0.00000000000E+00 0. -1.
         25    2    1    2    0    0  0.91745353671E+02  0.53990824766E+01  0.27568280652E+02  0.15757646846E+03  0.12499589314E+03 0.  0.
          2    1    1    2  501    0 -0.14493241664E+03  0.33562418327E+02 -0.14841353393E+04  0.14915728433E+04  0.00000000000E+00 0. -1.
          1    1    1    2  502    0  0.53187062970E+02 -0.38961500804E+02  0.36713510245E+03  0.37300810402E+03  0.00000000000E+00 0. -1.
         22    1    3    3    0    0  0.11125493644E+03  0.33902711368E+02  0.36501107792E+02  0.12189907953E+03  0.00000000000E+00 0. -1.
         22    1    3    3    0    0 -0.19509582773E+02 -0.28503628892E+02 -0.89328271406E+01  0.35677388927E+02  0.00000000000E+00 0. -1.
</event>
<event>
 7    1  0.8093701E-006  0.9556084E+02  0.7818608E-02  0.1368138E+00
          2   -1    0    0  502    0  0.00000000000E+00  0.00000000000E+00  0.21969688304E+04  0.21969688304E+04  0.00000000000E+00 0. -1.
          1   -1    0    0  501    0 -0.00000000000E+00 -0.00000000000E+00 -0.15220419390E+04  0.15220419390E+04  0.00000000000E+00 0. -1.
         25    2    1    2    0    0 -0.55951364232E+02  0.44913276869E+02 -0.74607114903E+03  0.75986544111E+03  0.12500228629E+03 0.  0.
          2    1    1    2  501    0  0.60880082242E+02 -0.92603467354E+02 -0.76481700938E+03  0.77280453183E+03  0.00000000000E+00 0. -1.
          1    1    1    2  502    0 -0.49287180100E+01  0.47690190485E+02  0.21858150497E+04  0.21863407965E+04  0.00000000000E+00 0. -1.
         22    1    3    3    0    0  0.13071636345E+02  0.69604408684E+02 -0.36461464947E+03  0.37142897571E+03  0.00000000000E+00 0. -1.
         22    1    3    3    0    0 -0.69023000577E+02 -0.24691131815E+02 -0.38145649956E+03  0.38843646540E+03  0.00000000000E+00 0. -1.
</event>
<event>
 7    1  0.7118985E-006  0.1177266E+03  0.7818608E-02  0.1356722E+00
          2   -1    0    0  502    0  0.00000000000E+00  0.00000000000E+00  0.15928184989E+03  0.15928184989E+03  0.00000000000E+00 0. -1.
          1   -1    0    0  501    0 -0.00000000000E+00 -0.00000000000E+00 -0.26718448538E+04  0.26718448538E+04  0.00000000000E+00 0. -1.
         25    2    1    2    0    0  0.10383596718E+02  0.11475161417E+03 -0.22702423278E+03  0.28361772254E+03  0.12499303274E+03 0.  0.
          2    1    1    2  501    0 -0.42817158427E+02 -0.54022329150E+00 -0.23893884216E+04  0.23897720875E+04  0.00000000000E+00 0. -1.
          1    1    1    2  502    0  0.32433561710E+02 -0.11421139088E+03  0.10384965044E+03  0.15773689368E+03  0.00000000000E+00 0. -1.
         22    1    3    3    0    0 -0.18006865767E+02  0.98141362054E+02 -0.22988059282E+03  0.25060139887E+03  0.00000000000E+00 0.  1.
         22    1    3    3    0    0  0.28390462484E+02  0.16610252113E+02  0.28563600494E+01  0.33016323661E+02  0.00000000000E+00 0.  1.
</event>
<event>
 7    1  0.7118985E-006  0.5201153E+02  0.7818608E-02  0.1468580E+00
          2   -1    0    0  502    0  0.00000000000E+00  0.00000000000E+00  0.62949607907E+02  0.62949607907E+02  0.00000000000E+00 0. -1.
          1   -1    0    0  501    0 -0.00000000000E+00 -0.00000000000E+00 -0.19525557572E+04  0.19525557572E+04  0.00000000000E+00 0. -1.
         25    2    1    2    0    0 -0.50718034636E+01  0.25719755346E+02 -0.91509446768E+03  0.92396438424E+03  0.12500027824E+03 0.  0.
          2    1    1    2  501    0  0.37478989121E+02  0.15534106266E+02 -0.10207836434E+04  0.10215895603E+04  0.00000000000E+00 0. -1.
          1    1    1    2  502    0 -0.32407185657E+02 -0.41253861612E+02  0.46271961837E+02  0.69951420517E+02  0.00000000000E+00 0. -1.
         22    1    3    3    0    0  0.36982218010E+02  0.22100873247E+02 -0.80349718995E+03  0.80465139489E+03  0.00000000000E+00 0. -1.
         22    1    3    3    0    0 -0.42054021474E+02  0.36188820989E+01 -0.11159727773E+03  0.11931298934E+03  0.00000000000E+00 0. -1.
</event>
<event>
 7    1  0.7118985E-006  0.4673075E+02  0.7818608E-02  0.1503229E+00
          2   -1    0    0  502    0  0.00000000000E+00  0.00000000000E+00  0.22540351768E+04  0.22540351768E+04  0.00000000000E+00 0. -1.
          1   -1    0    0  501    0 -0.00000000000E+00 -0.00000000000E+00 -0.22188190069E+03  0.22188190069E+03  0.00000000000E+00 0. -1.
         25    2    1    2    0    0 -0.47309642670E+02  0.24960077800E+02  0.40945262725E+03  0.43144367264E+03  0.12502392140E+03 0.  0.
          2    1    1    2  501    0  0.17136853206E+02 -0.43515596147E+02 -0.20811999612E+03  0.21331013017E+03  0.00000000000E+00 0. -1.
          1    1    1    2  502    0  0.30172789465E+02  0.18555518347E+02  0.18308206449E+04  0.18311632746E+04  0.00000000000E+00 0. -1.
         22    1    3    3    0    0 -0.70177378142E+02 -0.78677887564E+01  0.36445118004E+03  0.37122961780E+03  0.00000000000E+00 0.  1.
         22    1    3    3    0    0  0.22867735472E+02  0.32827866556E+02  0.45001447212E+02  0.60214054833E+02  0.00000000000E+00 0.  1.
</event>
<event>
 7    1  0.7118985E-006  0.1231325E+03  0.7818608E-02  0.1340375E+00
          2   -1    0    0  502    0  0.00000000000E+00  0.00000000000E+00  0.16131058608E+04  0.16131058608E+04  0.00000000000E+00 0. -1.
          1   -1    0    0  501    0 -0.00000000000E+00 -0.00000000000E+00 -0.16383434107E+03  0.16383434107E+03  0.00000000000E+00 0. -1.
         25    2    1    2    0    0  0.78998500428E+02 -0.10938039142E+02  0.34755740515E+03  0.37786579138E+03  0.12500401053E+03 0.  0.
          2    1    1    2  501    0 -0.12604241476E+03  0.90370230713E+01 -0.12129494616E+03  0.17515941901E+03  0.00000000000E+00 0. -1.
          1    1    1    2  502    0  0.47043914332E+02  0.19010160706E+01  0.12230090608E+04  0.12239149915E+04  0.00000000000E+00 0. -1.
         22    1    3    3    0    0  0.11169100769E+02  0.53539977999E+02  0.12800707837E+03  0.13920161698E+03  0.00000000000E+00 0. -1.
         22    1    3    3    0    0  0.67829399660E+02 -0.64478017141E+02  0.21955032678E+03  0.23866417440E+03  0.00000000000E+00 0. -1.
</event>
<event>
 7    1  0.7118985E-006  0.4381838E+02  0.7818608E-02  0.1515975E+00
          2   -1    0    0  502    0  0.00000000000E+00  0.00000000000E+00  0.32619328231E+04  0.32619328231E+04  0.00000000000E+00 0. -1.
          1   -1    0    0  501    0 -0.00000000000E+00 -0.00000000000E+00 -0.71384820139E+02  0.71384820139E+02  0.00000000000E+00 0. -1.
         25    2    1    2    0    0 -0.61657268839E+02  0.48012820889E+02  0.11819230935E+03  0.18894576245E+03  0.12499691751E+03 0.  0.
          2    1    1    2  501    0  0.28840860608E+02 -0.19200874775E+02 -0.27483832905E+02  0.44224765730E+02  0.00000000000E+00 0. -1.
          1    1    1    2  502    0  0.32816408231E+02 -0.28811946114E+02  0.30998395265E+04  0.31001471151E+04  0.00000000000E+00 0. -1.
         22    1    3    3    0    0 -0.55097728034E+02  0.21702424069E+02  0.14137146845E+03  0.15327311224E+03  0.00000000000E+00 0.  1.
         22    1    3    3    0    0 -0.65595408057E+01  0.26310396820E+02 -0.23179159095E+02  0.35672650206E+02  0.00000000000E+00 0.  1.
</event>
<event>
 7    1  0.7154233E-006  0.1502654E+03  0.7818608E-02  0.1386682E+00
          2   -1    0    0  502    0  0.00000000000E+00  0.00000000000E+00  0.31868712487E+04  0.31868712487E+04  0.00000000000E+00 0. -1.
          1   -1    0    0  501    0 -0.00000000000E+00 -0.00000000000E+00 -0.11956494462E+04  0.11956494462E+04  0.00000000000E+00 0. -1.
         25    2    1    2    0    0  0.15983901260E+02 -0.12331765485E+03 -0.46175942852E+03  0.49427765408E+03  0.12500360155E+03 0.  0.
          2    1    1    2  501    0  0.67024875661E+01 -0.25323254610E+02 -0.71560844410E+03  0.71608772915E+03  0.00000000000E+00 0. -1.
          1    1    1    2  502    0 -0.22686388826E+02  0.14864090946E+03  0.31685896751E+04  0.31721553117E+04  0.00000000000E+00 0. -1.
         22    1    3    3    0    0  0.50282898055E+02 -0.31373018219E+02 -0.76815247106E+02  0.97021741362E+02  0.00000000000E+00 0. -1.
         22    1    3    3    0    0 -0.34298996796E+02 -0.91944636630E+02 -0.38494418142E+03  0.39725591272E+03  0.00000000000E+00 0. -1.
</event>
<event>
 7    1  0.7118985E-006  0.1147711E+03  0.7818608E-02  0.1327645E+00
          2   -1    0    0  502    0  0.00000000000E+00  0.00000000000E+00  0.49739269038E+04  0.49739269038E+04  0.00000000000E+00 0. -1.
          1   -1    0    0  501    0 -0.00000000000E+00 -0.00000000000E+00 -0.78478111484E+02  0.78478111484E+02  0.00000000000E+00 0. -1.
         25    2    1    2    0    0 -0.62167112228E+02  0.10840447161E+00  0.77970574516E+02  0.15992238625E+03  0.12502398786E+03 0.  0.
          2    1    1    2  501    0 -0.50870109224E+02  0.24491805889E+02 -0.15160883369E+02  0.58459122065E+02  0.00000000000E+00 0. -1.
          1    1    1    2  502    0  0.11303722145E+03 -0.24600210360E+02  0.48326391012E+04  0.48340235070E+04  0.00000000000E+00 0. -1.
         22    1    3    3    0    0 -0.76541824104E+02 -0.47236814341E+02  0.46135085165E+02  0.10108616893E+03  0.00000000000E+00 0.  1.
         22    1    3    3    0    0  0.14374711877E+02  0.47345218813E+02  0.31835489351E+02  0.58836217317E+02  0.00000000000E+00 0.  1.
</event>
<event>
 7    1  0.7118985E-006  0.1114932E+03  0.7818608E-02  0.1341379E+00
          2   -1    0    0  502    0  0.00000000000E+00  0.00000000000E+00  0.15258408348E+04  0.15258408348E+04  0.00000000000E+00 0. -1.
          1   -1    0    0  501    0 -0.00000000000E+00 -0.00000000000E+00 -0.25495538062E+03  0.25495538062E+03  0.00000000000E+00 0. -1.
         25    2    1    2    0    0 -0.74668046797E+02 -0.69866086272E+02  0.45399649324E+03  0.48186834039E+03  0.12501077705E+03 0.  0.
          2    1    1    2  501    0 -0.36130079250E+02  0.36767257705E+02 -0.23505820311E+03  0.24064407891E+03  0.00000000000E+00 0. -1.
          1    1    1    2  502    0  0.11079812605E+03  0.33098828566E+02  0.10519471641E+04  0.10582837962E+04  0.00000000000E+00 0. -1.
         22    1    3    3    0    0 -0.10771350858E+03 -0.38729318140E+02  0.29214049320E+03  0.31376460569E+03  0.00000000000E+00 0.  1.
         22    1    3    3    0    0  0.33045461787E+02 -0.31136768132E+02  0.16185600003E+03  0.16810373470E+03  0.00000000000E+00 0.  1.
</event>
<event>
 7    1  0.7118985E-006  0.1040937E+03  0.7818608E-02  0.1341659E+00
          2   -1    0    0  502    0  0.00000000000E+00  0.00000000000E+00  0.10254333371E+04  0.10254333371E+04  0.00000000000E+00 0. -1.
          1   -1    0    0  501    0 -0.00000000000E+00 -0.00000000000E+00 -0.96166264791E+02  0.96166264791E+02  0.00000000000E+00 0. -1.
         25    2    1    2    0    0  0.96310549540E+02 -0.47037960911E+02  0.49188091699E+03  0.51871013685E+03  0.12500031140E+03 0.  0.
          2    1    1    2  501    0 -0.36189260110E+02 -0.41521026513E+02 -0.67306889315E+02  0.86970544090E+02  0.00000000000E+00 0. -1.
          1    1    1    2  502    0 -0.60121289431E+02  0.88558987424E+02  0.50469304467E+03  0.51591892099E+03  0.00000000000E+00 0. -1.
         22    1    3    3    0    0  0.62816802889E+02 -0.79338190008E+02  0.42725590250E+03  0.43907642312E+03  0.00000000000E+00 0.  1.
         22    1    3    3    0    0  0.33493746652E+02  0.32300229098E+02  0.64625014498E+02  0.79633713736E+02  0.00000000000E+00 0.  1.
</event>
<event>
 7    1  0.7118985E-006  0.3145429E+03  0.7818608E-02  0.1210942E+00
          2   -1    0    0  502    0  0.00000000000E+00  0.00000000000E+00  0.19681741742E+04  0.19681741742E+04  0.00000000000E+00 0. -1.
          1   -1    0    0  501    0 -0.00000000000E+00 -0.00000000000E+00 -0.37485047935E+03  0.37485047935E+03  0.00000000000E+00 0. -1.
         25    2    1    2    0    0  0.10971517733E+03  0.26354923013E+03  0.57344319097E+02  0.31687674593E+03  0.12500753713E+03 0.  0.
          2    1    1    2  501    0 -0.42733060955E+02  0.47529387771E+02 -0.22641163697E+03  0.23526025281E+03  0.00000000000E+00 0. -1.
          1    1    1    2  502    0 -0.66982116377E+02 -0.31107861790E+03  0.17623910127E+04  0.17908876548E+04  0.00000000000E+00 0. -1.
         22    1    3    3    0    0  0.11734062193E+03  0.26522607566E+03  0.73273874013E+02  0.29913668009E+03  0.00000000000E+00 0. -1.
         22    1    3    3    0    0 -0.76254445965E+01 -0.16768455250E+01 -0.15929554916E+02  0.17740065841E+02  0.00000000000E+00 0. -1.
</event>
<event>
 7    1  0.7118985E-006  0.4393676E+03  0.7818608E-02  0.1107359E+00
          2   -1    0    0  502    0  0.00000000000E+00  0.00000000000E+00  0.11042386686E+04  0.11042386686E+04  0.00000000000E+00 0. -1.
          1   -1    0    0  501    0 -0.00000000000E+00 -0.00000000000E+00 -0.83162944651E+03  0.83162944651E+03  0.00000000000E+00 0. -1.
         25    2    1    2    0    0 -0.39073607834E+03  0.17584128629E+03 -0.10655688285E+03  0.45888377480E+03  0.12500043445E+03 0.  0.
          2    1    1    2  501    0  0.32700058485E+03 -0.31541069577E+03 -0.44660559158E+03  0.63707915044E+03  0.00000000000E+00 0. -1.
          1    1    1    2  502    0  0.63735493494E+02  0.13956940949E+03  0.82577169648E+03  0.83990518983E+03  0.00000000000E+00 0. -1.
         22    1    3    3    0    0 -0.24744037397E+03  0.17447255328E+03 -0.79783522722E+02  0.31310193391E+03  0.00000000000E+00 0.  1.
         22    1    3    3    0    0 -0.14329570437E+03  0.13687330048E+01 -0.26773360125E+02  0.14578184089E+03  0.00000000000E+00 0.  1.
</event>
<event>
 7    1  0.7118985E-006  0.9370335E+03  0.7818608E-02  0.1045783E+00
          2   -1    0    0  502    0  0.00000000000E+00  0.00000000000E+00  0.13997787249E+04  0.13997787249E+04  0.00000000000E+00 0. -1.
          1   -1    0    0  501    0 -0.00000000000E+00 -0.00000000000E+00 -0.18563408511E+04  0.18563408511E+04  0.00000000000E+00 0. -1.
         25    2    1    2    0    0 -0.35505065235E+03  0.95242881982E+03 -0.50579662994E+02  0.10253608968E+04  0.12500017534E+03 0.  0.
          2    1    1    2  501    0  0.15049117853E+03 -0.69806369373E+02 -0.10855826053E+04  0.10981849193E+04  0.00000000000E+00 0. -1.
          1    1    1    2  502    0  0.20455947381E+03 -0.88262245045E+03  0.67960014219E+03  0.11325737599E+04  0.00000000000E+00 0. -1.
         22    1    3    3    0    0 -0.11740849278E+03  0.43157443813E+03 -0.69042464898E+02  0.45255730221E+03  0.00000000000E+00 0. -1.
         22    1    3    3    0    0 -0.23764215957E+03  0.52085438170E+03  0.18462801904E+02  0.57280359460E+03  0.00000000000E+00 0. -1.
</event>
<event>
 7    1  0.7118985E-006  0.6216602E+02  0.7818608E-02  0.1401960E+00
          2   -1    0    0  502    0  0.00000000000E+00  0.00000000000E+00  0.87768848834E+03  0.87768848834E+03  0.00000000000E+00 0. -1.
          1   -1    0    0  501    0 -0.00000000000E+00 -0.00000000000E+00 -0.28558178362E+03  0.28558178362E+03  0.00000000000E+00 0. -1.
         25    2    1    2    0    0  0.11288092585E+03  0.25594388865E+02  0.66894994528E+02  0.18301343443E+03  0.12498720225E+03 0.  0.
          2    1    1    2  501    0 -0.55929778501E+02 -0.36193920695E+01 -0.22280869673E+03  0.22974976706E+03  0.00000000000E+00 0. -1.
          1    1    1    2  502    0 -0.56951147347E+02 -0.21974996795E+02  0.74802040692E+03  0.75050707048E+03  0.00000000000E+00 0. -1.
         22    1    3    3    0    0 -0.20757736270E+02 -0.94883144675E+01 -0.99686489271E+01  0.24905535287E+02  0.00000000000E+00 0. -1.
         22    1    3    3    0    0  0.13363866212E+03  0.35082703332E+02  0.76863643456E+02  0.15810789914E+03  0.00000000000E+00 0. -1.
</event>
<event>
 7    1  0.7118985E-006  0.7142644E+02  0.7818608E-02  0.1452093E+00
          2   -1    0    0  502    0  0.00000000000E+00  0.00000000000E+00  0.89597745687E+03  0.89597745687E+03  0.00000000000E+00 0. -1.
          1   -1    0    0  501    0 -0.00000000000E+00 -0.00000000000E+00 -0.14871991352E+04  0.14871991352E+04  0.00000000000E+00 0. -1.
         25    2    1    2    0    0  0.77775062135E+02  0.56223186314E+02 -0.11940327539E+03  0.19771347711E+03  0.12499387941E+03 0.  0.
          2    1    1    2  501    0 -0.66385215245E+02 -0.24932067789E+02 -0.13273704377E+04  0.13292632861E+04  0.00000000000E+00 0. -1.
          1    1    1    2  502    0 -0.11389846890E+02 -0.31291118524E+02  0.85555203479E+03  0.85619982886E+03  0.00000000000E+00 0. -1.
         22    1    3    3    0    0  0.34576001307E+02 -0.16234399000E+02 -0.10551983645E+03  0.11222072653E+03  0.00000000000E+00 0. -1.
         22    1    3    3    0    0  0.43199060828E+02  0.72457585314E+02 -0.13883438934E+02  0.85492750585E+02  0.00000000000E+00 0. -1.
</event>
<event>
 7    1  0.7118985E-006  0.7173128E+02  0.7818608E-02  0.1431168E+00
          2   -1    0    0  502    0  0.00000000000E+00  0.00000000000E+00  0.89353012137E+03  0.89353012137E+03  0.00000000000E+00 0. -1.
          1   -1    0    0  501    0 -0.00000000000E+00 -0.00000000000E+00 -0.14381642983E+03  0.14381642983E+03  0.00000000000E+00 0. -1.
         25    2    1    2    0    0  0.90968903010E+02 -0.52698211414E+02  0.42143818581E+03  0.45198066504E+03  0.12499573715E+03 0.  0.
          2    1    1    2  501    0 -0.34261638110E+02  0.18116763148E+02 -0.12313746815E+03  0.12909265284E+03  0.00000000000E+00 0. -1.
          1    1    1    2  502    0 -0.56707264900E+02  0.34581448266E+02  0.45141297388E+03  0.45627323332E+03  0.00000000000E+00 0. -1.
         22    1    3    3    0    0  0.44542687817E+02  0.33931068435E+02  0.23082911281E+03  0.23752357306E+03  0.00000000000E+00 0. -1.
         22    1    3    3    0    0  0.46426215192E+02 -0.86629279849E+02  0.19060907301E+03  0.21445709197E+03  0.00000000000E+00 0. -1.
</event>
<event>
 7    1  0.7118985E-006  0.1356643E+03  0.7818608E-02  0.1260081E+00
          2   -1    0    0  502    0  0.00000000000E+00  0.00000000000E+00  0.11776268079E+03  0.11776268079E+03  0.00000000000E+00 0. -1.
          1   -1    0    0  501    0 -0.00000000000E+00 -0.00000000000E+00 -0.12343271608E+04  0.12343271608E+04  0.00000000000E+00 0. -1.
         25    2    1    2    0    0  0.18107827713E+03  0.89897886125E+02 -0.27035906040E+03  0.35998562602E+03  0.12499862809E+03 0.  0.
          2    1    1    2  501    0 -0.91479490299E+02 -0.91841418136E+02 -0.88500356942E+03  0.89444656694E+03  0.00000000000E+00 0. -1.
          1    1    1    2  502    0 -0.89598786835E+02  0.19435320108E+01  0.38798149761E+02  0.97657648670E+02  0.00000000000E+00 0. -1.
         22    1    3    3    0    0 -0.18669821591E+02  0.16373855916E+02 -0.28995946204E+02  0.38176305374E+02  0.00000000000E+00 0.  1.
         22    1    3    3    0    0  0.19974809873E+03  0.73524030209E+02 -0.24136311420E+03  0.32180932065E+03  0.00000000000E+00 0.  1.
</event>
<event>
 7    1  0.7118985E-006  0.7431562E+02  0.7818608E-02  0.1433958E+00
          2   -1    0    0  502    0  0.00000000000E+00  0.00000000000E+00  0.11587606839E+04  0.11587606839E+04  0.00000000000E+00 0. -1.
          1   -1    0    0  501    0 -0.00000000000E+00 -0.00000000000E+00 -0.19113505924E+04  0.19113505924E+04  0.00000000000E+00 0. -1.
         25    2    1    2    0    0 -0.13429397195E+02 -0.40572062690E+02  0.20813002690E+03  0.24651345158E+03  0.12499733091E+03 0.  0.
          2    1    1    2  501    0  0.61647053003E+01 -0.36106283674E+02 -0.18903889080E+04  0.18907437402E+04  0.00000000000E+00 0. -1.
          1    1    1    2  502    0  0.72646918945E+01  0.76678346364E+02  0.92966897255E+03  0.93285408456E+03  0.00000000000E+00 0. -1.
         22    1    3    3    0    0 -0.26206167198E+01 -0.85570491973E+02  0.14166945670E+03  0.16552767651E+03  0.00000000000E+00 0. -1.
         22    1    3    3    0    0 -0.10808780475E+02  0.44998429283E+02  0.66460570201E+02  0.80985775077E+02  0.00000000000E+00 0. -1.
</event>
<event>
 7    1  0.7118985E-006  0.1811138E+03  0.7818608E-02  0.1183391E+00
          2   -1    0    0  502    0  0.00000000000E+00  0.00000000000E+00  0.43849016834E+03  0.43849016834E+03  0.00000000000E+00 0. -1.
          1   -1    0    0  501    0 -0.00000000000E+00 -0.00000000000E+00 -0.56898702528E+03  0.56898702528E+03  0.00000000000E+00 0. -1.
         25    2    1    2    0    0 -0.18715258951E+03  0.11202537901E+03 -0.96158894737E+02  0.26916099384E+03  0.12500132105E+03 0.  0.
          2    1    1    2  501    0  0.13578059947E+03  0.63604986746E+02 -0.34589502483E+03  0.37699513755E+03  0.00000000000E+00 0. -1.
          1    1    1    2  502    0  0.51371990043E+02 -0.17563036575E+03  0.31155706263E+03  0.36132106223E+03  0.00000000000E+00 0. -1.
         22    1    3    3    0    0 -0.84252771707E+02  0.11516194025E+03 -0.83788029519E+02  0.16547276487E+03  0.00000000000E+00 0.  1.
         22    1    3    3    0    0 -0.10289981781E+03 -0.31365612408E+01 -0.12370865219E+02  0.10368822897E+03  0.00000000000E+00 0.  1.
</event>
<event>
 7    1  0.7118985E-006  0.1096483E+03  0.7818608E-02  0.1265128E+00
          2   -1    0    0  502    0  0.00000000000E+00  0.00000000000E+00  0.59890615698E+03  0.59890615698E+03  0.00000000000E+00 0. -1.
          1   -1    0    0  501    0 -0.00000000000E+00 -0.00000000000E+00 -0.19503635049E+03  0.19503635049E+03  0.00000000000E+00 0. -1.
         25    2    1    2    0    0 -0.47228673480E+02  0.41794899591E+02  0.19051282290E+03  0.23642562388E+03  0.12499831481E+03 0.  0.
          2    1    1    2  501    0  0.23776223220E+02  0.10282742261E+03 -0.13980559328E+03  0.17516960793E+03  0.00000000000E+00 0. -1.
          1    1    1    2  502    0  0.23452450260E+02 -0.14462232220E+03  0.35316257686E+03  0.38234727565E+03  0.00000000000E+00 0. -1.
         22    1    3    3    0    0 -0.85466815656E+02  0.16092818319E+02  0.86481268193E+02  0.12264813545E+03  0.00000000000E+00 0. -1.
         22    1    3    3    0    0  0.38238142176E+02  0.25702081272E+02  0.10403155471E+03  0.11377748843E+03  0.00000000000E+00 0. -1.
</event>
<event>
 7    1  0.7118985E-006  0.6574683E+02  0.7818608E-02  0.1485630E+00
          2   -1    0    0  502    0  0.00000000000E+00  0.00000000000E+00  0.28258683646E+04  0.28258683646E+04  0.00000000000E+00 0. -1.
          1   -1    0    0  501    0 -0.00000000000E+00 -0.00000000000E+00 -0.57080281842E+02  0.57080281842E+02  0.00000000000E+00 0. -1.
         25    2    1    2    0    0  0.35308620750E+02  0.19522662895E+02  0.21423919262E+04  0.21464157449E+04  0.12501820437E+03 0.  0.
          2    1    1    2  501    0 -0.48562772112E+02 -0.44684633656E+02 -0.34881254704E+02  0.74644231190E+02  0.00000000000E+00 0. -1.
          1    1    1    2  502    0  0.13254151362E+02  0.25161970761E+02  0.66127741131E+03  0.66188867041E+03  0.00000000000E+00 0. -1.
         22    1    3    3    0    0  0.17570438629E+02 -0.51970958825E+02  0.11410832004E+04  0.11424012303E+04  0.00000000000E+00 0.  1.
         22    1    3    3    0    0  0.17738182121E+02  0.71493621720E+02  0.10013087258E+04  0.10040145145E+04  0.00000000000E+00 0.  1.
</event>
<event>
 7    1  0.7118985E-006  0.8477179E+02  0.7818608E-02  0.1476820E+00
          2   -1    0    0  502    0  0.00000000000E+00  0.00000000000E+00  0.29555211844E+04  0.29555211844E+04  0.00000000000E+00 0. -1.
          1   -1    0    0  501    0 -0.00000000000E+00 -0.00000000000E+00 -0.77814837268E+03  0.77814837268E+03  0.00000000000E+00 0. -1.
         25    2    1    2    0    0 -0.85123751852E+02 -0.51543694184E+02 -0.13789005738E+03  0.21104846436E+03  0.12499992338E+03 0.  0.
          2    1    1    2  501    0  0.22744492038E+02 -0.57925438184E+01 -0.60283587234E+03  0.60329259440E+03  0.00000000000E+00 0. -1.
          1    1    1    2  502    0  0.62379259814E+02  0.57336238003E+02  0.29180987414E+04  0.29193284983E+04  0.00000000000E+00 0. -1.
         22    1    3    3    0    0 -0.10661019650E+03 -0.73076631301E+02 -0.11454810743E+03  0.17270552092E+03  0.00000000000E+00 0.  1.
         22    1    3    3    0    0  0.21486444646E+02  0.21532937117E+02 -0.23341949948E+02  0.38342943442E+02  0.00000000000E+00 0.  1.
</event>
<event>
 7    1  0.7118985E-006  0.8890231E+02  0.7818608E-02  0.1380571E+00
          2   -1    0    0  502    0  0.00000000000E+00  0.00000000000E+00  0.15727921882E+04  0.15727921882E+04  0.00000000000E+00 0. -1.
          1   -1    0    0  501    0 -0.00000000000E+00 -0.00000000000E+00 -0.10033654716E+03  0.10033654716E+03  0.00000000000E+00 0. -1.
         25    2    1    2    0    0  0.44830981389E+02  0.22492476751E+02  0.39587072075E+03  0.41815611062E+03  0.12500070760E+03 0.  0.
          2    1    1    2  501    0  0.34758536800E+02  0.30927918337E+02 -0.81007707719E+02  0.93418096336E+02  0.00000000000E+00 0. -1.
          1    1    1    2  502    0 -0.79589518189E+02 -0.53420395089E+02  0.11575926280E+04  0.11615545284E+04  0.00000000000E+00 0. -1.
         22    1    3    3    0    0 -0.41843197088E+02 -0.64652216702E+01  0.14964376837E+03  0.15551819715E+03  0.00000000000E+00 0. -1.
         22    1    3    3    0    0  0.86674178477E+02  0.28957698422E+02  0.24622695238E+03  0.26263791347E+03  0.00000000000E+00 0. -1.
</event>
<event>
 7    1  0.7118985E-006  0.6341478E+02  0.7818608E-02  0.1417679E+00
          2   -1    0    0  502    0  0.00000000000E+00  0.00000000000E+00  0.10547553199E+04  0.10547553199E+04  0.00000000000E+00 0. -1.
          1   -1    0    0  501    0 -0.00000000000E+00 -0.00000000000E+00 -0.12669486298E+04  0.12669486298E+04  0.00000000000E+00 0. -1.
         25    2    1    2    0    0  0.88255993220E+02 -0.16617147630E+02  0.27674772210E+03  0.31666899078E+03  0.12499879240E+03 0.  0.
          2    1    1    2  501    0 -0.59286603087E+02 -0.22404205267E+02 -0.12454024126E+04  0.12470140412E+04  0.00000000000E+00 0. -1.
          1    1    1    2  502    0 -0.28969390133E+02  0.39021352897E+02  0.75646138054E+03  0.75802091778E+03  0.00000000000E+00 0. -1.
         22    1    3    3    0    0  0.11013129363E+03 -0.40161578078E+02  0.24445625064E+03  0.27111014859E+03  0.00000000000E+00 0. -1.
         22    1    3    3    0    0 -0.21875300408E+02  0.23544430448E+02  0.32291471460E+02  0.45558842194E+02  0.00000000000E+00 0. -1.
</event>
<event>
 7    1  0.7118985E-006  0.4238874E+03  0.7818608E-02  0.1278115E+00
          2   -1    0    0  502    0  0.00000000000E+00  0.00000000000E+00  0.19996136536E+04  0.19996136536E+04  0.00000000000E+00 0. -1.
          1   -1    0    0  501    0 -0.00000000000E+00 -0.00000000000E+00 -0.35963974185E+03  0.35963974185E+03  0.00000000000E+00 0. -1.
         25    2    1    2    0    0  0.20321831223E+03  0.34924406906E+03  0.14053249447E+04  0.14675937284E+04  0.12499619674E+03 0.  0.
          2    1    1    2  501    0 -0.20488208461E+03 -0.37327306113E+03 -0.19004003303E+03  0.46628817368E+03  0.00000000000E+00 0. -1.
          1    1    1    2  502    0  0.16637723834E+01  0.24028992069E+02  0.42468900001E+03  0.42537149331E+03  0.00000000000E+00 0. -1.
         22    1    3    3    0    0  0.59467581021E+02  0.14704381945E+03  0.75662792967E+03  0.77307444789E+03  0.00000000000E+00 0. -1.
         22    1    3    3    0    0  0.14375073121E+03  0.20220024961E+03  0.64869701508E+03  0.69451928054E+03  0.00000000000E+00 0. -1.
</event>
<event>
 7    1  0.7118985E-006  0.5602512E+02  0.7818608E-02  0.1468189E+00
          2   -1    0    0  502    0  0.00000000000E+00  0.00000000000E+00  0.23141906579E+03  0.23141906579E+03  0.00000000000E+00 0. -1.
          1   -1    0    0  501    0 -0.00000000000E+00 -0.00000000000E+00 -0.51317073152E+03  0.51317073152E+03  0.00000000000E+00 0. -1.
         25    2    1    2    0    0  0.96240999690E+01 -0.36120398696E+02  0.55717668578E+02  0.14186729291E+03  0.12499825480E+03 0.  0.
          2    1    1    2  501    0 -0.47079204212E+02  0.31252467907E+02 -0.46566369624E+03  0.46907978662E+03  0.00000000000E+00 0. -1.
          1    1    1    2  502    0  0.37455104243E+02  0.48679307887E+01  0.12819436193E+03  0.13364271778E+03  0.00000000000E+00 0. -1.
         22    1    3    3    0    0  0.25171270931E+02 -0.10333078570E+02  0.91291651844E+02  0.95260333242E+02  0.00000000000E+00 0.  1.
         22    1    3    3    0    0 -0.15547170962E+02 -0.25787320126E+02 -0.35573983266E+02  0.46606959670E+02  0.00000000000E+00 0.  1.
</event>
<event>
 7    1  0.7118985E-006  0.1248370E+03  0.7818608E-02  0.1342862E+00
          2   -1    0    0  502    0  0.00000000000E+00  0.00000000000E+00  0.23659303312E+04  0.23659303312E+04  0.00000000000E+00 0. -1.
          1   -1    0    0  501    0 -0.00000000000E+00 -0.00000000000E+00 -0.39544923804E+03  0.39544923804E+03  0.00000000000E+00 0. -1.
         25    2    1    2    0    0  0.13628292935E+03  0.26290664371E+02  0.56862652669E+03  0.59851328049E+03  0.12497113352E+03 0.  0.
          2    1    1    2  501    0 -0.12351129306E+03  0.17330198270E+02 -0.36998639101E+03  0.39044244751E+03  0.00000000000E+00 0. -1.
          1    1    1    2  502    0 -0.12771636287E+02 -0.43620862641E+02  0.17718409575E+04  0.17724238413E+04  0.00000000000E+00 0. -1.
         22    1    3    3    0    0  0.80237916936E+02 -0.76741011216E+00  0.49781277978E+03  0.50423831265E+03  0.00000000000E+00 0.  1.
         22    1    3    3    0    0  0.56045012412E+02  0.27058074483E+02  0.70813746907E+02  0.94274967844E+02  0.00000000000E+00 0.  1.
</event>
<event>
 7    1  0.7118985E-006  0.6263787E+02  0.7818608E-02  0.1501318E+00
          2   -1    0    0  502    0  0.00000000000E+00  0.00000000000E+00  0.14010448341E+03  0.14010448341E+03  0.00000000000E+00 0. -1.
          1   -1    0    0  501    0 -0.00000000000E+00 -0.00000000000E+00 -0.83473879962E+03  0.83473879962E+03  0.00000000000E+00 0. -1.
         25    2    1    2    0    0 -0.63253864783E+02 -0.92190383379E+00 -0.19795516091E+02  0.14146929307E+03  0.12497918670E+03 0.  0.
          2    1    1    2  501    0  0.52309588034E+01  0.26258379355E+02 -0.74118340401E+03  0.74166684151E+03  0.00000000000E+00 0. -1.
          1    1    1    2  502    0  0.58022905980E+02 -0.25336475521E+02  0.66344603889E+02  0.91707148441E+02  0.00000000000E+00 0. -1.
         22    1    3    3    0    0 -0.32618794319E+02  0.59963809836E+02 -0.25963033326E+02  0.73032344426E+02  0.00000000000E+00 0. -1.
         22    1    3    3    0    0 -0.30635070464E+02 -0.60885713670E+02  0.61675172349E+01  0.68436948648E+02  0.00000000000E+00 0. -1.
</event>
<event>
 7    1  0.7118985E-006  0.1110694E+03  0.7818608E-02  0.1281483E+00
          2   -1    0    0  502    0  0.00000000000E+00  0.00000000000E+00  0.17680240007E+04  0.17680240007E+04  0.00000000000E+00 0. -1.
          1   -1    0    0  501    0 -0.00000000000E+00 -0.00000000000E+00 -0.64790609549E+03  0.64790609549E+03  0.00000000000E+00 0. -1.
         25    2    1    2    0    0 -0.47860550986E+02  0.13327387814E+03  0.16067700817E+03  0.24798131024E+03  0.12500028135E+03 0.  0.
          2    1    1    2  501    0 -0.36518945994E+02 -0.10489598429E+03 -0.59786781598E+03  0.60809762894E+03  0.00000000000E+00 0. -1.
          1    1    1    2  502    0  0.84379496981E+02 -0.28377893853E+02  0.15573087130E+04  0.15598511570E+04  0.00000000000E+00 0. -1.
         22    1    3    3    0    0 -0.50172290474E+02  0.11432847086E+02  0.71260596598E+01  0.51949489413E+02  0.00000000000E+00 0. -1.
         22    1    3    3    0    0  0.23117394879E+01  0.12184103106E+03  0.15355094851E+03  0.19603182082E+03  0.00000000000E+00 0. -1.
</event>
<event>
 7    1  0.7118985E-006  0.2082105E+03  0.7818608E-02  0.1283810E+00
          2   -1    0    0  502    0  0.00000000000E+00  0.00000000000E+00  0.44218133810E+02  0.44218133810E+02  0.00000000000E+00 0. -1.
          1   -1    0    0  501    0 -0.00000000000E+00 -0.00000000000E+00 -0.19756970176E+04  0.19756970176E+04  0.00000000000E+00 0. -1.
         25    2    1    2    0    0 -0.85266609726E+02  0.16981351566E+03 -0.11228767905E+04  0.11456807688E+04  0.12500045061E+03 0.  0.
          2    1    1    2  501    0 -0.46453879156E+02  0.53122378916E-01 -0.47571940837E+03  0.47798213482E+03  0.00000000000E+00 0. -1.
          1    1    1    2  502    0  0.13172048888E+03 -0.16986663804E+03 -0.33288268493E+03  0.39625224774E+03  0.00000000000E+00 0. -1.
         22    1    3    3    0    0 -0.22374758394E+02 -0.12363408277E+02 -0.27452415917E+03  0.27571180179E+03  0.00000000000E+00 0. -1.
         22    1    3    3    0    0 -0.62891851332E+02  0.18217692394E+03 -0.84835263131E+03  0.86996896705E+03  0.00000000000E+00 0. -1.
</event>
<event>
 7    1  0.7118985E-006  0.1731643E+03  0.7818608E-02  0.1222862E+00
          2   -1    0    0  502    0  0.00000000000E+00  0.00000000000E+00  0.11153302014E+04  0.11153302014E+04  0.00000000000E+00 0. -1.
          1   -1    0    0  501    0 -0.00000000000E+00 -0.00000000000E+00 -0.82505015211E+03  0.82505015211E+03  0.00000000000E+00 0. -1.
         25    2    1    2    0    0  0.10733464742E+03 -0.19580164954E+02  0.11767391843E+03  0.20340665924E+03  0.12499203394E+03 0.  0.
          2    1    1    2  501    0 -0.13291772877E+03  0.11870734458E+03 -0.76922321666E+03  0.78959667763E+03  0.00000000000E+00 0. -1.
          1    1    1    2  502    0  0.25583081355E+02 -0.99127179631E+02  0.94182934749E+03  0.94737701660E+03  0.00000000000E+00 0. -1.
         22    1    3    3    0    0  0.26574445983E+02 -0.10756284288E+02  0.11874704873E+03  0.12215875087E+03  0.00000000000E+00 0. -1.
         22    1    3    3    0    0  0.80760201433E+02 -0.88238806662E+01 -0.10731303054E+01  0.81247908368E+02  0.00000000000E+00 0. -1.
</event>
<event>
 7    1  0.7118985E-006  0.1574223E+03  0.7818608E-02  0.1320297E+00
          2   -1    0    0  502    0  0.00000000000E+00  0.00000000000E+00  0.23268325380E+03  0.23268325380E+03  0.00000000000E+00 0. -1.
          1   -1    0    0  501    0 -0.00000000000E+00 -0.00000000000E+00 -0.14406450071E+04  0.14406450071E+04  0.00000000000E+00 0. -1.
         25    2    1    2    0    0 -0.51501315651E+02  0.18311473829E+03 -0.36702561089E+03  0.43187735105E+03  0.12500741741E+03 0.  0.
          2    1    1    2  501    0 -0.12886992043E+02 -0.42005119558E+02 -0.10106108612E+04  0.10115655279E+04  0.00000000000E+00 0. -1.
          1    1    1    2  502    0  0.64388307693E+02 -0.14110961873E+03  0.16967471871E+03  0.22988538195E+03  0.00000000000E+00 0. -1.
         22    1    3    3    0    0 -0.61201819686E+02  0.10946276341E+03 -0.32064931249E+03  0.34430181659E+03  0.00000000000E+00 0. -1.
         22    1    3    3    0    0  0.97005040357E+01  0.73651974880E+02 -0.46376298395E+02  0.87575534455E+02  0.00000000000E+00 0. -1.
</event>
<event>
 7    1  0.7118985E-006  0.7607559E+02  0.7818608E-02  0.1356190E+00
          2   -1    0    0  502    0  0.00000000000E+00  0.00000000000E+00  0.61107476946E+03  0.61107476946E+03  0.00000000000E+00 0. -1.
          1   -1    0    0  501    0 -0.00000000000E+00 -0.00000000000E+00 -0.19228659625E+04  0.19228659625E+04  0.00000000000E+00 0. -1.
         25    2    1    2    0    0  0.10333969763E+02 -0.22026031287E+02  0.60702332058E+02  0.14107800871E+03  0.12500517765E+03 0.  0.
          2    1    1    2  501    0 -0.40204621836E+02 -0.53049622837E+02 -0.18788859336E+04  0.18800646333E+04  0.00000000000E+00 0. -1.
          1    1    1    2  502    0  0.29870652073E+02  0.75075654124E+02  0.50639240846E+03  0.51279808994E+03  0.00000000000E+00 0. -1.
         22    1    3    3    0    0  0.42697484726E+02  0.36477696084E+02  0.97057353931E+01  0.56990339647E+02  0.00000000000E+00 0. -1.
         22    1    3    3    0    0 -0.32363514963E+02 -0.58503727371E+02  0.50996596665E+02  0.84087669063E+02  0.00000000000E+00 0. -1.
</event>
<event>
 7    1  0.7118985E-006  0.3853531E+02  0.7818608E-02  0.1584646E+00
          2   -1    0    0  502    0  0.00000000000E+00  0.00000000000E+00  0.10283648757E+04  0.10283648757E+04  0.00000000000E+00 0. -1.
          1   -1    0    0  501    0 -0.00000000000E+00 -0.00000000000E+00 -0.13382746272E+04  0.13382746272E+04  0.00000000000E+00 0. -1.
         25    2    1    2    0    0  0.83618048342E+00  0.53775208673E+02  0.44764166706E+02  0.14325255953E+03  0.12499997170E+03 0.  0.
          2    1    1    2  501    0  0.16142969796E+02 -0.34957515419E+02 -0.12885709111E+04  0.12891460802E+04  0.00000000000E+00 0. -1.
          1    1    1    2  502    0 -0.16979150279E+02 -0.18817693255E+02  0.93389699280E+03  0.93424086310E+03  0.00000000000E+00 0. -1.
         22    1    3    3    0    0  0.25268959407E+02  0.74162207363E+02  0.68086770420E+02  0.10379962243E+03  0.00000000000E+00 0. -1.
         22    1    3    3    0    0 -0.24432778923E+02 -0.20386998690E+02 -0.23322603714E+02  0.39452937096E+02  0.00000000000E+00 0. -1.
</event>
<event>
 7    1  0.7118985E-006  0.6742083E+02  0.7818608E-02  0.1407348E+00
          2   -1    0    0  502    0  0.00000000000E+00  0.00000000000E+00  0.14821361462E+03  0.14821361462E+03  0.00000000000E+00 0. -1.
          1   -1    0    0  501    0 -0.00000000000E+00 -0.00000000000E+00 -0.86408954452E+03  0.86408954452E+03  0.00000000000E+00 0. -1.
         25    2    1    2    0    0  0.35120966976E+01 -0.11497815558E+03 -0.19956694839E+03  0.26207532489E+03  0.12499679172E+03 0.  0.
          2    1    1    2  501    0 -0.56437037871E+00  0.49531569072E+02 -0.62303362018E+03  0.62499966938E+03  0.00000000000E+00 0. -1.
          1    1    1    2  502    0 -0.29477263188E+01  0.65446586512E+02  0.10672463867E+03  0.12522816487E+03  0.00000000000E+00 0. -1.
         22    1    3    3    0    0  0.36353855585E+02 -0.12873446903E+03 -0.16544694503E+03  0.21276009483E+03  0.00000000000E+00 0. -1.
         22    1    3    3    0    0 -0.32841758888E+02  0.13756313446E+02 -0.34120003359E+02  0.49315230058E+02  0.00000000000E+00 0. -1.
</event>
<event>
 7    1  0.7118985E-006  0.6263316E+02  0.7818608E-02  0.1446591E+00
          2   -1    0    0  502    0  0.00000000000E+00  0.00000000000E+00  0.78527623381E+03  0.78527623381E+03  0.00000000000E+00 0. -1.
          1   -1    0    0  501    0 -0.00000000000E+00 -0.00000000000E+00 -0.57592241911E+03  0.57592241911E+03  0.00000000000E+00 0. -1.
         25    2    1    2    0    0  0.23989401054E+02  0.22592834341E+02  0.30980461512E+03  0.33569331766E+03  0.12500070579E+03 0.  0.
          2    1    1    2  501    0 -0.61833156506E+02 -0.11111370859E+02 -0.56037421586E+03  0.56388479639E+03  0.00000000000E+00 0. -1.
          1    1    1    2  502    0  0.37843755452E+02 -0.11481463483E+02  0.45992341544E+03  0.46162053887E+03  0.00000000000E+00 0. -1.
         22    1    3    3    0    0  0.75172250708E+02  0.11118816595E+02  0.16427381066E+03  0.18099828792E+03  0.00000000000E+00 0. -1.
         22    1    3    3    0    0 -0.51182849655E+02  0.11474017747E+02  0.14553080445E+03  0.15469502974E+03  0.00000000000E+00 0. -1.
</event>
<event>
 7    1  0.7118985E-006  0.5514054E+02  0.7818608E-02  0.1478379E+00
          2   -1    0    0  502    0  0.00000000000E+00  0.00000000000E+00  0.51635592571E+03  0.51635592571E+03  0.00000000000E+00 0. -1.
          1   -1    0    0  501    0 -0.00000000000E+00 -0.00000000000E+00 -0.39057474141E+03  0.39057474141E+03  0.00000000000E+00 0. -1.
         25    2    1    2    0    0 -0.93391997889E+01 -0.66383865042E+02  0.33983844166E+03  0.36824903024E+03  0.12499257439E+03 0.  0.
          2    1    1    2  501    0  0.35535732425E+02  0.42149937582E+02 -0.37235343719E+03  0.37641265615E+03  0.00000000000E+00 0. -1.
          1    1    1    2  502    0 -0.26196532636E+02  0.24233927460E+02  0.15829617983E+03  0.16226898074E+03  0.00000000000E+00 0. -1.
         22    1    3    3    0    0  0.35967066991E+02 -0.77066994391E+02  0.14659943810E+03  0.16948258548E+03  0.00000000000E+00 0.  1.
         22    1    3    3    0    0 -0.45306266780E+02  0.10683129350E+02  0.19323900357E+03  0.19876644476E+03  0.00000000000E+00 0.  1.
</event>
<event>
 7    1  0.7118985E-006  0.9188989E+02  0.7818608E-02  0.1357652E+00
          2   -1    0    0  502    0  0.00000000000E+00  0.00000000000E+00  0.15289047678E+04  0.15289047678E+04  0.00000000000E+00 0. -1.
          1   -1    0    0  501    0 -0.00000000000E+00 -0.00000000000E+00 -0.47495730447E+03  0.47495730447E+03  0.00000000000E+00 0. -1.
         25    2    1    2    0    0  0.12333824629E+03 -0.69969889901E+02  0.76333950288E+01  0.18916765355E+03  0.12497209265E+03 0.  0.
          2    1    1    2  501    0 -0.37462724669E+02  0.39488902735E+02 -0.38080173552E+03  0.38467231634E+03  0.00000000000E+00 0. -1.
          1    1    1    2  502    0 -0.85875521618E+02  0.30480987166E+02  0.14271158038E+04  0.14300221024E+04  0.00000000000E+00 0. -1.
         22    1    3    3    0    0  0.51811755999E+02  0.29145999400E+02  0.27213829748E+02  0.65379965359E+02  0.00000000000E+00 0.  1.
         22    1    3    3    0    0  0.71526490288E+02 -0.99115889301E+02 -0.19580434719E+02  0.12378768820E+03  0.00000000000E+00 0.  1.
</event>
<event>
 7    1  0.7118985E-006  0.3631857E+03  0.7818608E-02  0.1117050E+00
          2   -1    0    0  502    0  0.00000000000E+00  0.00000000000E+00  0.38405458114E+04  0.38405458114E+04  0.00000000000E+00 0. -1.
          1   -1    0    0  501    0 -0.00000000000E+00 -0.00000000000E+00 -0.79269908146E+03  0.79269908146E+03  0.00000000000E+00 0. -1.
         25    2    1    2    0    0 -0.65591557004E+02  0.35848305912E+03  0.22043813860E+03  0.44388699427E+03  0.12502133700E+03 0.  0.
          2    1    1    2  501    0 -0.98504472699E+02 -0.35436968515E+03 -0.62922006920E+03  0.72883393196E+03  0.00000000000E+00 0. -1.
          1    1    1    2  502    0  0.16409602970E+03 -0.41133739709E+01  0.34566286605E+04  0.34605239666E+04  0.00000000000E+00 0. -1.
         22    1    3    3    0    0 -0.28870616200E+02  0.17283869479E+03  0.17833189707E+03  0.25001798417E+03  0.00000000000E+00 0. -1.
         22    1    3    3    0    0 -0.36720940804E+02  0.18564436433E+03  0.42106241532E+02  0.19386901010E+03  0.00000000000E+00 0. -1.
</event>
<event>
 7    1  0.7118985E-006  0.5257946E+02  0.7818608E-02  0.1544394E+00
          2   -1    0    0  502    0  0.00000000000E+00  0.00000000000E+00  0.10710063800E+04  0.10710063800E+04  0.00000000000E+00 0. -1.
          1   -1    0    0  501    0 -0.00000000000E+00 -0.00000000000E+00 -0.20101143638E+02  0.20101143638E+02  0.00000000000E+00 0. -1.
         25    2    1    2    0    0 -0.71141202053E+02 -0.20186030734E+02  0.50232241052E+03  0.52289790666E+03  0.12500348080E+03 0.  0.
          2    1    1    2  501    0  0.23551668354E+02  0.42899054174E+01  0.79077117920E+01  0.25211431466E+02  0.00000000000E+00 0. -1.
          1    1    1    2  502    0  0.47589533699E+02  0.15896125317E+02  0.54067511402E+03  0.54299818548E+03  0.00000000000E+00 0. -1.
         22    1    3    3    0    0 -0.24478473015E+02  0.39673356756E+02  0.34597860453E+03  0.34910509258E+03  0.00000000000E+00 0. -1.
         22    1    3    3    0    0 -0.46662729039E+02 -0.59859387490E+02  0.15634380600E+03  0.17379281408E+03  0.00000000000E+00 0. -1.
</event>
<event>
 7    1  0.7118985E-006  0.1570952E+03  0.7818608E-02  0.1360303E+00
          2   -1    0    0  502    0  0.00000000000E+00  0.00000000000E+00  0.15315194663E+04  0.15315194663E+04  0.00000000000E+00 0. -1.
          1   -1    0    0  501    0 -0.00000000000E+00 -0.00000000000E+00 -0.16962151029E+04  0.16962151029E+04  0.00000000000E+00 0. -1.
         25    2    1    2    0    0 -0.95776731212E+02 -0.15657131342E+03 -0.21173708574E+03  0.30683159261E+03  0.12500109725E+03 0.  0.
          2    1    1    2  501    0  0.71181904531E+02  0.13747754475E+03 -0.14325966889E+04  0.14409372685E+04  0.00000000000E+00 0. -1.
          1    1    1    2  502    0  0.24594826681E+02  0.19093768664E+02  0.14796381380E+04  0.14799657081E+04  0.00000000000E+00 0. -1.
         22    1    3    3    0    0 -0.15221559291E+02  0.11864081810E+01  0.13434904601E+02  0.20337160403E+02  0.00000000000E+00 0. -1.
         22    1    3    3    0    0 -0.80555171921E+02 -0.15775772160E+03 -0.22517199035E+03  0.28649443220E+03  0.00000000000E+00 0. -1.
</event>
<event>
 7    1  0.7118985E-006  0.9513666E+02  0.7818608E-02  0.1372686E+00
          2   -1    0    0  502    0  0.00000000000E+00  0.00000000000E+00  0.30502177794E+04  0.30502177794E+04  0.00000000000E+00 0. -1.
          1   -1    0    0  501    0 -0.00000000000E+00 -0.00000000000E+00 -0.46547517857E+03  0.46547517857E+03  0.00000000000E+00 0. -1.
         25    2    1    2    0    0 -0.37124701097E+02  0.32839248050E+02 -0.83289824096E+01  0.13472651982E+03  0.12500081420E+03 0.  0.
          2    1    1    2  501    0 -0.39268229698E+02  0.24680120263E+02 -0.39181398229E+03  0.39454948855E+03  0.00000000000E+00 0. -1.
          1    1    1    2  502    0  0.76392930795E+02 -0.57519368313E+02  0.29848855655E+04  0.29864169496E+04  0.00000000000E+00 0. -1.
         22    1    3    3    0    0 -0.10377082356E+02 -0.45975775680E+02  0.12833251273E+02  0.48848215175E+02  0.00000000000E+00 0. -1.
         22    1    3    3    0    0 -0.26747618741E+02  0.78815023729E+02 -0.21162233682E+02  0.85878304642E+02  0.00000000000E+00 0. -1.
</event>
<event>
 7    1  0.7118985E-006  0.8796576E+02  0.7818608E-02  0.1412501E+00
          2   -1    0    0  502    0  0.00000000000E+00  0.00000000000E+00  0.76583950555E+03  0.76583950555E+03  0.00000000000E+00 0. -1.
          1   -1    0    0  501    0 -0.00000000000E+00 -0.00000000000E+00 -0.11411445604E+04  0.11411445604E+04  0.00000000000E+00 0. -1.
         25    2    1    2    0    0  0.41833964533E+02  0.33909560005E+02  0.63020379263E+03  0.64473486480E+03  0.12500514711E+03 0.  0.
          2    1    1    2  501    0 -0.57122547549E+02 -0.67019115976E+02 -0.11295401394E+04  0.11329675520E+04  0.00000000000E+00 0. -1.
          1    1    1    2  502    0  0.15288583016E+02  0.33109555971E+02  0.12403129185E+03  0.12928164922E+03  0.00000000000E+00 0. -1.
         22    1    3    3    0    0  0.47868647990E+02 -0.70791688701E+01  0.83837855513E+02  0.96800351804E+02  0.00000000000E+00 0. -1.
         22    1    3    3    0    0 -0.60346834566E+01  0.40988728875E+02  0.54636593711E+03  0.54793451300E+03  0.00000000000E+00 0. -1.
</event>
<event>
 7    1  0.7118985E-006  0.1012139E+03  0.7818608E-02  0.1425741E+00
          2   -1    0    0  502    0  0.00000000000E+00  0.00000000000E+00  0.91334941529E+02  0.91334941529E+02  0.00000000000E+00 0. -1.
          1   -1    0    0  501    0 -0.00000000000E+00 -0.00000000000E+00 -0.31950021177E+03  0.31950021177E+03  0.00000000000E+00 0. -1.
         25    2    1    2    0    0 -0.37756943186E+02  0.77369324537E+02 -0.50725549592E+02  0.16003095596E+03  0.12500090538E+03 0.  0.
          2    1    1    2  501    0 -0.12847851781E+02  0.25577849065E+02 -0.11835975614E+03  0.12177161218E+03  0.00000000000E+00 0. -1.
          1    1    1    2  502    0  0.50604794967E+02 -0.10294717360E+03 -0.59079964501E+02  0.12903258516E+03  0.00000000000E+00 0. -1.
         22    1    3    3    0    0 -0.65402358738E+02  0.32844680918E+02  0.16268449701E+02  0.74972688686E+02  0.00000000000E+00 0. -1.
         22    1    3    3    0    0  0.27645415552E+02  0.44524643620E+02 -0.66993999293E+02  0.85058267275E+02  0.00000000000E+00 0. -1.
</event>
<event>
 7    1  0.7118985E-006  0.3958218E+02  0.7818608E-02  0.1577574E+00
          2   -1    0    0  502    0  0.00000000000E+00  0.00000000000E+00  0.85214542376E+03  0.85214542376E+03  0.00000000000E+00 0. -1.
          1   -1    0    0  501    0 -0.00000000000E+00 -0.00000000000E+00 -0.17924600314E+03  0.17924600314E+03  0.00000000000E+00 0. -1.
         25    2    1    2    0    0 -0.50521923442E+02  0.32373390793E+02  0.77544544331E+02  0.15886549497E+03  0.12499835182E+03 0.  0.
          2    1    1    2  501    0  0.12400559271E+02 -0.22595744761E+02 -0.13685406481E+03  0.13926010415E+03  0.00000000000E+00 0. -1.
          1    1    1    2  502    0  0.38121364172E+02 -0.97776460315E+01  0.73220894110E+03  0.73326582778E+03  0.00000000000E+00 0. -1.
         22    1    3    3    0    0 -0.36563772443E+02 -0.19306067597E+02 -0.21258633252E+02  0.46492614349E+02  0.00000000000E+00 0. -1.
         22    1    3    3    0    0 -0.13958151000E+02  0.51679458389E+02  0.98803177584E+02  0.11237288062E+03  0.00000000000E+00 0. -1.
</event>
<event>
 7    1  0.7118985E-006  0.4888471E+02  0.7818608E-02  0.1490115E+00
          2   -1    0    0  502    0  0.00000000000E+00  0.00000000000E+00  0.62314472786E+03  0.62314472786E+03  0.00000000000E+00 0. -1.
          1   -1    0    0  501    0 -0.00000000000E+00 -0.00000000000E+00 -0.27264244443E+03  0.27264244443E+03  0.00000000000E+00 0. -1.
         25    2    1    2    0    0  0.46030783577E+01  0.57379567429E+02  0.19228098249E+03  0.23645342552E+03  0.12499857248E+03 0.  0.
          2    1    1    2  501    0 -0.34173440606E+02 -0.35025078064E+02 -0.24731352295E+03  0.25210822829E+03  0.00000000000E+00 0. -1.
          1    1    1    2  502    0  0.29570362248E+02 -0.22354489365E+02  0.40553482389E+03  0.40722551848E+03  0.00000000000E+00 0. -1.
         22    1    3    3    0    0  0.12733750019E+02  0.55871651629E+02  0.15343691809E+02  0.59323003326E+02  0.00000000000E+00 0. -1.
         22    1    3    3    0    0 -0.81306716613E+01  0.15079158004E+01  0.17693729069E+03  0.17713042219E+03  0.00000000000E+00 0. -1.
</event>
<event>
 7    1  0.7118985E-006  0.1071964E+03  0.7818608E-02  0.1350752E+00
          2   -1    0    0  502    0  0.00000000000E+00  0.00000000000E+00  0.77790178218E+03  0.77790178218E+03  0.00000000000E+00 0. -1.
          1   -1    0    0  501    0 -0.00000000000E+00 -0.00000000000E+00 -0.95233436554E+02  0.95233436554E+02  0.00000000000E+00 0. -1.
         25    2    1    2    0    0 -0.34532081592E+02  0.83235120362E+02  0.22241601147E+02  0.15569262296E+03  0.12499981640E+03 0.  0.
          2    1    1    2  501    0  0.42432894201E+02  0.25431002269E+02  0.14204252924E+01  0.49490443468E+02  0.00000000000E+00 0. -1.
          1    1    1    2  502    0 -0.79008126086E+01 -0.10866612263E+03  0.65900631919E+03  0.66795215231E+03  0.00000000000E+00 0. -1.
         22    1    3    3    0    0 -0.45730912060E+02  0.20274809841E+02 -0.41800568864E+02  0.65189506742E+02  0.00000000000E+00 0. -1.
         22    1    3    3    0    0  0.11198830468E+02  0.62960310521E+02  0.64042170011E+02  0.90503116214E+02  0.00000000000E+00 0. -1.
</event>
<event>
 7    1  0.7118985E-006  0.1704834E+03  0.7818608E-02  0.1250870E+00
          2   -1    0    0  502    0  0.00000000000E+00  0.00000000000E+00  0.17619009183E+04  0.17619009183E+04  0.00000000000E+00 0. -1.
          1   -1    0    0  501    0 -0.00000000000E+00 -0.00000000000E+00 -0.25317798460E+03  0.25317798460E+03  0.00000000000E+00 0. -1.
         25    2    1    2    0    0 -0.55493892586E+01  0.22583923816E+03  0.31482292328E+03  0.40714100162E+03  0.12496465485E+03 0.  0.
          2    1    1    2  501    0  0.43411925470E+02 -0.64953891917E+02 -0.19456800691E+03  0.20966714731E+03  0.00000000000E+00 0. -1.
          1    1    1    2  502    0 -0.37862536212E+02 -0.16088534625E+03  0.13884680174E+04  0.13982707540E+04  0.00000000000E+00 0. -1.
         22    1    3    3    0    0  0.44709795175E+02  0.41843095052E+02  0.41999099431E+02  0.74254526739E+02  0.00000000000E+00 0.  1.
         22    1    3    3    0    0 -0.50259184434E+02  0.18399614311E+03  0.27282382385E+03  0.33288647488E+03  0.00000000000E+00 0.  1.
</event>
<event>
 7    1  0.7118985E-006  0.3725324E+02  0.7818608E-02  0.1531488E+00
          2   -1    0    0  502    0  0.00000000000E+00  0.00000000000E+00  0.18728269273E+04  0.18728269273E+04  0.00000000000E+00 0. -1.
          1   -1    0    0  501    0 -0.00000000000E+00 -0.00000000000E+00 -0.60122095794E+03  0.60122095794E+03  0.00000000000E+00 0. -1.
         25    2    1    2    0    0 -0.21662655300E+01 -0.69514794853E+02  0.10604086231E+03  0.17806051157E+03  0.12499552748E+03 0.  0.
          2    1    1    2  501    0  0.13559060453E+02  0.34567623948E+02 -0.56440584883E+03  0.56562596382E+03  0.00000000000E+00 0. -1.
          1    1    1    2  502    0 -0.11392794923E+02  0.34947170906E+02  0.17299709559E+04  0.17303614099E+04  0.00000000000E+00 0. -1.
         22    1    3    3    0    0 -0.46171437769E+02  0.10871703450E+02  0.56883986927E+02  0.74066075705E+02  0.00000000000E+00 0.  1.
         22    1    3    3    0    0  0.44005172239E+02 -0.80386498303E+02  0.49156875383E+02  0.10399443586E+03  0.00000000000E+00 0.  1.
</event>
<event>
 7    1  0.7118985E-006  0.4268319E+02  0.7818608E-02  0.1494926E+00
          2   -1    0    0  502    0  0.00000000000E+00  0.00000000000E+00  0.30458839983E+03  0.30458839983E+03  0.00000000000E+00 0. -1.
          1   -1    0    0  501    0 -0.00000000000E+00 -0.00000000000E+00 -0.61148778997E+02  0.61148778997E+02  0.00000000000E+00 0. -1.
         25    2    1    2    0    0 -0.17925556164E+02 -0.60430376750E+02  0.16390437237E+03  0.21555297531E+03  0.12500114354E+03 0.  0.
          2    1    1    2  501    0 -0.16876615726E+02  0.38641174977E+02 -0.16857333406E+02  0.45410684332E+02  0.00000000000E+00 0. -1.
          1    1    1    2  502    0  0.34802171890E+02  0.21789201773E+02  0.96392581869E+02  0.10477351918E+03  0.00000000000E+00 0. -1.
         22    1    3    3    0    0  0.19667659058E+02 -0.62941334285E+02  0.16517804235E+03  0.17785447436E+03  0.00000000000E+00 0. -1.
         22    1    3    3    0    0 -0.37593215222E+02  0.25109575348E+01 -0.12736699873E+01  0.37698500948E+02  0.00000000000E+00 0. -1.
</event>
<event>
 7    1  0.7118985E-006  0.5042216E+02  0.7818608E-02  0.1471617E+00
          2   -1    0    0  502    0  0.00000000000E+00  0.00000000000E+00  0.13487521668E+04  0.13487521668E+04  0.00000000000E+00 0. -1.
          1   -1    0    0  501    0 -0.00000000000E+00 -0.00000000000E+00 -0.46943843649E+02  0.46943843649E+02  0.00000000000E+00 0. -1.
         25    2    1    2    0    0  0.28089311602E+02  0.25044066571E+01  0.15701999917E+03  0.20266994034E+03  0.12499817238E+03 0.  0.
          2    1    1    2  501    0  0.63630782035E+01 -0.40451597980E+02 -0.57464493458E+01  0.41350238493E+02  0.00000000000E+00 0. -1.
          1    1    1    2  502    0 -0.34452389806E+02  0.37947191323E+02  0.11505347734E+04  0.11516758317E+04  0.00000000000E+00 0. -1.
         22    1    3    3    0    0  0.14824255405E+01 -0.59904331288E+02  0.81386840211E+02  0.10106702851E+03  0.00000000000E+00 0.  1.
         22    1    3    3    0    0  0.26606886062E+02  0.62408737945E+02  0.75633158954E+02  0.10160291182E+03  0.00000000000E+00 0.  1.
</event>
<event>
 7    1  0.7118985E-006  0.8358431E+02  0.7818608E-02  0.1459568E+00
          2   -1    0    0  502    0  0.00000000000E+00  0.00000000000E+00  0.75022241158E+03  0.75022241158E+03  0.00000000000E+00 0. -1.
          1   -1    0    0  501    0 -0.00000000000E+00 -0.00000000000E+00 -0.69159273131E+03  0.69159273131E+03  0.00000000000E+00 0. -1.
         25    2    1    2    0    0 -0.49642234954E+02 -0.72957176999E+02  0.19805413291E+01  0.15301957396E+03  0.12499586515E+03 0.  0.
          2    1    1    2  501    0  0.23673517402E+02  0.80138807896E+02 -0.61296750943E+03  0.61863707582E+03  0.00000000000E+00 0. -1.
          1    1    1    2  502    0  0.25968717552E+02 -0.71816308977E+01  0.66961664837E+03  0.67015849311E+03  0.00000000000E+00 0. -1.
         22    1    3    3    0    0  0.22968930704E+02 -0.31631593293E+02  0.44535836460E+02  0.59258503196E+02  0.00000000000E+00 0.  1.
         22    1    3    3    0    0 -0.72611165658E+02 -0.41325583706E+02 -0.42555295130E+02  0.93761070762E+02  0.00000000000E+00 0.  1.
</event>
<event>
 7    1  0.7118985E-006  0.8360934E+02  0.7818608E-02  0.1375107E+00
          2   -1    0    0  502    0  0.00000000000E+00  0.00000000000E+00  0.24613695567E+03  0.24613695567E+03  0.00000000000E+00 0. -1.
          1   -1    0    0  501    0 -0.00000000000E+00 -0.00000000000E+00 -0.11476409499E+04  0.11476409499E+04  0.00000000000E+00 0. -1.
         25    2    1    2    0    0 -0.68787308748E+02 -0.83563203114E+02 -0.11020412337E+03  0.19871057053E+03  0.12500575696E+03 0.  0.
          2    1    1    2  501    0  0.76520213848E+02  0.32411026780E+02 -0.98809633261E+03  0.99158468135E+03  0.00000000000E+00 0. -1.
          1    1    1    2  502    0 -0.77329051000E+01  0.51152176333E+02  0.19679646179E+03  0.20348265365E+03  0.00000000000E+00 0. -1.
         22    1    3    3    0    0 -0.93041911546E+02 -0.89823363000E+02 -0.11516981077E+03  0.17317366762E+03  0.00000000000E+00 0.  1.
         22    1    3    3    0    0  0.24254602798E+02  0.62601598864E+01  0.49656873983E+01  0.25536902906E+02  0.00000000000E+00 0.  1.
</event>
<event>
 7    1  0.7118985E-006  0.8945720E+02  0.7818608E-02  0.1317547E+00
          2   -1    0    0  502    0  0.00000000000E+00  0.00000000000E+00  0.57210127384E+03  0.57210127384E+03  0.00000000000E+00 0. -1.
          1   -1    0    0  501    0 -0.00000000000E+00 -0.00000000000E+00 -0.34618767090E+03  0.34618767090E+03  0.00000000000E+00 0. -1.
         25    2    1    2    0    0  0.88257496181E+02 -0.97167907249E+02 -0.52494331260E+02  0.18871073071E+03  0.12500038896E+03 0.  0.
          2    1    1    2  501    0 -0.97564069034E+01  0.86333145573E+02 -0.21393202452E+03  0.23090151714E+03  0.00000000000E+00 0. -1.
          1    1    1    2  502    0 -0.78501089277E+02  0.10834761677E+02  0.49233995871E+03  0.49867669689E+03  0.00000000000E+00 0. -1.
         22    1    3    3    0    0  0.12061735944E+03 -0.75737396229E+02 -0.42543864409E+02  0.14864279661E+03  0.00000000000E+00 0.  1.
         22    1    3    3    0    0 -0.32359863257E+02 -0.21430511020E+02 -0.99504668509E+01  0.40067934101E+02  0.00000000000E+00 0.  1.
</event>
<event>
 7    1  0.7118985E-006  0.2189426E+03  0.7818608E-02  0.1245964E+00
          2   -1    0    0  502    0  0.00000000000E+00  0.00000000000E+00  0.20742923329E+04  0.20742923329E+04  0.00000000000E+00 0. -1.
          1   -1    0    0  501    0 -0.00000000000E+00 -0.00000000000E+00 -0.61980855540E+03  0.61980855540E+03  0.00000000000E+00 0. -1.
         25    2    1    2    0    0 -0.21880298797E+03 -0.17066849157E+03  0.64927625931E+03  0.71706526063E+03  0.12498178081E+03 0.  0.
          2    1    1    2  501    0  0.15908274327E+03  0.14794496581E+03 -0.56500655300E+03  0.60533250123E+03  0.00000000000E+00 0. -1.
          1    1    1    2  502    0  0.59720244698E+02  0.22723525760E+02  0.13702140712E+04  0.13717031264E+04  0.00000000000E+00 0. -1.
         22    1    3    3    0    0 -0.19421955456E+03 -0.12493133663E+03  0.60911323731E+03  0.65141999517E+03  0.00000000000E+00 0. -1.
         22    1    3    3    0    0 -0.24583433404E+02 -0.45737154943E+02  0.40163022005E+02  0.65645265456E+02  0.00000000000E+00 0. -1.
</event>
<event>
 7    1  0.7118985E-006  0.4965487E+02  0.7818608E-02  0.1452416E+00
          2   -1    0    0  502    0  0.00000000000E+00  0.00000000000E+00  0.42949734177E+03  0.42949734177E+03  0.00000000000E+00 0. -1.
          1   -1    0    0  501    0 -0.00000000000E+00 -0.00000000000E+00 -0.15225747893E+03  0.15225747893E+03  0.00000000000E+00 0. -1.
         25    2    1    2    0    0 -0.65472981763E+02  0.40121778266E+02  0.68899016099E+02  0.16207583955E+03  0.12500013966E+03 0.  0.
          2    1    1    2  501    0  0.16570153984E+02 -0.44821940195E+02 -0.98208657435E+02  0.10921774911E+03  0.00000000000E+00 0. -1.
          1    1    1    2  502    0  0.48902827779E+02  0.47001619293E+01  0.30654950417E+03  0.31046123203E+03  0.00000000000E+00 0. -1.
         22    1    3    3    0    0 -0.73934354968E+02  0.54597221361E+02  0.76757668827E+00  0.91911558570E+02  0.00000000000E+00 0.  1.
         22    1    3    3    0    0  0.84613732054E+01 -0.14475443095E+02  0.68131439411E+02  0.70164280980E+02  0.00000000000E+00 0.  1.
</event>
<event>
 7    1  0.7118985E-006  0.7795128E+02  0.7818608E-02  0.1368573E+00
          2   -1    0    0  502    0  0.00000000000E+00  0.00000000000E+00  0.83072025740E+02  0.83072025740E+02  0.00000000000E+00 0. -1.
          1   -1    0    0  501    0 -0.00000000000E+00 -0.00000000000E+00 -0.20572654917E+04  0.20572654917E+04  0.00000000000E+00 0. -1.
         25    2    1    2    0    0 -0.89769762767E+02  0.69188237882E+02 -0.13781471708E+03  0.21785964377E+03  0.12499722224E+03 0.  0.
          2    1    1    2  501    0  0.58497948580E+02 -0.27646469388E+01 -0.18473219775E+04  0.18482500215E+04  0.00000000000E+00 0. -1.
          1    1    1    2  502    0  0.31271814187E+02 -0.66423590943E+02  0.10943228600E+02  0.74227852242E+02  0.00000000000E+00 0. -1.
         22    1    3    3    0    0 -0.58898249473E+02 -0.27915801948E+02 -0.39192525269E+02  0.76054913229E+02  0.00000000000E+00 0. -1.
         22    1    3    3    0    0 -0.30871513294E+02  0.97104039830E+02 -0.98622191815E+02  0.14180473054E+03  0.00000000000E+00 0. -1.
</event>
<event>
 7    1  0.7118985E-006  0.1587598E+03  0.7818608E-02  0.1247445E+00
          2   -1    0    0  502    0  0.00000000000E+00  0.00000000000E+00  0.19771970933E+04  0.19771970933E+04  0.00000000000E+00 0. -1.
          1   -1    0    0  501    0 -0.00000000000E+00 -0.00000000000E+00 -0.15102323999E+03  0.15102323999E+03  0.00000000000E+00 0. -1.
         25    2    1    2    0    0  0.15527407769E+03 -0.56517753215E+02  0.49874589326E+03  0.54007069830E+03  0.12499838996E+03 0.  0.
          2    1    1    2  501    0 -0.10103897345E+03  0.12431138585E+03 -0.79298345172E+02  0.17874681075E+03  0.00000000000E+00 0. -1.
          1    1    1    2  502    0 -0.54235104242E+02 -0.67793632636E+02  0.14067263052E+04  0.14094028242E+04  0.00000000000E+00 0. -1.
         22    1    3    3    0    0  0.16542759707E+03 -0.41418524293E+02  0.49191301734E+03  0.52063442131E+03  0.00000000000E+00 0.  1.
         22    1    3    3    0    0 -0.10153519386E+02 -0.15099228922E+02  0.68328759206E+01  0.19436276992E+02  0.00000000000E+00 0.  1.
</event>
<event>
 7    1  0.7118985E-006  0.5533243E+02  0.7818608E-02  0.1447267E+00
          2   -1    0    0  502    0  0.00000000000E+00  0.00000000000E+00  0.24868624433E+04  0.24868624433E+04  0.00000000000E+00 0. -1.
          1   -1    0    0  501    0 -0.00000000000E+00 -0.00000000000E+00 -0.77913998501E+03  0.77913998501E+03  0.00000000000E+00 0. -1.
         25    2    1    2    0    0  0.77868033520E+01 -0.55213333706E+02  0.40959611146E+03  0.43186141482E+03  0.12500464217E+03 0.  0.
          2    1    1    2  501    0  0.38032437957E+02  0.23184301277E+02 -0.76698292334E+03  0.76827519995E+03  0.00000000000E+00 0. -1.
          1    1    1    2  502    0 -0.45819241309E+02  0.32029032429E+02  0.20651092702E+04  0.20658658135E+04  0.00000000000E+00 0. -1.
         22    1    3    3    0    0  0.57817952070E+01  0.38543504366E+02  0.17347466505E+03  0.17779901658E+03  0.00000000000E+00 0. -1.
         22    1    3    3    0    0  0.20050081450E+01 -0.93756838072E+02  0.23612144641E+03  0.25406239824E+03  0.00000000000E+00 0. -1.
</event>
<event>
 7    1  0.7118985E-006  0.2442238E+03  0.7818608E-02  0.1180059E+00
          2   -1    0    0  502    0  0.00000000000E+00  0.00000000000E+00  0.17438322341E+04  0.17438322341E+04  0.00000000000E+00 0. -1.
          1   -1    0    0  501    0 -0.00000000000E+00 -0.00000000000E+00 -0.23289457719E+03  0.23289457719E+03  0.00000000000E+00 0. -1.
         25    2    1    2    0    0  0.51897577707E+02  0.20596797959E+03  0.79176994987E+02  0.25886240788E+03  0.12499832994E+03 0.  0.
          2    1    1    2  501    0  0.40338590747E+02 -0.27535992306E+03 -0.31520999647E+01  0.27831677072E+03  0.00000000000E+00 0. -1.
          1    1    1    2  502    0 -0.92236168454E+02  0.69391943464E+02  0.14349127619E+04  0.14395476327E+04  0.00000000000E+00 0. -1.
         22    1    3    3    0    0  0.64017265531E+02  0.11300802543E+03  0.98670987481E+02  0.16311035488E+03  0.00000000000E+00 0.  1.
         22    1    3    3    0    0 -0.12119687824E+02  0.92959954161E+02 -0.19493992495E+02  0.95752053002E+02  0.00000000000E+00 0.  1.
</event>
<event>
 7    1  0.7118985E-006  0.6073875E+02  0.7818608E-02  0.1454359E+00
          2   -1    0    0  502    0  0.00000000000E+00  0.00000000000E+00  0.13615057304E+04  0.13615057304E+04  0.00000000000E+00 0. -1.
          1   -1    0    0  501    0 -0.00000000000E+00 -0.00000000000E+00 -0.66069072399E+03  0.66069072399E+03  0.00000000000E+00 0. -1.
         25    2    1    2    0    0  0.19417161259E+02 -0.47761426065E+02  0.70627978637E+02  0.15255087185E+03  0.12500110866E+03 0.  0.
          2    1    1    2  501    0  0.17591242491E+02  0.58423734381E+02 -0.61792974040E+03  0.62093473781E+03  0.00000000000E+00 0. -1.
          1    1    1    2  502    0 -0.37008403750E+02 -0.10662308316E+02  0.12481167681E+04  0.12487108447E+04  0.00000000000E+00 0. -1.
         22    1    3    3    0    0 -0.19377497322E+01 -0.77753230196E+02  0.82965011394E+02  0.11372120645E+03  0.00000000000E+00 0.  1.
         22    1    3    3    0    0  0.21354910991E+02  0.29991804131E+02 -0.12337032757E+02  0.38829665408E+02  0.00000000000E+00 0.  1.
</event>
<event>
 7    1  0.7118985E-006  0.3811377E+02  0.7818608E-02  0.1613400E+00
          2   -1    0    0  502    0  0.00000000000E+00  0.00000000000E+00  0.95259945148E+03  0.95259945148E+03  0.00000000000E+00 0. -1.
          1   -1    0    0  501    0 -0.00000000000E+00 -0.00000000000E+00 -0.25493035963E+03  0.25493035963E+03  0.00000000000E+00 0. -1.
         25    2    1    2    0    0  0.29888877549E+02 -0.51194055177E+02  0.10597347717E+03  0.17426581505E+03  0.12499608052E+03 0.  0.
          2    1    1    2  501    0 -0.20752412926E+02  0.31676709913E+02 -0.21901610986E+03  0.22226590601E+03  0.00000000000E+00 0. -1.
          1    1    1    2  502    0 -0.91364646233E+01  0.19517345264E+02  0.81071172454E+03  0.81099809005E+03  0.00000000000E+00 0. -1.
         22    1    3    3    0    0  0.69524347368E+02  0.48146448232E+01  0.51423852482E+02  0.86609631599E+02  0.00000000000E+00 0.  1.
         22    1    3    3    0    0 -0.39635469819E+02 -0.56008700000E+02  0.54549624693E+02  0.87656183453E+02  0.00000000000E+00 0.  1.
</event>
<event>
 7    1  0.7118985E-006  0.5116035E+02  0.7818608E-02  0.1504498E+00
          2   -1    0    0  502    0  0.00000000000E+00  0.00000000000E+00  0.10024649070E+04  0.10024649070E+04  0.00000000000E+00 0. -1.
          1   -1    0    0  501    0 -0.00000000000E+00 -0.00000000000E+00 -0.58594107314E+03  0.58594107314E+03  0.00000000000E+00 0. -1.
         25    2    1    2    0    0 -0.18482588718E+02  0.75973826874E+02  0.64349492702E+03  0.66016925491E+03  0.12499638222E+03 0.  0.
          2    1    1    2  501    0 -0.17546233042E+01 -0.51088285932E+02 -0.57573552869E+03  0.57800042445E+03  0.00000000000E+00 0. -1.
          1    1    1    2  502    0  0.20237212023E+02 -0.24885540941E+02  0.34876443554E+03  0.35023630080E+03  0.00000000000E+00 0. -1.
         22    1    3    3    0    0 -0.20284921860E+02 -0.21968949340E+01  0.11631250236E+02  0.23485961430E+02  0.00000000000E+00 0.  1.
         22    1    3    3    0    0  0.18023331420E+01  0.78170721807E+02  0.63186367679E+03  0.63668329348E+03  0.00000000000E+00 0.  1.
</event>
<event>
 7    1  0.7118985E-006  0.6755349E+02  0.7818608E-02  0.1465821E+00
          2   -1    0    0  502    0  0.00000000000E+00  0.00000000000E+00  0.16734494650E+03  0.16734494650E+03  0.00000000000E+00 0. -1.
          1   -1    0    0  501    0 -0.00000000000E+00 -0.00000000000E+00 -0.45882150006E+03  0.45882150006E+03  0.00000000000E+00 0. -1.
         25    2    1    2    0    0 -0.69111254207E+02 -0.23102950990E+02 -0.15652547501E+03  0.21315718598E+03  0.12500259919E+03 0.  0.
          2    1    1    2  501    0  0.20755041160E+02 -0.24175302332E+02 -0.26474394149E+03  0.26665440467E+03  0.00000000000E+00 0. -1.
          1    1    1    2  502    0  0.48356213046E+02  0.47278253322E+02  0.12979286294E+03  0.14635485591E+03  0.00000000000E+00 0. -1.
         22    1    3    3    0    0  0.34308043704E+02  0.63951725650E+00 -0.62884063320E+02  0.71636975541E+02  0.00000000000E+00 0.  1.
         22    1    3    3    0    0 -0.10341929791E+03 -0.23742468247E+02 -0.93641411688E+02  0.14152021044E+03  0.00000000000E+00 0.  1.
</event>
<event>
 7    1  0.7118985E-006  0.6775840E+02  0.7818608E-02  0.1478836E+00
          2   -1    0    0  502    0  0.00000000000E+00  0.00000000000E+00  0.12729521915E+04  0.12729521915E+04  0.00000000000E+00 0. -1.
          1   -1    0    0  501    0 -0.00000000000E+00 -0.00000000000E+00 -0.50215155679E+02  0.50215155679E+02  0.00000000000E+00 0. -1.
         25    2    1    2    0    0  0.54452361237E+02  0.16322551740E+02  0.64602773466E+03  0.66046071293E+03  0.12500013615E+03 0.  0.
          2    1    1    2  501    0  0.15074652590E+01  0.28908061134E+02 -0.35769792870E+02  0.46015503170E+02  0.00000000000E+00 0. -1.
          1    1    1    2  502    0 -0.55959826496E+02 -0.45230612874E+02  0.61247909399E+03  0.61669113104E+03  0.00000000000E+00 0. -1.
         22    1    3    3    0    0  0.14572337633E+02  0.52920038838E+02  0.12364338244E+03  0.13527959771E+03  0.00000000000E+00 0.  1.
         22    1    3    3    0    0  0.39880023604E+02 -0.36597487098E+02  0.52238435222E+03  0.52518111522E+03  0.00000000000E+00 0.  1.
</event>
<event>
 7    1  0.7118985E-006  0.1100906E+03  0.7818608E-02  0.1308510E+00
          2   -1    0    0  502    0  0.00000000000E+00  0.00000000000E+00  0.37768810394E+03  0.37768810394E+03  0.00000000000E+00 0. -1.
          1   -1    0    0  501    0 -0.00000000000E+00 -0.00000000000E+00 -0.16126799532E+03  0.16126799532E+03  0.00000000000E+00 0. -1.
         25    2    1    2    0    0 -0.11704797497E+03 -0.89063612723E+01  0.29496599618E+03  0.34118804866E+03  0.12499917573E+03 0.  0.
          2    1    1    2  501    0  0.95460083809E+02 -0.57544090234E+02 -0.52422469451E+02  0.12317493749E+03  0.00000000000E+00 0. -1.
          1    1    1    2  502    0  0.21587891157E+02  0.66450451507E+02 -0.26123418100E+02  0.74593113109E+02  0.00000000000E+00 0. -1.
         22    1    3    3    0    0  0.18174702826E+02  0.27181015395E+01  0.11135337301E+03  0.11285956575E+03  0.00000000000E+00 0. -1.
         22    1    3    3    0    0 -0.13522267779E+03 -0.11624462812E+02  0.18361262316E+03  0.22832848291E+03  0.00000000000E+00 0. -1.
</event>
<event>
 7    1  0.7118985E-006  0.1138227E+03  0.7818608E-02  0.1306349E+00
          2   -1    0    0  502    0  0.00000000000E+00  0.00000000000E+00  0.76718475451E+03  0.76718475451E+03  0.00000000000E+00 0. -1.
          1   -1    0    0  501    0 -0.00000000000E+00 -0.00000000000E+00 -0.61230501276E+03  0.61230501276E+03  0.00000000000E+00 0. -1.
         25    2    1    2    0    0  0.10630474528E+01  0.69487008831E+02  0.69526635340E+02  0.15902557867E+03  0.12500242871E+03 0.  0.
          2    1    1    2  501    0 -0.63987541785E+02 -0.97606007924E+02 -0.55970029430E+03  0.57173923928E+03  0.00000000000E+00 0. -1.
          1    1    1    2  502    0  0.62924494332E+02  0.28118999093E+02  0.64505340072E+03  0.64872494932E+03  0.00000000000E+00 0. -1.
         22    1    3    3    0    0  0.50034054232E+02  0.76433836987E+02  0.31486242908E+02  0.96627747112E+02  0.00000000000E+00 0. -1.
         22    1    3    3    0    0 -0.48971006779E+02 -0.69468281565E+01  0.38040392432E+02  0.62397831555E+02  0.00000000000E+00 0. -1.
</event>
<event>
 7    1  0.7118985E-006  0.8089481E+02  0.7818608E-02  0.1414164E+00
          2   -1    0    0  502    0  0.00000000000E+00  0.00000000000E+00  0.16075999651E+04  0.16075999651E+04  0.00000000000E+00 0. -1.
          1   -1    0    0  501    0 -0.00000000000E+00 -0.00000000000E+00 -0.56527835084E+02  0.56527835084E+02  0.00000000000E+00 0. -1.
         25    2    1    2    0    0 -0.39859514761E+02  0.55148938352E+02  0.25545566198E+03  0.29242742971E+03  0.12500408031E+03 0.  0.
          2    1    1    2  501    0  0.12643108955E+02 -0.83288478518E+02  0.92618911046E+01  0.84750229998E+02  0.00000000000E+00 0. -1.
          1    1    1    2  502    0  0.27216405806E+02  0.28139540165E+02  0.12863545769E+04  0.12869501405E+04  0.00000000000E+00 0. -1.
         22    1    3    3    0    0  0.36116535859E+02 -0.14020246883E+02  0.84759254474E+02  0.93193898428E+02  0.00000000000E+00 0. -1.
         22    1    3    3    0    0 -0.75976050620E+02  0.69169185235E+02  0.17069640751E+03  0.19923353129E+03  0.00000000000E+00 0. -1.
</event>
<event>
 7    1  0.7118985E-006  0.9480849E+02  0.7818608E-02  0.1377406E+00
          2   -1    0    0  502    0  0.00000000000E+00  0.00000000000E+00  0.18911203758E+03  0.18911203758E+03  0.00000000000E+00 0. -1.
          1   -1    0    0  501    0 -0.00000000000E+00 -0.00000000000E+00 -0.61862585471E+03  0.61862585471E+03  0.00000000000E+00 0. -1.
         25    2    1    2    0    0 -0.63749387708E+02  0.10248607019E+02 -0.37750306071E+02  0.14569158440E+03  0.12502773204E+03 0.  0.
          2    1    1    2  501    0 -0.27023194433E+02  0.35694781255E+02 -0.50662941151E+03  0.50860370727E+03  0.00000000000E+00 0. -1.
          1    1    1    2  502    0  0.90772582141E+02 -0.45943388275E+02  0.11486590045E+03  0.15344260061E+03  0.00000000000E+00 0. -1.
         22    1    3    3    0    0 -0.34650220684E+02  0.38829616500E+02 -0.74441621542E+02  0.90829135902E+02  0.00000000000E+00 0.  1.
         22    1    3    3    0    0 -0.29099167024E+02 -0.28581009481E+02  0.36691315471E+02  0.54862448500E+02  0.00000000000E+00 0.  1.
</event>
<event>
 7    1  0.7118985E-006  0.8110573E+02  0.7818608E-02  0.1391023E+00
          2   -1    0    0  502    0  0.00000000000E+00  0.00000000000E+00  0.95554216019E+03  0.95554216019E+03  0.00000000000E+00 0. -1.
          1   -1    0    0  501    0 -0.00000000000E+00 -0.00000000000E+00 -0.10740253468E+04  0.10740253468E+04  0.00000000000E+00 0. -1.
         25    2    1    2    0    0  0.25436963744E+02 -0.12257613475E+03  0.19020515765E+03  0.25975875673E+03  0.12499864706E+03 0.  0.
          2    1    1    2  501    0 -0.12072766448E+02  0.45284154276E+02 -0.10366121260E+04  0.10376710009E+04  0.00000000000E+00 0. -1.
          1    1    1    2  502    0 -0.13364197296E+02  0.77291980478E+02  0.72792378174E+03  0.73213774936E+03  0.00000000000E+00 0. -1.
         22    1    3    3    0    0  0.59533620440E+02 -0.12211621435E+03  0.17714861833E+03  0.22324483139E+03  0.00000000000E+00 0.  1.
         22    1    3    3    0    0 -0.34096656696E+02 -0.45992040821E+00  0.13056539320E+02  0.36513925338E+02  0.00000000000E+00 0.  1.
</event>
<event>
 7    1  0.7118985E-006  0.1366770E+03  0.7818608E-02  0.1286019E+00
          2   -1    0    0  502    0  0.00000000000E+00  0.00000000000E+00  0.68610600719E+03  0.68610600719E+03  0.00000000000E+00 0. -1.
          1   -1    0    0  501    0 -0.00000000000E+00 -0.00000000000E+00 -0.56447286762E+03  0.56447286762E+03  0.00000000000E+00 0. -1.
         25    2    1    2    0    0  0.83435090485E+02  0.12359173183E+03  0.28450172524E+03  0.34467739701E+03  0.12499978338E+03 0.  0.
          2    1    1    2  501    0 -0.15237377396E+02 -0.13594009628E+03 -0.52226572579E+03  0.53988274262E+03  0.00000000000E+00 0. -1.
          1    1    1    2  502    0 -0.68197713089E+02  0.12348364453E+02  0.35939714012E+03  0.36601873518E+03  0.00000000000E+00 0. -1.
         22    1    3    3    0    0 -0.24519222846E+02  0.58326363571E+02  0.13481005647E+03  0.14891913343E+03  0.00000000000E+00 0. -1.
         22    1    3    3    0    0  0.10795431333E+03  0.65265368255E+02  0.14969166877E+03  0.19575826358E+03  0.00000000000E+00 0. -1.
</event>
<event>
 7    1  0.7118985E-006  0.6815297E+02  0.7818608E-02  0.1388563E+00
          2   -1    0    0  502    0  0.00000000000E+00  0.00000000000E+00  0.26869349149E+03  0.26869349149E+03  0.00000000000E+00 0. -1.
          1   -1    0    0  501    0 -0.00000000000E+00 -0.00000000000E+00 -0.13977226664E+03  0.13977226664E+03  0.00000000000E+00 0. -1.
         25    2    1    2    0    0 -0.34271466645E+02 -0.91131768541E+02  0.62649127292E+02  0.17038203906E+03  0.12500237366E+03 0.  0.
          2    1    1    2  501    0 -0.19847445314E+02  0.53312152165E+02 -0.67879620989E+02  0.88564945659E+02  0.00000000000E+00 0. -1.
          1    1    1    2  502    0  0.54118911959E+02  0.37819616376E+02  0.13415171854E+03  0.14951877341E+03  0.00000000000E+00 0. -1.
         22    1    3    3    0    0 -0.60732572670E+02 -0.54204171469E+02  0.86744067202E+02  0.11895827328E+03  0.00000000000E+00 0. -1.
         22    1    3    3    0    0  0.26461106025E+02 -0.36927597072E+02 -0.24094939910E+02  0.51423765778E+02  0.00000000000E+00 0. -1.
</event>
<event>
 7    1  0.7118985E-006  0.6836556E+02  0.7818608E-02  0.1409749E+00
          2   -1    0    0  502    0  0.00000000000E+00  0.00000000000E+00  0.28320405847E+03  0.28320405847E+03  0.00000000000E+00 0. -1.
          1   -1    0    0  501    0 -0.00000000000E+00 -0.00000000000E+00 -0.19262085589E+04  0.19262085589E+04  0.00000000000E+00 0. -1.
         25    2    1    2    0    0 -0.42604689637E+02  0.16454982653E+02 -0.10624585380E+03  0.17029126601E+03  0.12500003119E+03 0.  0.
          2    1    1    2  501    0  0.63797173693E+02  0.26548000071E+02 -0.17849778182E+04  0.17863148343E+04  0.00000000000E+00 0. -1.
          1    1    1    2  502    0 -0.21192484057E+02 -0.43002982724E+02  0.24821917161E+03  0.25280651704E+03  0.00000000000E+00 0. -1.
         22    1    3    3    0    0  0.31375830478E+02  0.62403072003E+01  0.87565736637E+01  0.33167178874E+02  0.00000000000E+00 0.  1.
         22    1    3    3    0    0 -0.73980520114E+02  0.10214675453E+02 -0.11500242746E+03  0.13712408714E+03  0.00000000000E+00 0.  1.
</event>
<event>
 7    1  0.7118985E-006  0.4750897E+02  0.7818608E-02  0.1516842E+00
          2   -1    0    0  502    0  0.00000000000E+00  0.00000000000E+00  0.19530648784E+04  0.19530648784E+04  0.00000000000E+00 0. -1.
          1   -1    0    0  501    0 -0.00000000000E+00 -0.00000000000E+00 -0.92712328156E+03  0.92712328156E+03  0.00000000000E+00 0. -1.
         25    2    1    2    0    0  0.56821521203E+02 -0.46758604318E+02 -0.24489962811E+02  0.14710503064E+03  0.12500031765E+03 0.  0.
          2    1    1    2  501    0 -0.43788672516E+02  0.17784037177E+02 -0.84052849082E+03  0.84185620132E+03  0.00000000000E+00 0. -1.
          1    1    1    2  502    0 -0.13032848687E+02  0.28974567141E+02  0.18909600505E+04  0.18912269280E+04  0.00000000000E+00 0. -1.
         22    1    3    3    0    0  0.27990180913E+02  0.67162028314E+01  0.45865436616E+02  0.54149754237E+02  0.00000000000E+00 0.  1.
         22    1    3    3    0    0  0.28831340290E+02 -0.53474807149E+02 -0.70355399427E+02  0.92955276403E+02  0.00000000000E+00 0.  1.
</event>
<event>
 7    1  0.7118985E-006  0.8109794E+02  0.7818608E-02  0.1356529E+00
          2   -1    0    0  502    0  0.00000000000E+00  0.00000000000E+00  0.48551267417E+03  0.48551267417E+03  0.00000000000E+00 0. -1.
          1   -1    0    0  501    0 -0.00000000000E+00 -0.00000000000E+00 -0.29852166851E+03  0.29852166851E+03  0.00000000000E+00 0. -1.
         25    2    1    2    0    0 -0.56228942442E+02  0.72298039099E+02  0.13018268706E+03  0.20239137004E+03  0.12500413685E+03 0.  0.
          2    1    1    2  501    0 -0.24878734506E+02 -0.57075845677E+02 -0.25324950599E+03  0.26079094286E+03  0.00000000000E+00 0. -1.
          1    1    1    2  502    0  0.81107676949E+02 -0.15222193421E+02  0.31005782458E+03  0.32085202979E+03  0.00000000000E+00 0. -1.
         22    1    3    3    0    0 -0.50046896735E+02  0.32402018271E+02 -0.64037698508E+01  0.59963246486E+02  0.00000000000E+00 0.  1.
         22    1    3    3    0    0 -0.61820457068E+01  0.39896020828E+02  0.13658645691E+03  0.14242812355E+03  0.00000000000E+00 0.  1.
</event>
<event>
 7    1  0.7118985E-006  0.1283110E+03  0.7818608E-02  0.1314969E+00
          2   -1    0    0  502    0  0.00000000000E+00  0.00000000000E+00  0.14947018663E+04  0.14947018663E+04  0.00000000000E+00 0. -1.
          1   -1    0    0  501    0 -0.00000000000E+00 -0.00000000000E+00 -0.51376120361E+03  0.51376120361E+03  0.00000000000E+00 0. -1.
         25    2    1    2    0    0  0.16377558885E+03 -0.23759305191E+02  0.25352337385E+03  0.32754515547E+03  0.12499911879E+03 0.  0.
          2    1    1    2  501    0 -0.12608036180E+03 -0.18386981271E+02 -0.46755682022E+03  0.48460676723E+03  0.00000000000E+00 0. -1.
          1    1    1    2  502    0 -0.37695227044E+02  0.42146286462E+02  0.11949741090E+04  0.11963111472E+04  0.00000000000E+00 0. -1.
         22    1    3    3    0    0  0.82534637857E+02 -0.74693203658E+02  0.12918539631E+03  0.17052831946E+03  0.00000000000E+00 0. -1.
         22    1    3    3    0    0  0.81240950991E+02  0.50933898467E+02  0.12433797754E+03  0.15701683601E+03  0.00000000000E+00 0. -1.
</event>
<event>
 7    1  0.7118985E-006  0.1119053E+03  0.7818608E-02  0.1413858E+00
          2   -1    0    0  502    0  0.00000000000E+00  0.00000000000E+00  0.30768922836E+03  0.30768922836E+03  0.00000000000E+00 0. -1.
          1   -1    0    0  501    0 -0.00000000000E+00 -0.00000000000E+00 -0.78287921354E+03  0.78287921354E+03  0.00000000000E+00 0. -1.
         25    2    1    2    0    0  0.85347756484E+02  0.76961784858E+02  0.41595262545E+02  0.17482342718E+03  0.12500283580E+03 0.  0.
          2    1    1    2  501    0 -0.62050605196E+02 -0.93145659899E+02 -0.71085560896E+03  0.71961245705E+03  0.00000000000E+00 0. -1.
          1    1    1    2  502    0 -0.23297151288E+02  0.16183875041E+02  0.19407036123E+03  0.19613255767E+03  0.00000000000E+00 0. -1.
         22    1    3    3    0    0 -0.12624469111E+02 -0.22764417664E+02 -0.67657092804E+01  0.26895552680E+02  0.00000000000E+00 0. -1.
         22    1    3    3    0    0  0.97972225596E+02  0.99726202522E+02  0.48360971825E+02  0.14792787450E+03  0.00000000000E+00 0. -1.
</event>
<event>
 7    1  0.7118985E-006  0.6035002E+02  0.7818608E-02  0.1402264E+00
          2   -1    0    0  502    0  0.00000000000E+00  0.00000000000E+00  0.25528103479E+03  0.25528103479E+03  0.00000000000E+00 0. -1.
          1   -1    0    0  501    0 -0.00000000000E+00 -0.00000000000E+00 -0.90013793161E+02  0.90013793161E+02  0.00000000000E+00 0. -1.
         25    2    1    2    0    0 -0.26926689101E+02 -0.16900981936E+02  0.76688250281E+02  0.15007850018E+03  0.12502711189E+03 0.  0.
          2    1    1    2  501    0  0.19216188070E+02 -0.54294608932E+02 -0.23506611206E+02  0.62207131532E+02  0.00000000000E+00 0. -1.
          1    1    1    2  502    0  0.77105010309E+01  0.71195590869E+02  0.11208560255E+03  0.13300919624E+03  0.00000000000E+00 0. -1.
         22    1    3    3    0    0  0.69038187117E+01 -0.38161578237E+02  0.97569929039E+02  0.10499457043E+03  0.00000000000E+00 0.  1.
         22    1    3    3    0    0 -0.33830507813E+02  0.21260596301E+02 -0.20881678758E+02  0.45083929750E+02  0.00000000000E+00 0.  1.
</event>
<event>
 7    1  0.7118985E-006  0.1918136E+03  0.7818608E-02  0.1320307E+00
          2   -1    0    0  502    0  0.00000000000E+00  0.00000000000E+00  0.18493820516E+03  0.18493820516E+03  0.00000000000E+00 0. -1.
          1   -1    0    0  501    0 -0.00000000000E+00 -0.00000000000E+00 -0.20348599294E+04  0.20348599294E+04  0.00000000000E+00 0. -1.
         25    2    1    2    0    0  0.18561118888E+03  0.12433134938E+03 -0.61944952963E+03  0.67026310488E+03  0.12500044850E+03 0.  0.
          2    1    1    2  501    0 -0.23071805796E+02 -0.27708423133E+02 -0.13336428933E+04  0.13341302154E+04  0.00000000000E+00 0. -1.
          1    1    1    2  502    0 -0.16253938308E+03 -0.96622926244E+02  0.10317069868E+03  0.21540481423E+03  0.00000000000E+00 0. -1.
         22    1    3    3    0    0  0.30504667936E+02 -0.20835067852E+02 -0.47770695443E+02  0.60387698758E+02  0.00000000000E+00 0.  1.
         22    1    3    3    0    0  0.15510652094E+03  0.14516641723E+03 -0.57167883419E+03  0.60987540612E+03  0.00000000000E+00 0.  1.
</event>
<event>
 7    1  0.7118985E-006  0.9271006E+02  0.7818608E-02  0.1343605E+00
          2   -1    0    0  502    0  0.00000000000E+00  0.00000000000E+00  0.42864519816E+03  0.42864519816E+03  0.00000000000E+00 0. -1.
          1   -1    0    0  501    0 -0.00000000000E+00 -0.00000000000E+00 -0.69005960076E+03  0.69005960076E+03  0.00000000000E+00 0. -1.
         25    2    1    2    0    0  0.14336786260E+03  0.41942615905E+02  0.12363141046E+03  0.23070162215E+03  0.12499994302E+03 0.  0.
          2    1    1    2  501    0 -0.82593002531E+02 -0.39805117337E+02 -0.62947790702E+03  0.63611986831E+03  0.00000000000E+00 0. -1.
          1    1    1    2  502    0 -0.60774860073E+02 -0.21374985672E+01  0.24443209397E+03  0.25188330845E+03  0.00000000000E+00 0. -1.
         22    1    3    3    0    0  0.12664895741E+03  0.37643938696E+02  0.14955338850E+03  0.19955761210E+03  0.00000000000E+00 0. -1.
         22    1    3    3    0    0  0.16718905191E+02  0.42986772090E+01 -0.25921978042E+02  0.31144010053E+02  0.00000000000E+00 0. -1.
</event>
<event>
 7    1  0.7118985E-006  0.1012267E+03  0.7818608E-02  0.1327384E+00
          2   -1    0    0  502    0  0.00000000000E+00  0.00000000000E+00  0.33901141778E+04  0.33901141778E+04  0.00000000000E+00 0. -1.
          1   -1    0    0  501    0 -0.00000000000E+00 -0.00000000000E+00 -0.72351382416E+02  0.72351382416E+02  0.00000000000E+00 0. -1.
         25    2    1    2    0    0 -0.10168219039E+03  0.12543454678E+03  0.63506524690E+03  0.66708839416E+03  0.12500385766E+03 0.  0.
          2    1    1    2  501    0  0.61025525896E+02 -0.75799238998E+02 -0.13651405253E+02  0.98264949544E+02  0.00000000000E+00 0. -1.
          1    1    1    2  502    0  0.40656664493E+02 -0.49635307787E+02  0.26963489537E+04  0.26971122165E+04  0.00000000000E+00 0. -1.
         22    1    3    3    0    0  0.27395366977E+02  0.11557622749E+02  0.13472656147E+03  0.13796858751E+03  0.00000000000E+00 0.  1.
         22    1    3    3    0    0 -0.12907755737E+03  0.11387692404E+03  0.50033868544E+03  0.52911980665E+03  0.00000000000E+00 0.  1.
</event>
<event>
 7    1  0.7118985E-006  0.3979596E+02  0.7818608E-02  0.1592947E+00
          2   -1    0    0  502    0  0.00000000000E+00  0.00000000000E+00  0.34429383929E+03  0.34429383929E+03  0.00000000000E+00 0. -1.
          1   -1    0    0  501    0 -0.00000000000E+00 -0.00000000000E+00 -0.18264479244E+03  0.18264479244E+03  0.00000000000E+00 0. -1.
         25    2    1    2    0    0 -0.43732277524E+02  0.44490300821E+02 -0.38204755234E+01  0.13975542068E+03  0.12500033044E+03 0.  0.
          2    1    1    2  501    0  0.18337447389E+02 -0.14423242838E+02 -0.10820590294E+03  0.11069240869E+03  0.00000000000E+00 0. -1.
          1    1    1    2  502    0  0.25394830135E+02 -0.30067057983E+02  0.27367542531E+03  0.27649080237E+03  0.00000000000E+00 0. -1.
         22    1    3    3    0    0 -0.36681596323E+02  0.87721037193E+02 -0.96379060407E+01  0.95568871019E+02  0.00000000000E+00 0.  1.
         22    1    3    3    0    0 -0.70506812016E+01 -0.43230736372E+02  0.58174305173E+01  0.44186549656E+02  0.00000000000E+00 0.  1.
</event>
<event>
 7    1  0.7118985E-006  0.5324410E+02  0.7818608E-02  0.1466605E+00
          2   -1    0    0  502    0  0.00000000000E+00  0.00000000000E+00  0.97996996293E+03  0.97996996293E+03  0.00000000000E+00 0. -1.
          1   -1    0    0  501    0 -0.00000000000E+00 -0.00000000000E+00 -0.25351368133E+03  0.25351368133E+03  0.00000000000E+00 0. -1.
         25    2    1    2    0    0 -0.16163536903E+02 -0.19300507223E+02  0.94931862400E+02  0.15897411873E+03  0.12500776945E+03 0.  0.
          2    1    1    2  501    0 -0.41192051973E+01  0.54006122057E+02 -0.21769880120E+03  0.22433545666E+03  0.00000000000E+00 0. -1.
          1    1    1    2  502    0  0.20282742100E+02 -0.34705614835E+02  0.84922322040E+03  0.85017406888E+03  0.00000000000E+00 0. -1.
         22    1    3    3    0    0 -0.40591878683E+02  0.17304005837E+02 -0.99497405763E+01  0.45234130593E+02  0.00000000000E+00 0. -1.
         22    1    3    3    0    0  0.24428341780E+02 -0.36604513059E+02  0.10488160298E+03  0.11373998814E+03  0.00000000000E+00 0. -1.
</event>
<event>
 7    1  0.7118985E-006  0.1087786E+03  0.7818608E-02  0.1282606E+00
          2   -1    0    0  502    0  0.00000000000E+00  0.00000000000E+00  0.85111144945E+03  0.85111144945E+03  0.00000000000E+00 0. -1.
          1   -1    0    0  501    0 -0.00000000000E+00 -0.00000000000E+00 -0.70107608850E+03  0.70107608850E+03  0.00000000000E+00 0. -1.
         25    2    1    2    0    0  0.46439986682E+02  0.35506992329E+02 -0.18403908312E+02  0.13922214685E+03  0.12500673367E+03 0.  0.
          2    1    1    2  501    0  0.62100609686E+02 -0.65053830887E+02 -0.61497480271E+03  0.62151628668E+03  0.00000000000E+00 0. -1.
          1    1    1    2  502    0 -0.10854059637E+03  0.29546838559E+02  0.78341407197E+03  0.79144910442E+03  0.00000000000E+00 0. -1.
         22    1    3    3    0    0  0.78491274687E+02 -0.37481223080E+01 -0.34822765589E+02  0.85950879147E+02  0.00000000000E+00 0.  1.
         22    1    3    3    0    0 -0.32051288005E+02  0.39255114637E+02  0.16418857276E+02  0.53271267698E+02  0.00000000000E+00 0.  1.
</event>
<event>
 7    1  0.7118985E-006  0.1118692E+03  0.7818608E-02  0.1296466E+00
          2   -1    0    0  502    0  0.00000000000E+00  0.00000000000E+00  0.32028063151E+03  0.32028063151E+03  0.00000000000E+00 0. -1.
          1   -1    0    0  501    0 -0.00000000000E+00 -0.00000000000E+00 -0.35549374339E+03  0.35549374339E+03  0.00000000000E+00 0. -1.
         25    2    1    2    0    0  0.66992831411E+02  0.17010899100E+03  0.11458052536E+03  0.24935666218E+03  0.12499975961E+03 0.  0.
          2    1    1    2  501    0 -0.51064247631E+02 -0.94980735896E+02 -0.26605640775E+03  0.28707997088E+03  0.00000000000E+00 0. -1.
          1    1    1    2  502    0 -0.15928583780E+02 -0.75128255102E+02  0.11626277051E+03  0.13933774184E+03  0.00000000000E+00 0. -1.
         22    1    3    3    0    0  0.39664738669E+01  0.12303089528E+03  0.11813095785E+03  0.17060849133E+03  0.00000000000E+00 0. -1.
         22    1    3    3    0    0  0.63026357544E+02  0.47078095717E+02 -0.35504324957E+01  0.78748170852E+02  0.00000000000E+00 0. -1.
</event>
<event>
 7    1  0.7118985E-006  0.8963794E+02  0.7818608E-02  0.1459599E+00
          2   -1    0    0  502    0  0.00000000000E+00  0.00000000000E+00  0.19133345234E+04  0.19133345234E+04  0.00000000000E+00 0. -1.
          1   -1    0    0  501    0 -0.00000000000E+00 -0.00000000000E+00 -0.38880723633E+03  0.38880723633E+03  0.00000000000E+00 0. -1.
         25    2    1    2    0    0 -0.66087975766E+02 -0.80357383529E+02 -0.18007541336E+03  0.24264516758E+03  0.12499837287E+03 0.  0.
          2    1    1    2  501    0  0.25108463631E+02  0.70356508993E+00 -0.17548629954E+03  0.17727484671E+03  0.00000000000E+00 0. -1.
          1    1    1    2  502    0  0.40979512135E+02  0.79653818439E+02  0.18800890000E+04  0.18822217454E+04  0.00000000000E+00 0. -1.
         22    1    3    3    0    0 -0.32066984377E+02 -0.92890629212E+02 -0.18146215623E+03  0.20636248358E+03  0.00000000000E+00 0. -1.
         22    1    3    3    0    0 -0.34020991389E+02  0.12533245684E+02  0.13867428699E+01  0.36282684000E+02  0.00000000000E+00 0. -1.
</event>
<event>
 7    1  0.7118985E-006  0.1303809E+03  0.7818608E-02  0.1422285E+00
          2   -1    0    0  502    0  0.00000000000E+00  0.00000000000E+00  0.88654563149E+03  0.88654563149E+03  0.00000000000E+00 0. -1.
          1   -1    0    0  501    0 -0.00000000000E+00 -0.00000000000E+00 -0.13028357985E+03  0.13028357985E+03  0.00000000000E+00 0. -1.
         25    2    1    2    0    0  0.13744639184E+03 -0.37834798061E+02  0.23026989980E+03  0.29828350064E+03  0.12500334967E+03 0.  0.
          2    1    1    2  501    0 -0.12739626623E+03  0.17352473026E+02 -0.53026215889E+02  0.13907802322E+03  0.00000000000E+00 0. -1.
          1    1    1    2  502    0 -0.10050125609E+02  0.20482325034E+02  0.57901836773E+03  0.57946768748E+03  0.00000000000E+00 0. -1.
         22    1    3    3    0    0  0.88829459430E+02 -0.64035550811E+02  0.73020261141E+02  0.13161756405E+03  0.00000000000E+00 0. -1.
         22    1    3    3    0    0  0.48616932411E+02  0.26200752750E+02  0.15724963866E+03  0.16666593659E+03  0.00000000000E+00 0. -1.
</event>
<event>
 7    1  0.7118985E-006  0.7606658E+02  0.7818608E-02  0.1370149E+00
          2   -1    0    0  502    0  0.00000000000E+00  0.00000000000E+00  0.39870653999E+04  0.39870653999E+04  0.00000000000E+00 0. -1.
          1   -1    0    0  501    0 -0.00000000000E+00 -0.00000000000E+00 -0.46713297269E+02  0.46713297269E+02  0.00000000000E+00 0. -1.
         25    2    1    2    0    0 -0.12475401357E+03  0.49777157175E+02  0.24218763558E+03  0.30384328316E+03  0.12499824244E+03 0.  0.
          2    1    1    2  501    0  0.53366035846E+02 -0.25709168965E+02  0.41106567595E+02  0.72101630011E+02  0.00000000000E+00 0. -1.
          1    1    1    2  502    0  0.71387977722E+02 -0.24067988210E+02  0.36570578995E+04  0.36578337840E+04  0.00000000000E+00 0. -1.
         22    1    3    3    0    0 -0.14246265446E+03  0.67928132492E+02  0.21434466909E+03  0.26618316300E+03  0.00000000000E+00 0.  1.
         22    1    3    3    0    0  0.17708640888E+02 -0.18150975318E+02  0.27842966499E+02  0.37660120161E+02  0.00000000000E+00 0.  1.
</event>
<event>
 7    1  0.7118985E-006  0.4919509E+02  0.7818608E-02  0.1502624E+00
          2   -1    0    0  502    0  0.00000000000E+00  0.00000000000E+00  0.12000312970E+04  0.12000312970E+04  0.00000000000E+00 0. -1.
          1   -1    0    0  501    0 -0.00000000000E+00 -0.00000000000E+00 -0.40676112888E+02  0.40676112888E+02  0.00000000000E+00 0. -1.
         25    2    1    2    0    0 -0.14763320813E+02 -0.35201911511E+02  0.62193222568E+03  0.63551720644E+03  0.12500118453E+03 0.  0.
          2    1    1    2  501    0  0.45294807489E+02  0.20731652423E+02 -0.14775556765E+02  0.51959003795E+02  0.00000000000E+00 0. -1.
          1    1    1    2  502    0 -0.30531486676E+02  0.14470259087E+02  0.55219851517E+03  0.55323119962E+03  0.00000000000E+00 0. -1.
         22    1    3    3    0    0  0.20140449547E+02 -0.55817238110E+02  0.54797861814E+03  0.55118215475E+03  0.00000000000E+00 0. -1.
         22    1    3    3    0    0 -0.34903770359E+02  0.20615326600E+02  0.73953607539E+02  0.84335051694E+02  0.00000000000E+00 0. -1.
</event>
<event>
 7    1  0.7118985E-006  0.1250596E+03  0.7818608E-02  0.1412134E+00
          2   -1    0    0  502    0  0.00000000000E+00  0.00000000000E+00  0.41682969461E+02  0.41682969461E+02  0.00000000000E+00 0. -1.
          1   -1    0    0  501    0 -0.00000000000E+00 -0.00000000000E+00 -0.18192446424E+04  0.18192446424E+04  0.00000000000E+00 0. -1.
         25    2    1    2    0    0  0.10111219513E+03  0.10339677213E+03 -0.41057848469E+03  0.45289536561E+03  0.12499980643E+03 0.  0.
          2    1    1    2  501    0 -0.94069521879E+02 -0.78654201446E+02 -0.13754840063E+04  0.13809387423E+04  0.00000000000E+00 0. -1.
          1    1    1    2  502    0 -0.70426732507E+01 -0.24742570689E+02  0.85008180364E+01  0.27093503983E+02  0.00000000000E+00 0. -1.
         22    1    3    3    0    0  0.10427265664E+03  0.11970228248E+03 -0.28506231629E+03  0.32628507095E+03  0.00000000000E+00 0. -1.
         22    1    3    3    0    0 -0.31604615145E+01 -0.16305510344E+02 -0.12551616840E+03  0.12661029466E+03  0.00000000000E+00 0. -1.
</event>
<event>
 7    1  0.7118985E-006  0.5748356E+02  0.7818608E-02  0.1420641E+00
          2   -1    0    0  502    0  0.00000000000E+00  0.00000000000E+00  0.18948324004E+04  0.18948324004E+04  0.00000000000E+00 0. -1.
          1   -1    0    0  501    0 -0.00000000000E+00 -0.00000000000E+00 -0.19166437583E+03  0.19166437583E+03  0.00000000000E+00 0. -1.
         25    2    1    2    0    0  0.23581377936E+02  0.93846234238E+02  0.50146971525E+03  0.52579398378E+03  0.12499696395E+03 0.  0.
          2    1    1    2  501    0  0.12460223919E+02 -0.50902052760E+02 -0.17509468672E+03  0.18276877598E+03  0.00000000000E+00 0. -1.
          1    1    1    2  502    0 -0.36041601855E+02 -0.42944181478E+02  0.13767929960E+04  0.13779340165E+04  0.00000000000E+00 0. -1.
         22    1    3    3    0    0  0.11522211754E+02  0.12050303813E+02 -0.87041004032E+00  0.16695172935E+02  0.00000000000E+00 0.  1.
         22    1    3    3    0    0  0.12059166182E+02  0.81795930425E+02  0.50234012529E+03  0.50909881084E+03  0.00000000000E+00 0.  1.
</event>
<event>
 7    1  0.7118985E-006  0.1019941E+03  0.7818608E-02  0.1329015E+00
          2   -1    0    0  502    0  0.00000000000E+00  0.00000000000E+00  0.37500796738E+04  0.37500796738E+04  0.00000000000E+00 0. -1.
          1   -1    0    0  501    0 -0.00000000000E+00 -0.00000000000E+00 -0.17563639964E+03  0.17563639964E+03  0.00000000000E+00 0. -1.
         25    2    1    2    0    0  0.10818981742E+03  0.75668602982E+02  0.50234193585E+03  0.53423144879E+03  0.12500018517E+03 0.  0.
          2    1    1    2  501    0 -0.47063197985E+02 -0.89932520187E+02 -0.14322512156E+03  0.17554554462E+03  0.00000000000E+00 0. -1.
          1    1    1    2  502    0 -0.61126619432E+02  0.14263917204E+02  0.32153264599E+04  0.32159390800E+04  0.00000000000E+00 0. -1.
         22    1    3    3    0    0 -0.10889936798E+02  0.58910573544E+02  0.20244097397E+03  0.21111938409E+03  0.00000000000E+00 0. -1.
         22    1    3    3    0    0  0.11907975421E+03  0.16758029439E+02  0.29990096188E+03  0.32311206470E+03  0.00000000000E+00 0. -1.
</event>
<event>
 7    1  0.7118985E-006  0.1668205E+03  0.7818608E-02  0.1221466E+00
          2   -1    0    0  502    0  0.00000000000E+00  0.00000000000E+00  0.38040407264E+04  0.38040407264E+04  0.00000000000E+00 0. -1.
          1   -1    0    0  501    0 -0.00000000000E+00 -0.00000000000E+00 -0.48807391071E+03  0.48807391071E+03  0.00000000000E+00 0. -1.
         25    2    1    2    0    0 -0.18683980578E+03  0.11581217087E+03  0.30535903909E+02  0.25471297396E+03  0.12499874291E+03 0.  0.
          2    1    1    2  501    0  0.20779596716E+02 -0.10580970144E+03 -0.36632116931E+03  0.38186212648E+03  0.00000000000E+00 0. -1.
          1    1    1    2  502    0  0.16606020906E+03 -0.10002469432E+02  0.36517520811E+04  0.36555395367E+04  0.00000000000E+00 0. -1.
         22    1    3    3    0    0 -0.14977100809E+02  0.57794390121E+02  0.41942040622E+02  0.72963277405E+02  0.00000000000E+00 0. -1.
         22    1    3    3    0    0 -0.17186270497E+03  0.58017780752E+02 -0.11406136713E+02  0.18174969655E+03  0.00000000000E+00 0. -1.
</event>
<event>
 7    1  0.7118985E-006  0.5714843E+02  0.7818608E-02  0.1439134E+00
          2   -1    0    0  502    0  0.00000000000E+00  0.00000000000E+00  0.28860988437E+04  0.28860988437E+04  0.00000000000E+00 0. -1.
          1   -1    0    0  501    0 -0.00000000000E+00 -0.00000000000E+00 -0.90770844713E+03  0.90770844713E+03  0.00000000000E+00 0. -1.
         25    2    1    2    0    0 -0.90472245240E+01  0.98208969395E+02  0.85983585340E+03  0.87445303567E+03  0.12499425126E+03 0.  0.
          2    1    1    2  501    0  0.14690912438E+02 -0.43396885551E+02 -0.89944071208E+03  0.90060685492E+03  0.00000000000E+00 0. -1.
          1    1    1    2  502    0 -0.56436879142E+01 -0.54812083844E+02  0.20179952553E+04  0.20187474002E+04  0.00000000000E+00 0. -1.
         22    1    3    3    0    0 -0.78806669552E+01  0.92368086485E+01  0.23552604164E+01  0.12368136371E+02  0.00000000000E+00 0. -1.
         22    1    3    3    0    0 -0.11665575687E+01  0.88972160746E+02  0.85748059299E+03  0.86208489929E+03  0.00000000000E+00 0. -1.
</event>
<event>
 7    1  0.7118985E-006  0.2975539E+03  0.7818608E-02  0.1148865E+00
          2   -1    0    0  502    0  0.00000000000E+00  0.00000000000E+00  0.20000630201E+04  0.20000630201E+04  0.00000000000E+00 0. -1.
          1   -1    0    0  501    0 -0.00000000000E+00 -0.00000000000E+00 -0.61483613303E+03  0.61483613303E+03  0.00000000000E+00 0. -1.
         25    2    1    2    0    0 -0.31185659237E+03  0.29040792428E+03  0.66513799697E+03  0.79976569296E+03  0.12500124773E+03 0.  0.
          2    1    1    2  501    0  0.21880005187E+03 -0.19146064861E+03 -0.50490510179E+03  0.58263179150E+03  0.00000000000E+00 0. -1.
          1    1    1    2  502    0  0.93056540501E+02 -0.98947275678E+02  0.12249939919E+04  0.12325016687E+04  0.00000000000E+00 0. -1.
         22    1    3    3    0    0 -0.29406955017E+03  0.25208075034E+03  0.64636138009E+03  0.75352812734E+03  0.00000000000E+00 0.  1.
         22    1    3    3    0    0 -0.17787042199E+02  0.38327173941E+02  0.18776616880E+02  0.46237565615E+02  0.00000000000E+00 0.  1.
</event>
<event>
 7    1  0.7118985E-006  0.7112012E+02  0.7818608E-02  0.1466813E+00
          2   -1    0    0  502    0  0.00000000000E+00  0.00000000000E+00  0.30145198516E+03  0.30145198516E+03  0.00000000000E+00 0. -1.
          1   -1    0    0  501    0 -0.00000000000E+00 -0.00000000000E+00 -0.37967623729E+03  0.37967623729E+03  0.00000000000E+00 0. -1.
         25    2    1    2    0    0 -0.17421670473E+02 -0.44710512141E+02  0.10590444693E+03  0.17070769722E+03  0.12499128575E+03 0.  0.
          2    1    1    2  501    0  0.45423701848E+02  0.55612103854E+02 -0.34213162690E+03  0.34958556736E+03  0.00000000000E+00 0. -1.
          1    1    1    2  502    0 -0.28002031375E+02 -0.10901591713E+02  0.15800292785E+03  0.16083495786E+03  0.00000000000E+00 0. -1.
         22    1    3    3    0    0  0.31960737684E+02 -0.43204012741E+02 -0.11597511792E+00  0.53740942683E+02  0.00000000000E+00 0. -1.
         22    1    3    3    0    0 -0.49382408158E+02 -0.15064994002E+01  0.10602042205E+03  0.11696675454E+03  0.00000000000E+00 0. -1.
</event>
<event>
 7    1  0.7118985E-006  0.2475139E+03  0.7818608E-02  0.1306177E+00
          2   -1    0    0  502    0  0.00000000000E+00  0.00000000000E+00  0.70152840769E+03  0.70152840769E+03  0.00000000000E+00 0. -1.
          1   -1    0    0  501    0 -0.00000000000E+00 -0.00000000000E+00 -0.57065346662E+03  0.57065346662E+03  0.00000000000E+00 0. -1.
         25    2    1    2    0    0 -0.23881113074E+03  0.12083440528E+03 -0.46861307386E+02  0.29908636530E+03  0.12499984846E+03 0.  0.
          2    1    1    2  501    0  0.20727918807E+03 -0.12450193229E+03 -0.36041454191E+03  0.43400925679E+03  0.00000000000E+00 0. -1.
          1    1    1    2  502    0  0.31531942669E+02  0.36675270161E+01  0.53815079037E+03  0.53908625222E+03  0.00000000000E+00 0. -1.
         22    1    3    3    0    0 -0.32743993916E+02 -0.66468415141E+01  0.29971600662E+02  0.44884813533E+02  0.00000000000E+00 0. -1.
         22    1    3    3    0    0 -0.20606713683E+03  0.12748124679E+03 -0.76832908048E+02  0.25420155177E+03  0.00000000000E+00 0. -1.
</event>
<event>
 7    1  0.7118985E-006  0.8667827E+02  0.7818608E-02  0.1325717E+00
          2   -1    0    0  502    0  0.00000000000E+00  0.00000000000E+00  0.31779942808E+04  0.31779942808E+04  0.00000000000E+00 0. -1.
          1   -1    0    0  501    0 -0.00000000000E+00 -0.00000000000E+00 -0.23674445496E+04  0.23674445496E+04  0.00000000000E+00 0. -1.
         25    2    1    2    0    0  0.13398710620E+02 -0.11493212171E+03  0.68372214705E+02  0.18355031505E+03  0.12500816119E+03 0.  0.
          2    1    1    2  501    0  0.50738577306E+02  0.56640776992E+02 -0.23086140625E+04  0.23098661153E+04  0.00000000000E+00 0. -1.
          1    1    1    2  502    0 -0.64137287926E+02  0.58291344719E+02  0.30507915789E+04  0.30520224001E+04  0.00000000000E+00 0. -1.
         22    1    3    3    0    0  0.72643576165E+01 -0.14044401180E+03  0.43020612227E+02  0.14706483067E+03  0.00000000000E+00 0. -1.
         22    1    3    3    0    0  0.61343530034E+01  0.25511890090E+02  0.25351602477E+02  0.36485484386E+02  0.00000000000E+00 0. -1.
</event>
<event>
 7    1  0.7118985E-006  0.1100339E+03  0.7818608E-02  0.1270009E+00
          2   -1    0    0  502    0  0.00000000000E+00  0.00000000000E+00  0.47348972594E+03  0.47348972594E+03  0.00000000000E+00 0. -1.
          1   -1    0    0  501    0 -0.00000000000E+00 -0.00000000000E+00 -0.12212577812E+04  0.12212577812E+04  0.00000000000E+00 0. -1.
         25    2    1    2    0    0  0.59052037832E+02  0.49843921449E+02 -0.14255596832E+03  0.20474007737E+03  0.12499894201E+03 0.  0.
          2    1    1    2  501    0 -0.79390596938E+02  0.61302802756E+02 -0.10379376490E+04  0.10427729684E+04  0.00000000000E+00 0. -1.
          1    1    1    2  502    0  0.20338559106E+02 -0.11114672421E+03  0.43272556208E+03  0.44723446129E+03  0.00000000000E+00 0. -1.
         22    1    3    3    0    0  0.41578875304E+02  0.91847363737E+02 -0.10686173385E+03  0.14691552422E+03  0.00000000000E+00 0. -1.
         22    1    3    3    0    0  0.17473162528E+02 -0.42003442288E+02 -0.35694234469E+02  0.57824553150E+02  0.00000000000E+00 0. -1.
</event>
<event>
 7    1  0.7118985E-006  0.1034535E+03  0.7818608E-02  0.1382317E+00
          2   -1    0    0  502    0  0.00000000000E+00  0.00000000000E+00  0.28993838786E+04  0.28993838786E+04  0.00000000000E+00 0. -1.
          1   -1    0    0  501    0 -0.00000000000E+00 -0.00000000000E+00 -0.12207296390E+03  0.12207296390E+03  0.00000000000E+00 0. -1.
         25    2    1    2    0    0  0.90397545728E+02 -0.31988350154E+02  0.19017648676E+03  0.24695596357E+03  0.12500072404E+03 0.  0.
          2    1    1    2  501    0  0.13448219011E+02  0.37053070095E+02 -0.88482045327E+02  0.96865148238E+02  0.00000000000E+00 0. -1.
          1    1    1    2  502    0 -0.10384576474E+03 -0.50647199405E+01  0.26756164733E+04  0.26776357307E+04  0.00000000000E+00 0. -1.
         22    1    3    3    0    0  0.82447688932E+01  0.70459434737E+01  0.14499040125E+03  0.14539545381E+03  0.00000000000E+00 0. -1.
         22    1    3    3    0    0  0.82152776835E+02 -0.39034293628E+02  0.45186085508E+02  0.10156050977E+03  0.00000000000E+00 0. -1.
</event>
<event>
 7    1  0.7118985E-006  0.6573093E+02  0.7818608E-02  0.1425880E+00
          2   -1    0    0  502    0  0.00000000000E+00  0.00000000000E+00  0.11450139395E+04  0.11450139395E+04  0.00000000000E+00 0. -1.
          1   -1    0    0  501    0 -0.00000000000E+00 -0.00000000000E+00 -0.72778048625E+03  0.72778048625E+03  0.00000000000E+00 0. -1.
         25    2    1    2    0    0  0.84858448966E+02 -0.65001616223E+02  0.83536928929E+02  0.18447453423E+03  0.12500507515E+03 0.  0.
          2    1    1    2  501    0 -0.57836932228E+02  0.30240918175E+02 -0.67525822685E+03  0.67840496519E+03  0.00000000000E+00 0. -1.
          1    1    1    2  502    0 -0.27021516738E+02  0.34760698048E+02  0.10089547512E+04  0.10099149263E+04  0.00000000000E+00 0. -1.
         22    1    3    3    0    0 -0.80694893263E+01 -0.63130750696E+01  0.73386234646E+02  0.74097982498E+02  0.00000000000E+00 0.  1.
         22    1    3    3    0    0  0.92927938292E+02 -0.58688541153E+02  0.10150694284E+02  0.11037655173E+03  0.00000000000E+00 0.  1.
</event>
<event>
 7    1  0.7118985E-006  0.4098873E+03  0.7818608E-02  0.1158290E+00
          2   -1    0    0  502    0  0.00000000000E+00  0.00000000000E+00  0.84078980339E+03  0.84078980339E+03  0.00000000000E+00 0. -1.
          1   -1    0    0  501    0 -0.00000000000E+00 -0.00000000000E+00 -0.12874652605E+04  0.12874652605E+04  0.00000000000E+00 0. -1.
         25    2    1    2    0    0  0.19802470524E+03 -0.42881213333E+03  0.11942664743E+03  0.50297211621E+03  0.12499838397E+03 0.  0.
          2    1    1    2  501    0 -0.54369049620E+02  0.69511659755E+02 -0.10228543325E+04  0.10266542017E+04  0.00000000000E+00 0. -1.
          1    1    1    2  502    0 -0.14365565562E+03  0.35930047358E+03  0.45675222798E+03  0.59862874594E+03  0.00000000000E+00 0. -1.
         22    1    3    3    0    0  0.70688570694E+02 -0.75958769183E+02  0.68669614818E+02  0.12442718610E+03  0.00000000000E+00 0. -1.
         22    1    3    3    0    0  0.12733613454E+03 -0.35285336415E+03  0.50757032615E+02  0.37854493011E+03  0.00000000000E+00 0. -1.
</event>
<event>
 7    1  0.7118985E-006  0.5662547E+02  0.7818608E-02  0.1543928E+00
          2   -1    0    0  502    0  0.00000000000E+00  0.00000000000E+00  0.11213909442E+04  0.11213909442E+04  0.00000000000E+00 0. -1.
          1   -1    0    0  501    0 -0.00000000000E+00 -0.00000000000E+00 -0.14060023481E+03  0.14060023481E+03  0.00000000000E+00 0. -1.
         25    2    1    2    0    0 -0.62275358941E+02  0.20532475518E-02 -0.29927282060E+02  0.14282398563E+03  0.12499931330E+03 0.  0.
          2    1    1    2  501    0  0.52322102651E+02  0.19948744349E+02 -0.39618355476E+02  0.68594233850E+02  0.00000000000E+00 0. -1.
          1    1    1    2  502    0  0.99532562900E+01 -0.19950797597E+02  0.10503363469E+04  0.10505729595E+04  0.00000000000E+00 0. -1.
         22    1    3    3    0    0 -0.71313012931E+02  0.24379551863E+02 -0.64754180121E+02  0.99363032389E+02  0.00000000000E+00 0.  1.
         22    1    3    3    0    0  0.90376539903E+01 -0.24377498615E+02  0.34826898062E+02  0.43460953245E+02  0.00000000000E+00 0.  1.
</event>
<event>
 7    1  0.7118985E-006  0.1007340E+03  0.7818608E-02  0.1305518E+00
          2   -1    0    0  502    0  0.00000000000E+00  0.00000000000E+00  0.16465301308E+03  0.16465301308E+03  0.00000000000E+00 0. -1.
          1   -1    0    0  501    0 -0.00000000000E+00 -0.00000000000E+00 -0.25145394665E+03  0.25145394665E+03  0.00000000000E+00 0. -1.
         25    2    1    2    0    0  0.17138878597E+01  0.12196901569E+03  0.25664878432E+02  0.17653018984E+03  0.12499937495E+03 0.  0.
          2    1    1    2  501    0 -0.63529337966E+02 -0.46061379586E+02 -0.11779433453E+03  0.14153844962E+03  0.00000000000E+00 0. -1.
          1    1    1    2  502    0  0.61815450107E+02 -0.75907636107E+02  0.53285225346E+01  0.98038320281E+02  0.00000000000E+00 0. -1.
         22    1    3    3    0    0 -0.53274366510E+02  0.81691936715E+02  0.42397679825E+02  0.10634516400E+03  0.00000000000E+00 0.  1.
         22    1    3    3    0    0  0.54988254369E+02  0.40277078978E+02 -0.16732801393E+02  0.70185025839E+02  0.00000000000E+00 0.  1.
</event>
<event>
 7    1  0.7118985E-006  0.4020274E+02  0.7818608E-02  0.1582214E+00
          2   -1    0    0  502    0  0.00000000000E+00  0.00000000000E+00  0.55995169344E+03  0.55995169344E+03  0.00000000000E+00 0. -1.
          1   -1    0    0  501    0 -0.00000000000E+00 -0.00000000000E+00 -0.13269335964E+04  0.13269335964E+04  0.00000000000E+00 0. -1.
         25    2    1    2    0    0 -0.21658046235E+02 -0.85801369212E+00 -0.64695353340E+03  0.65927560059E+03  0.12500254396E+03 0.  0.
          2    1    1    2  501    0 -0.13296015064E+02  0.20768736033E+02 -0.67286233914E+03  0.67331408113E+03  0.00000000000E+00 0. -1.
          1    1    1    2  502    0  0.34954061299E+02 -0.19910722341E+02  0.55283396957E+03  0.55429560812E+03  0.00000000000E+00 0. -1.
         22    1    3    3    0    0  0.50575536148E+02 -0.36192815502E+01 -0.34981766079E+03  0.35347330855E+03  0.00000000000E+00 0. -1.
         22    1    3    3    0    0 -0.72233582383E+02  0.27612678581E+01 -0.29713587261E+03  0.30580229204E+03  0.00000000000E+00 0. -1.
</event>
<event>
 7    1  0.7118985E-006  0.1107897E+03  0.7818608E-02  0.1310489E+00
          2   -1    0    0  502    0  0.00000000000E+00  0.00000000000E+00  0.59696893033E+03  0.59696893033E+03  0.00000000000E+00 0. -1.
          1   -1    0    0  501    0 -0.00000000000E+00 -0.00000000000E+00 -0.29122425663E+03  0.29122425663E+03  0.00000000000E+00 0. -1.
         25    2    1    2    0    0 -0.52487772595E+02  0.13336170563E+03 -0.20377231993E+03  0.27872774604E+03  0.12500274895E+03 0.  0.
          2    1    1    2  501    0  0.49901816468E+02 -0.65219035461E+02 -0.12453829316E+02  0.83059085824E+02  0.00000000000E+00 0. -1.
          1    1    1    2  502    0  0.25859561273E+01 -0.68142670167E+02  0.52197082295E+03  0.52640635509E+03  0.00000000000E+00 0. -1.
         22    1    3    3    0    0  0.37669219682E+02  0.63568929082E+02 -0.59673151746E+02  0.94978228534E+02  0.00000000000E+00 0. -1.
         22    1    3    3    0    0 -0.90156992277E+02  0.69792776547E+02 -0.14409916818E+03  0.18374951751E+03  0.00000000000E+00 0. -1.
</event>
<event>
 7    1  0.7118985E-006  0.9578679E+02  0.7818608E-02  0.1421339E+00
          2   -1    0    0  502    0  0.00000000000E+00  0.00000000000E+00  0.81114852961E+02  0.81114852961E+02  0.00000000000E+00 0. -1.
          1   -1    0    0  501    0 -0.00000000000E+00 -0.00000000000E+00 -0.99925483053E+03  0.99925483053E+03  0.00000000000E+00 0. -1.
         25    2    1    2    0    0 -0.10066851739E+03 -0.90575167218E+01 -0.15364106157E+03  0.22235286084E+03  0.12497611739E+03 0.  0.
          2    1    1    2  501    0  0.93316809008E+02 -0.21347425856E+02 -0.80284401269E+03  0.80853091972E+03  0.00000000000E+00 0. -1.
          1    1    1    2  502    0  0.73517083825E+01  0.30404942578E+02  0.38345096689E+02  0.49485902936E+02  0.00000000000E+00 0. -1.
         22    1    3    3    0    0 -0.12837216240E+03  0.11105242705E+01 -0.13965747997E+03  0.18969675025E+03  0.00000000000E+00 0.  1.
         22    1    3    3    0    0  0.27703645008E+02 -0.10168040992E+02 -0.13983581598E+02  0.32656110587E+02  0.00000000000E+00 0.  1.
</event>
<event>
 7    1  0.7118985E-006  0.6924892E+02  0.7818608E-02  0.1406731E+00
          2   -1    0    0  502    0  0.00000000000E+00  0.00000000000E+00  0.93034922500E+03  0.93034922500E+03  0.00000000000E+00 0. -1.
          1   -1    0    0  501    0 -0.00000000000E+00 -0.00000000000E+00 -0.84439947333E+03  0.84439947333E+03  0.00000000000E+00 0. -1.
         25    2    1    2    0    0  0.45771518389E+02  0.53876499610E+02  0.22116397283E+03  0.26368456417E+03  0.12497334674E+03 0.  0.
          2    1    1    2  501    0  0.15528859593E+00 -0.69341517857E+02 -0.82082204576E+03  0.82374577450E+03  0.00000000000E+00 0. -1.
          1    1    1    2  502    0 -0.45926806985E+02  0.15465018247E+02  0.68560782459E+03  0.68731835966E+03  0.00000000000E+00 0. -1.
         22    1    3    3    0    0  0.59020592377E+02  0.45444940215E+02  0.23261365425E+03  0.24424943206E+03  0.00000000000E+00 0.  1.
         22    1    3    3    0    0 -0.13249073987E+02  0.84315593949E+01 -0.11449681422E+02  0.19435132107E+02  0.00000000000E+00 0.  1.
</event>
<event>
 7    1  0.7118985E-006  0.2135905E+03  0.7818608E-02  0.1292297E+00
          2   -1    0    0  502    0  0.00000000000E+00  0.00000000000E+00  0.16185618514E+04  0.16185618514E+04  0.00000000000E+00 0. -1.
          1   -1    0    0  501    0 -0.00000000000E+00 -0.00000000000E+00 -0.43831558226E+03  0.43831558226E+03  0.00000000000E+00 0. -1.
         25    2    1    2    0    0 -0.18283044790E+03 -0.16994720799E+03  0.86580017883E+03  0.90969467351E+03  0.12500169264E+03 0.  0.
          2    1    1    2  501    0  0.14300776833E+03  0.15719760789E+03 -0.38858983482E+03  0.44290446989E+03  0.00000000000E+00 0. -1.
          1    1    1    2  502    0  0.39822679572E+02  0.12749600100E+02  0.70303592510E+03  0.70427829023E+03  0.00000000000E+00 0. -1.
         22    1    3    3    0    0 -0.16412244940E+03 -0.18385818173E+03  0.83759926563E+03  0.87310511347E+03  0.00000000000E+00 0. -1.
         22    1    3    3    0    0 -0.18707998503E+02  0.13910973740E+02  0.28200913204E+02  0.36589560040E+02  0.00000000000E+00 0. -1.
</event>
<event>
 7    1  0.7118985E-006  0.7031584E+02  0.7818608E-02  0.1406980E+00
          2   -1    0    0  502    0  0.00000000000E+00  0.00000000000E+00  0.17988458928E+03  0.17988458928E+03  0.00000000000E+00 0. -1.
          1   -1    0    0  501    0 -0.00000000000E+00 -0.00000000000E+00 -0.85885161640E+03  0.85885161640E+03  0.00000000000E+00 0. -1.
         25    2    1    2    0    0 -0.42171783184E+02 -0.62879277488E+02 -0.96667573289E+00  0.14614116978E+03  0.12499617678E+03 0.  0.
          2    1    1    2  501    0  0.46845077296E+02 -0.86239562310E+01 -0.77251843480E+03  0.77398550761E+03  0.00000000000E+00 0. -1.
          1    1    1    2  502    0 -0.46732941113E+01  0.71503233719E+02  0.94518083405E+02  0.11860952829E+03  0.00000000000E+00 0. -1.
         22    1    3    3    0    0 -0.75304802036E+02 -0.74855782576E+02 -0.16826118661E+02  0.10750497507E+03  0.00000000000E+00 0. -1.
         22    1    3    3    0    0  0.33133018852E+02  0.11976505087E+02  0.15859442928E+02  0.38636194718E+02  0.00000000000E+00 0. -1.
</event>
<event>
 7    1  0.7118985E-006  0.7103100E+02  0.7818608E-02  0.1405636E+00
          2   -1    0    0  502    0  0.00000000000E+00  0.00000000000E+00  0.11599500974E+03  0.11599500974E+03  0.00000000000E+00 0. -1.
          1   -1    0    0  501    0 -0.00000000000E+00 -0.00000000000E+00 -0.10539731091E+04  0.10539731091E+04  0.00000000000E+00 0. -1.
         25    2    1    2    0    0 -0.88070663195E+02  0.53209854969E+01 -0.55295031381E+03  0.57372853478E+03  0.12500250992E+03 0.  0.
          2    1    1    2  501    0  0.26097593041E+02 -0.39870917790E+02 -0.47739429789E+03  0.47976670383E+03  0.00000000000E+00 0. -1.
          1    1    1    2  502    0  0.61973070154E+02  0.34549932294E+02  0.92366512286E+02  0.11647288027E+03  0.00000000000E+00 0. -1.
         22    1    3    3    0    0  0.28921165099E+02  0.14847023812E+02 -0.78315508763E+02  0.84794969306E+02  0.00000000000E+00 0.  1.
         22    1    3    3    0    0 -0.11699182829E+03 -0.95260383151E+01 -0.47463480504E+03  0.48893356548E+03  0.00000000000E+00 0.  1.
</event>
<event>
 7    1  0.7118985E-006  0.1995316E+03  0.7818608E-02  0.1360171E+00
          2   -1    0    0  502    0  0.00000000000E+00  0.00000000000E+00  0.27804382460E+04  0.27804382460E+04  0.00000000000E+00 0. -1.
          1   -1    0    0  501    0 -0.00000000000E+00 -0.00000000000E+00 -0.54793843230E+03  0.54793843230E+03  0.00000000000E+00 0. -1.
         25    2    1    2    0    0  0.19851699324E+03  0.71189135308E+02  0.20286664976E+03  0.31820829498E+03  0.12499900727E+03 0.  0.
          2    1    1    2  501    0 -0.53799138745E+01 -0.23944583364E+02 -0.48603535313E+03  0.48665455000E+03  0.00000000000E+00 0. -1.
          1    1    1    2  502    0 -0.19313707937E+03 -0.47244551945E+02  0.25156685171E+04  0.25235138333E+04  0.00000000000E+00 0. -1.
         22    1    3    3    0    0  0.67170863017E+02  0.61023839274E+02  0.15191885438E+03  0.17696093386E+03  0.00000000000E+00 0.  1.
         22    1    3    3    0    0  0.13134613022E+03  0.10165296035E+02  0.50947795378E+02  0.14124736112E+03  0.00000000000E+00 0.  1.
</event>
<event>
 7    1  0.7118985E-006  0.8865147E+02  0.7818608E-02  0.1360509E+00
          2   -1    0    0  502    0  0.00000000000E+00  0.00000000000E+00  0.14388966902E+04  0.14388966902E+04  0.00000000000E+00 0. -1.
          1   -1    0    0  501    0 -0.00000000000E+00 -0.00000000000E+00 -0.81779055060E+03  0.81779055060E+03  0.00000000000E+00 0. -1.
         25    2    1    2    0    0 -0.88827849210E+01 -0.45137068398E+02  0.15611755399E+03  0.20521547496E+03  0.12499776673E+03 0.  0.
          2    1    1    2  501    0 -0.47967348814E+02 -0.27073002347E+02 -0.79060394117E+03  0.79252028731E+03  0.00000000000E+00 0. -1.
          1    1    1    2  502    0  0.56850133735E+02  0.72210070746E+02  0.12555925268E+04  0.12589514786E+04  0.00000000000E+00 0. -1.
         22    1    3    3    0    0  0.22257124636E+02 -0.41080674096E+02  0.77337391728E+00  0.46729000508E+02  0.00000000000E+00 0.  1.
         22    1    3    3    0    0 -0.31139909557E+02 -0.40563943024E+01  0.15534418007E+03  0.15848647445E+03  0.00000000000E+00 0.  1.
</event>
<event>
 7    1  0.7118985E-006  0.1095074E+03  0.7818608E-02  0.1353982E+00
          2   -1    0    0  502    0  0.00000000000E+00  0.00000000000E+00  0.15431309590E+04  0.15431309590E+04  0.00000000000E+00 0. -1.
          1   -1    0    0  501    0 -0.00000000000E+00 -0.00000000000E+00 -0.31745806255E+03  0.31745806255E+03  0.00000000000E+00 0. -1.
         25    2    1    2    0    0 -0.11434064123E+02 -0.15126979500E+03  0.14277270451E+03  0.24294514801E+03  0.12500004434E+03 0.  0.
          2    1    1    2  501    0 -0.10843017407E+02  0.45849947780E+02 -0.26312659857E+03  0.26731142066E+03  0.00000000000E+00 0. -1.
          1    1    1    2  502    0  0.22277081530E+02  0.10541984722E+03  0.13460267905E+04  0.13503324529E+04  0.00000000000E+00 0. -1.
         22    1    3    3    0    0 -0.38051387968E+02 -0.13083154729E+03  0.51435483234E+02  0.14563794433E+03  0.00000000000E+00 0. -1.
         22    1    3    3    0    0  0.26617323846E+02 -0.20438247715E+02  0.91337221274E+02  0.97307203682E+02  0.00000000000E+00 0. -1.
</event>
<event>
 7    1  0.7118985E-006  0.5518224E+02  0.7818608E-02  0.1527082E+00
          2   -1    0    0  502    0  0.00000000000E+00  0.00000000000E+00  0.98324093906E+03  0.98324093906E+03  0.00000000000E+00 0. -1.
          1   -1    0    0  501    0 -0.00000000000E+00 -0.00000000000E+00 -0.39633916058E+03  0.39633916058E+03  0.00000000000E+00 0. -1.
         25    2    1    2    0    0  0.29465729128E+02  0.63212163558E+02  0.63966182415E+02  0.15678416346E+03  0.12500237840E+03 0.  0.
          2    1    1    2  501    0 -0.24094486704E+02 -0.84925587832E+01 -0.34859641394E+03  0.34953129711E+03  0.00000000000E+00 0. -1.
          1    1    1    2  502    0 -0.53712424238E+01 -0.54719604775E+02  0.87153201001E+03  0.87326463908E+03  0.00000000000E+00 0. -1.
         22    1    3    3    0    0  0.43346163152E+02  0.69085652790E+02 -0.92058709876E+01  0.82075972989E+02  0.00000000000E+00 0. -1.
         22    1    3    3    0    0 -0.13880434025E+02 -0.58734892315E+01  0.73172053403E+02  0.74708190472E+02  0.00000000000E+00 0. -1.
</event>
<event>
 7    1  0.7118985E-006  0.9111329E+02  0.7818608E-02  0.1314206E+00
          2   -1    0    0  502    0  0.00000000000E+00  0.00000000000E+00  0.11592883488E+04  0.11592883488E+04  0.00000000000E+00 0. -1.
          1   -1    0    0  501    0 -0.00000000000E+00 -0.00000000000E+00 -0.10369298800E+04  0.10369298800E+04  0.00000000000E+00 0. -1.
         25    2    1    2    0    0  0.13216896254E+03 -0.63784517611E+02  0.13387940153E+02  0.19323748365E+03  0.12499755518E+03 0.  0.
          2    1    1    2  501    0 -0.41991473684E+02  0.68302205337E+02 -0.94337140885E+03  0.94677245954E+03  0.00000000000E+00 0. -1.
          1    1    1    2  502    0 -0.90177488859E+02 -0.45176877262E+01  0.10523419376E+04  0.10562082856E+04  0.00000000000E+00 0. -1.
         22    1    3    3    0    0  0.93016734442E+02 -0.92234755964E+00 -0.40695612715E+02  0.10153372103E+03  0.00000000000E+00 0.  1.
         22    1    3    3    0    0  0.39152228100E+02 -0.62862170051E+02  0.54083552868E+02  0.91703762625E+02  0.00000000000E+00 0.  1.
</event>
<event>
 7    1  0.7118985E-006  0.1865731E+03  0.7818608E-02  0.1333584E+00
          2   -1    0    0  502    0  0.00000000000E+00  0.00000000000E+00  0.18804117464E+03  0.18804117464E+03  0.00000000000E+00 0. -1.
          1   -1    0    0  501    0 -0.00000000000E+00 -0.00000000000E+00 -0.17704748315E+04  0.17704748315E+04  0.00000000000E+00 0. -1.
         25    2    1    2    0    0 -0.12155031062E+03  0.10437415413E+03 -0.84547844354E+02  0.22009134051E+03  0.12499367233E+03 0.  0.
          2    1    1    2  501    0  0.13094495708E+03 -0.13597194539E+03 -0.16102743094E+04  0.16213014227E+04  0.00000000000E+00 0. -1.
          1    1    1    2  502    0 -0.93946464613E+01  0.31597791261E+02  0.11238849690E+03  0.11712324291E+03  0.00000000000E+00 0. -1.
         22    1    3    3    0    0 -0.12009284265E+03  0.64248172707E+02 -0.11434414147E+02  0.13667795865E+03  0.00000000000E+00 0.  1.
         22    1    3    3    0    0 -0.14574679689E+01  0.40125981423E+02 -0.73113430206E+02  0.83413381868E+02  0.00000000000E+00 0.  1.
</event>
<event>
 7    1  0.7118985E-006  0.1197688E+03  0.7818608E-02  0.1329467E+00
          2   -1    0    0  502    0  0.00000000000E+00  0.00000000000E+00  0.11686607528E+03  0.11686607528E+03  0.00000000000E+00 0. -1.
          1   -1    0    0  501    0 -0.00000000000E+00 -0.00000000000E+00 -0.84993669713E+03  0.84993669713E+03  0.00000000000E+00 0. -1.
         25    2    1    2    0    0 -0.10522947390E+03 -0.12012604561E+03 -0.30784614269E+03  0.36864445844E+03  0.12500392056E+03 0.  0.
          2    1    1    2  501    0  0.12041080351E+02  0.51861753808E+02 -0.47092874740E+03  0.47392880715E+03  0.00000000000E+00 0. -1.
          1    1    1    2  502    0  0.93188393551E+02  0.68264291797E+02  0.45704268241E+02  0.12422950681E+03  0.00000000000E+00 0. -1.
         22    1    3    3    0    0 -0.12512465044E+03 -0.10402915037E+03 -0.30097511529E+03  0.34214655091E+03  0.00000000000E+00 0. -1.
         22    1    3    3    0    0  0.19895176542E+02 -0.16096895235E+02 -0.68710274078E+01  0.26497907531E+02  0.00000000000E+00 0. -1.
</event>
<event>
 7    1  0.7118985E-006  0.1213292E+03  0.7818608E-02  0.1297388E+00
          2   -1    0    0  502    0  0.00000000000E+00  0.00000000000E+00  0.40103847286E+03  0.40103847286E+03  0.00000000000E+00 0. -1.
          1   -1    0    0  501    0 -0.00000000000E+00 -0.00000000000E+00 -0.10553160331E+04  0.10553160331E+04  0.00000000000E+00 0. -1.
         25    2    1    2    0    0  0.62922437436E+02 -0.15145977657E+03 -0.35593976798E+02  0.20926226724E+03  0.12499787299E+03 0.  0.
          2    1    1    2  501    0 -0.84866381271E+02  0.84769200636E+02 -0.92504474415E+03  0.93278931101E+03  0.00000000000E+00 0. -1.
          1    1    1    2  502    0  0.21943943835E+02  0.66690575935E+02  0.30636116070E+03  0.31430292772E+03  0.00000000000E+00 0. -1.
         22    1    3    3    0    0 -0.30945716519E+02 -0.35728038276E+02  0.18465839982E+02  0.50745613960E+02  0.00000000000E+00 0.  1.
         22    1    3    3    0    0  0.93868153954E+02 -0.11573173829E+03 -0.54059816780E+02  0.15851665328E+03  0.00000000000E+00 0.  1.
</event>
<event>
 7    1  0.7118985E-006  0.2557825E+03  0.7818608E-02  0.1274760E+00
          2   -1    0    0  502    0  0.00000000000E+00  0.00000000000E+00  0.17767059158E+04  0.17767059158E+04  0.00000000000E+00 0. -1.
          1   -1    0    0  501    0 -0.00000000000E+00 -0.00000000000E+00 -0.55089972606E+03  0.55089972606E+03  0.00000000000E+00 0. -1.
         25    2    1    2    0    0  0.69921683383E+02  0.25616885056E+03  0.55031576608E+03  0.62368536238E+03  0.12499786820E+03 0.  0.
          2    1    1    2  501    0 -0.10415650741E+03 -0.23321279061E+03 -0.48210878839E+03  0.54558745182E+03  0.00000000000E+00 0. -1.
          1    1    1    2  502    0  0.34234824022E+02 -0.22956059942E+02  0.11575992121E+04  0.11583328276E+04  0.00000000000E+00 0. -1.
         22    1    3    3    0    0 -0.43876104281E+00  0.19475920166E+03  0.31289797146E+03  0.36856000826E+03  0.00000000000E+00 0.  1.
         22    1    3    3    0    0  0.70360444426E+02  0.61409648895E+02  0.23741779461E+03  0.25512535412E+03  0.00000000000E+00 0.  1.
</event>
<event>
 7    1  0.7118985E-006  0.1422646E+03  0.7818608E-02  0.1265265E+00
          2   -1    0    0  502    0  0.00000000000E+00  0.00000000000E+00  0.27787265597E+04  0.27787265597E+04  0.00000000000E+00 0. -1.
          1   -1    0    0  501    0 -0.00000000000E+00 -0.00000000000E+00 -0.39760978002E+03  0.39760978002E+03  0.00000000000E+00 0. -1.
         25    2    1    2    0    0  0.12039707146E+03  0.49743917593E+01  0.94136037796E+03  0.95723726908E+03  0.12499451483E+03 0.  0.
          2    1    1    2  501    0 -0.12080031251E+03  0.76259832374E+02 -0.37563915656E+03  0.40188686652E+03  0.00000000000E+00 0. -1.
          1    1    1    2  502    0  0.40324105227E+00 -0.81234224134E+02  0.18153955582E+04  0.18172122041E+04  0.00000000000E+00 0. -1.
         22    1    3    3    0    0  0.24678504446E+02  0.58641661688E+02  0.32061755716E+03  0.32686922619E+03  0.00000000000E+00 0.  1.
         22    1    3    3    0    0  0.95718567012E+02 -0.53667269928E+02  0.62074282079E+03  0.63036804289E+03  0.00000000000E+00 0.  1.
</event>
<event>
 7    1  0.7118985E-006  0.4718533E+02  0.7818608E-02  0.1566205E+00
          2   -1    0    0  502    0  0.00000000000E+00  0.00000000000E+00  0.20834215207E+04  0.20834215207E+04  0.00000000000E+00 0. -1.
          1   -1    0    0  501    0 -0.00000000000E+00 -0.00000000000E+00 -0.31122779136E+03  0.31122779136E+03  0.00000000000E+00 0. -1.
         25    2    1    2    0    0 -0.71782946763E+01  0.54261734172E+02  0.11818284402E+04  0.11896803242E+04  0.12499979143E+03 0.  0.
          2    1    1    2  501    0 -0.14114376452E+02 -0.45020956041E+02 -0.30533960610E+03  0.30896339130E+03  0.00000000000E+00 0. -1.
          1    1    1    2  502    0  0.21292671128E+02 -0.92407781310E+01  0.89570489521E+03  0.89600559660E+03  0.00000000000E+00 0. -1.
         22    1    3    3    0    0  0.38557049038E+02 -0.22710267299E+02  0.30013296845E+03  0.30345049188E+03  0.00000000000E+00 0.  1.
         22    1    3    3    0    0 -0.45735343714E+02  0.76972001471E+02  0.88169547177E+03  0.88622983227E+03  0.00000000000E+00 0.  1.
</event>
<event>
 7    1  0.7118985E-006  0.6051565E+02  0.7818608E-02  0.1441413E+00
          2   -1    0    0  502    0  0.00000000000E+00  0.00000000000E+00  0.16570942868E+03  0.16570942868E+03  0.00000000000E+00 0. -1.
          1   -1    0    0  501    0 -0.00000000000E+00 -0.00000000000E+00 -0.34685512665E+04  0.34685512665E+04  0.00000000000E+00 0. -1.
         25    2    1    2    0    0 -0.39642981215E+02 -0.88244317900E+02 -0.51917377555E+03  0.54270170890E+03  0.12500044012E+03 0.  0.
          2    1    1    2  501    0  0.31441557352E+02  0.28649089002E+02 -0.29315764935E+04  0.29318850726E+04  0.00000000000E+00 0. -1.
          1    1    1    2  502    0  0.82014238628E+01  0.59595228898E+02  0.14790843125E+03  0.15967391363E+03  0.00000000000E+00 0. -1.
         22    1    3    3    0    0  0.19867066812E+02  0.10931765649E+02 -0.23208719589E+03  0.23319234623E+03  0.00000000000E+00 0. -1.
         22    1    3    3    0    0 -0.59510048026E+02 -0.99176083549E+02 -0.28708657966E+03  0.30950936267E+03  0.00000000000E+00 0. -1.
</event>
<event>
 7    1  0.7118985E-006  0.1148880E+03  0.7818608E-02  0.1261057E+00
          2   -1    0    0  502    0  0.00000000000E+00  0.00000000000E+00  0.73962742671E+03  0.73962742671E+03  0.00000000000E+00 0. -1.
          1   -1    0    0  501    0 -0.00000000000E+00 -0.00000000000E+00 -0.71923136824E+03  0.71923136824E+03  0.00000000000E+00 0. -1.
         25    2    1    2    0    0  0.53730078371E+02 -0.54556863887E+01  0.21826883237E+03  0.25728314778E+03  0.12504658778E+03 0.  0.
          2    1    1    2  501    0  0.83814390984E+02 -0.62943912071E+02 -0.68388194732E+03  0.69186798313E+03  0.00000000000E+00 0. -1.
          1    1    1    2  502    0 -0.13754446935E+03  0.68399598460E+02  0.48600917343E+03  0.50970766404E+03  0.00000000000E+00 0. -1.
         22    1    3    3    0    0  0.15557962928E+02 -0.43379983083E+02  0.19190872973E+03  0.19736472250E+03  0.00000000000E+00 0.  1.
         22    1    3    3    0    0  0.38172115442E+02  0.37924296694E+02  0.26360102643E+02  0.59918425283E+02  0.00000000000E+00 0.  1.
</event>
<event>
 7    1  0.7118985E-006  0.7046387E+02  0.7818608E-02  0.1473533E+00
          2   -1    0    0  502    0  0.00000000000E+00  0.00000000000E+00  0.54565626752E+03  0.54565626752E+03  0.00000000000E+00 0. -1.
          1   -1    0    0  501    0 -0.00000000000E+00 -0.00000000000E+00 -0.12619200144E+03  0.12619200144E+03  0.00000000000E+00 0. -1.
         25    2    1    2    0    0  0.81700556308E+02 -0.40634958633E+02  0.16916536947E+03  0.22927825281E+03  0.12500165687E+03 0.  0.
          2    1    1    2  501    0 -0.28785666261E+02 -0.26148381578E+01 -0.90491017481E+02  0.94995137799E+02  0.00000000000E+00 0. -1.
          1    1    1    2  502    0 -0.52914890046E+02  0.43249796791E+02  0.34078991409E+03  0.34757487834E+03  0.00000000000E+00 0. -1.
         22    1    3    3    0    0  0.30870578139E+02 -0.44407883436E+02  0.16990275353E+03  0.17830310811E+03  0.00000000000E+00 0. -1.
         22    1    3    3    0    0  0.50829978168E+02  0.37729248029E+01 -0.73738405663E+00  0.50975144702E+02  0.00000000000E+00 0. -1.
</event>
<event>
 7    1  0.7118985E-006  0.5231234E+02  0.7818608E-02  0.1460850E+00
          2   -1    0    0  502    0  0.00000000000E+00  0.00000000000E+00  0.68995499552E+03  0.68995499552E+03  0.00000000000E+00 0. -1.
          1   -1    0    0  501    0 -0.00000000000E+00 -0.00000000000E+00 -0.85257418172E+03  0.85257418172E+03  0.00000000000E+00 0. -1.
         25    2    1    2    0    0 -0.66648000018E+02  0.56516004153E+02 -0.25868129201E+03  0.30029454465E+03  0.12499915231E+03 0.  0.
          2    1    1    2  501    0  0.26050645429E+02 -0.43440113298E+02 -0.57128491270E+03  0.57352605089E+03  0.00000000000E+00 0. -1.
          1    1    1    2  502    0  0.40597354588E+02 -0.13075890856E+02  0.66734701851E+03  0.66870858170E+03  0.00000000000E+00 0. -1.
         22    1    3    3    0    0 -0.83350717959E+02 -0.98329583150E+01 -0.14947081449E+03  0.17142215037E+03  0.00000000000E+00 0. -1.
         22    1    3    3    0    0  0.16702717941E+02  0.66348962468E+02 -0.10921047752E+03  0.12887239428E+03  0.00000000000E+00 0. -1.
</event>
<event>
 7    1  0.7118985E-006  0.8651392E+02  0.7818608E-02  0.1443542E+00
          2   -1    0    0  502    0  0.00000000000E+00  0.00000000000E+00  0.63565788606E+03  0.63565788606E+03  0.00000000000E+00 0. -1.
          1   -1    0    0  501    0 -0.00000000000E+00 -0.00000000000E+00 -0.11719983671E+04  0.11719983671E+04  0.00000000000E+00 0. -1.
         25    2    1    2    0    0  0.88227367936E+02  0.54314105844E+02 -0.19521660680E+03  0.25390780579E+03  0.12500223888E+03 0.  0.
          2    1    1    2  501    0 -0.57889952980E+01 -0.28707915708E+02 -0.94413538725E+03  0.94458948032E+03  0.00000000000E+00 0. -1.
          1    1    1    2  502    0 -0.82438372638E+02 -0.25606190136E+02  0.60301151303E+03  0.60915896702E+03  0.00000000000E+00 0. -1.
         22    1    3    3    0    0  0.46451241644E+02  0.36344887610E+02 -0.59790217813E+01  0.59282521936E+02  0.00000000000E+00 0.  1.
         22    1    3    3    0    0  0.41776126292E+02  0.17969218234E+02 -0.18923758502E+03  0.19462528386E+03  0.00000000000E+00 0.  1.
</event>
<event>
 7    1  0.7118985E-006  0.5076672E+02  0.7818608E-02  0.1554792E+00
          2   -1    0    0  502    0  0.00000000000E+00  0.00000000000E+00  0.52373741929E+03  0.52373741929E+03  0.00000000000E+00 0. -1.
          1   -1    0    0  501    0 -0.00000000000E+00 -0.00000000000E+00 -0.79943672159E+03  0.79943672159E+03  0.00000000000E+00 0. -1.
         25    2    1    2    0    0 -0.50500924109E+01 -0.69382489794E+02  0.19209036673E+02  0.14433205373E+03  0.12499328510E+03 0.  0.
          2    1    1    2  501    0  0.14841117012E+02  0.48359344194E+02 -0.73570187153E+03  0.73743889828E+03  0.00000000000E+00 0. -1.
          1    1    1    2  502    0 -0.97910246009E+01  0.21023145600E+02  0.44079353255E+03  0.44140318888E+03  0.00000000000E+00 0. -1.
         22    1    3    3    0    0  0.42875520974E+02  0.50187147119E+01  0.33555327695E+02  0.54675934495E+02  0.00000000000E+00 0.  1.
         22    1    3    3    0    0 -0.47925613385E+02 -0.74401204506E+02 -0.14346291022E+02  0.89656119235E+02  0.00000000000E+00 0.  1.
</event>
<event>
 7    1  0.7118985E-006  0.3515126E+02  0.7818608E-02  0.1565876E+00
          2   -1    0    0  502    0  0.00000000000E+00  0.00000000000E+00  0.10396746897E+04  0.10396746897E+04  0.00000000000E+00 0. -1.
          1   -1    0    0  501    0 -0.00000000000E+00 -0.00000000000E+00 -0.24453623470E+02  0.24453623470E+02  0.00000000000E+00 0. -1.
         25    2    1    2    0    0  0.62783860394E+01 -0.46736753258E+01  0.43681115478E+03  0.45441401803E+03  0.12500741367E+03 0.  0.
          2    1    1    2  501    0  0.30826915692E+02  0.49529377305E+01  0.11296479079E+01  0.31242701990E+02  0.00000000000E+00 0. -1.
          1    1    1    2  502    0 -0.37105301731E+02 -0.27926240469E+00  0.57728026356E+03  0.57847159316E+03  0.00000000000E+00 0. -1.
         22    1    3    3    0    0  0.20641133505E+02 -0.39693685023E+02  0.55771424826E+02  0.71498929014E+02  0.00000000000E+00 0. -1.
         22    1    3    3    0    0 -0.14362747466E+02  0.35020009697E+02  0.38103972995E+03  0.38291508902E+03  0.00000000000E+00 0. -1.
</event>
<event>
 7    1  0.7118985E-006  0.2587044E+03  0.7818608E-02  0.1325234E+00
          2   -1    0    0  502    0  0.00000000000E+00  0.00000000000E+00  0.11025279967E+04  0.11025279967E+04  0.00000000000E+00 0. -1.
          1   -1    0    0  501    0 -0.00000000000E+00 -0.00000000000E+00 -0.30413404000E+03  0.30413404000E+03  0.00000000000E+00 0. -1.
         25    2    1    2    0    0 -0.25924505809E+03 -0.66080038938E+02  0.30627013027E+03  0.42543945649E+03  0.12499106668E+03 0.  0.
          2    1    1    2  501    0  0.25393941737E+03  0.41048790412E+02 -0.17659189165E+03  0.31201751086E+03  0.00000000000E+00 0. -1.
          1    1    1    2  502    0  0.53056407199E+01  0.25031248525E+02  0.66871571806E+03  0.66920506932E+03  0.00000000000E+00 0. -1.
         22    1    3    3    0    0 -0.70231153163E+02 -0.38799175821E+02  0.17839412457E+03  0.19560739914E+03  0.00000000000E+00 0. -1.
         22    1    3    3    0    0 -0.18901390493E+03 -0.27280863116E+02  0.12787600570E+03  0.22983205734E+03  0.00000000000E+00 0. -1.
</event>
<event>
 7    1  0.7118985E-006  0.1610388E+03  0.7818608E-02  0.1188231E+00
          2   -1    0    0  502    0  0.00000000000E+00  0.00000000000E+00  0.11488658517E+03  0.11488658517E+03  0.00000000000E+00 0. -1.
          1   -1    0    0  501    0 -0.00000000000E+00 -0.00000000000E+00 -0.11419492537E+04  0.11419492537E+04  0.00000000000E+00 0. -1.
         25    2    1    2    0    0 -0.96865623131E+02 -0.81758047138E+01 -0.35649581920E+03  0.39008068164E+03  0.12499550533E+03 0.  0.
          2    1    1    2  501    0  0.23834575828E+03  0.82449081263E+02 -0.66008025425E+03  0.70662047348E+03  0.00000000000E+00 0. -1.
          1    1    1    2  502    0 -0.14148013515E+03 -0.74273276549E+02 -0.10486595042E+02  0.16013468371E+03  0.00000000000E+00 0. -1.
         22    1    3    3    0    0 -0.28785647625E+02 -0.11739454664E+02 -0.43425108511E+01  0.31389260990E+02  0.00000000000E+00 0. -1.
         22    1    3    3    0    0 -0.68079975506E+02  0.35636499501E+01 -0.35215330835E+03  0.35869142065E+03  0.00000000000E+00 0. -1.
</event>
<event>
 7    1  0.7118985E-006  0.1797179E+03  0.7818608E-02  0.1277177E+00
          2   -1    0    0  502    0  0.00000000000E+00  0.00000000000E+00  0.10043596697E+04  0.10043596697E+04  0.00000000000E+00 0. -1.
          1   -1    0    0  501    0 -0.00000000000E+00 -0.00000000000E+00 -0.14251114929E+04  0.14251114929E+04  0.00000000000E+00 0. -1.
         25    2    1    2    0    0  0.97325859311E+02  0.15525305919E+03  0.51142219770E+03  0.55745346658E+03  0.12500347122E+03 0.  0.
          2    1    1    2  501    0 -0.43324119648E+02 -0.17447881029E+03 -0.13945560064E+04  0.14060961168E+04  0.00000000000E+00 0. -1.
          1    1    1    2  502    0 -0.54001739663E+02  0.19225751093E+02  0.46238198555E+03  0.46592157919E+03  0.00000000000E+00 0. -1.
         22    1    3    3    0    0  0.95832552775E+02  0.16009632934E+03  0.51716452792E+03  0.54979438136E+03  0.00000000000E+00 0.  1.
         22    1    3    3    0    0  0.14933065356E+01 -0.48432701438E+01 -0.57423302149E+01  0.76590852190E+01  0.00000000000E+00 0.  1.
</event>
<event>
 7    1  0.7118985E-006  0.2180720E+03  0.7818608E-02  0.1258322E+00
          2   -1    0    0  502    0  0.00000000000E+00  0.00000000000E+00  0.13828799130E+04  0.13828799130E+04  0.00000000000E+00 0. -1.
          1   -1    0    0  501    0 -0.00000000000E+00 -0.00000000000E+00 -0.17280751728E+04  0.17280751728E+04  0.00000000000E+00 0. -1.
         25    2    1    2    0    0 -0.40931388396E+02 -0.19596151472E+03 -0.29362382871E+03  0.37670566894E+03  0.12496365239E+03 0.  0.
          2    1    1    2  501    0 -0.56726207979E+02  0.25552077442E+00 -0.13834092201E+04  0.13845717743E+04  0.00000000000E+00 0. -1.
          1    1    1    2  502    0  0.97657596375E+02  0.19570599394E+03  0.13318377890E+04  0.13496776424E+04  0.00000000000E+00 0. -1.
         22    1    3    3    0    0 -0.51822635195E+02 -0.71100044371E+02 -0.46262678438E+02  0.99403406604E+02  0.00000000000E+00 0. -1.
         22    1    3    3    0    0  0.10891246799E+02 -0.12486147035E+03 -0.24736115027E+03  0.27730226234E+03  0.00000000000E+00 0. -1.
</event>
<event>
 7    1  0.7118985E-006  0.1178567E+03  0.7818608E-02  0.1355470E+00
          2   -1    0    0  502    0  0.00000000000E+00  0.00000000000E+00  0.97449595988E+03  0.97449595988E+03  0.00000000000E+00 0. -1.
          1   -1    0    0  501    0 -0.00000000000E+00 -0.00000000000E+00 -0.74684564562E+02  0.74684564562E+02  0.00000000000E+00 0. -1.
         25    2    1    2    0    0  0.36028550779E+02  0.76677852049E+02  0.27952519723E+03  0.31770617937E+03  0.12500132420E+03 0.  0.
          2    1    1    2  501    0 -0.39151327101E+02 -0.11979332457E+03  0.17613962816E+02  0.12725375716E+03  0.00000000000E+00 0. -1.
          1    1    1    2  502    0  0.31227763222E+01  0.43115472519E+02  0.60267223527E+03  0.60422058792E+03  0.00000000000E+00 0. -1.
         22    1    3    3    0    0 -0.14432227427E+02  0.43961711876E+02  0.24295424931E+03  0.24732102328E+03  0.00000000000E+00 0. -1.
         22    1    3    3    0    0  0.50460778206E+02  0.32716140173E+02  0.36570947926E+02  0.70385156086E+02  0.00000000000E+00 0. -1.
</event>
<event>
 7    1  0.7118985E-006  0.1266790E+03  0.7818608E-02  0.1292484E+00
          2   -1    0    0  502    0  0.00000000000E+00  0.00000000000E+00  0.12590818730E+04  0.12590818730E+04  0.00000000000E+00 0. -1.
          1   -1    0    0  501    0 -0.00000000000E+00 -0.00000000000E+00 -0.47656241030E+03  0.47656241030E+03  0.00000000000E+00 0. -1.
         25    2    1    2    0    0  0.17425843006E+03  0.46610885928E+02  0.26293985016E+02  0.22103181678E+03  0.12500046099E+03 0.  0.
          2    1    1    2  501    0 -0.12282091653E+03  0.14232529442E+01 -0.36811752382E+03  0.38806895589E+03  0.00000000000E+00 0. -1.
          1    1    1    2  502    0 -0.51437513527E+02 -0.48034138872E+02  0.11243430015E+04  0.11265435107E+04  0.00000000000E+00 0. -1.
         22    1    3    3    0    0  0.62538003992E+02 -0.35711146948E+02 -0.19996257945E+02  0.74740472915E+02  0.00000000000E+00 0. -1.
         22    1    3    3    0    0  0.11172042607E+03  0.82322032876E+02  0.46290242961E+02  0.14629134387E+03  0.00000000000E+00 0. -1.
</event>
<event>
 7    1  0.7118985E-006  0.4170132E+02  0.7818608E-02  0.1512654E+00
          2   -1    0    0  502    0  0.00000000000E+00  0.00000000000E+00  0.30255874250E+03  0.30255874250E+03  0.00000000000E+00 0. -1.
          1   -1    0    0  501    0 -0.00000000000E+00 -0.00000000000E+00 -0.60668344980E+03  0.60668344980E+03  0.00000000000E+00 0. -1.
         25    2    1    2    0    0  0.71144091358E+01 -0.53931497637E+00 -0.90277009178E+02  0.15435491976E+03  0.12499838875E+03 0.  0.
          2    1    1    2  501    0 -0.32577349516E+02  0.27700994366E+02 -0.48213567724E+03  0.48402834634E+03  0.00000000000E+00 0. -1.
          1    1    1    2  502    0  0.25462940380E+02 -0.27161679390E+02  0.26828797913E+03  0.27085892620E+03  0.00000000000E+00 0. -1.
         22    1    3    3    0    0  0.64405349356E+02 -0.16547679656E+00 -0.65733341757E+02  0.92026890781E+02  0.00000000000E+00 0.  1.
         22    1    3    3    0    0 -0.57290940220E+02 -0.37383817981E+00 -0.24543667422E+02  0.62328028982E+02  0.00000000000E+00 0.  1.
</event>
<event>
 7    1  0.7118985E-006  0.5084985E+02  0.7818608E-02  0.1454044E+00
          2   -1    0    0  502    0  0.00000000000E+00  0.00000000000E+00  0.15865646312E+04  0.15865646312E+04  0.00000000000E+00 0. -1.
          1   -1    0    0  501    0 -0.00000000000E+00 -0.00000000000E+00 -0.10055478703E+04  0.10055478703E+04  0.00000000000E+00 0. -1.
         25    2    1    2    0    0 -0.38116742556E+01 -0.86774007650E+01  0.43228695431E+03  0.45009476262E+03  0.12499383317E+03 0.  0.
          2    1    1    2  501    0 -0.26296722596E+02  0.43600469987E+02 -0.99552901677E+03  0.99683024725E+03  0.00000000000E+00 0. -1.
          1    1    1    2  502    0  0.30108396851E+02 -0.34923069222E+02  0.11442588233E+04  0.11451874917E+04  0.00000000000E+00 0. -1.
         22    1    3    3    0    0 -0.42660849522E+02 -0.38588895723E+02  0.34685829102E+03  0.35159596842E+03  0.00000000000E+00 0.  1.
         22    1    3    3    0    0  0.38849175267E+02  0.29911494958E+02  0.85428663285E+02  0.98498794207E+02  0.00000000000E+00 0.  1.
</event>
<event>
 7    1  0.7118985E-006  0.1337832E+03  0.7818608E-02  0.1340415E+00
          2   -1    0    0  502    0  0.00000000000E+00  0.00000000000E+00  0.35855764713E+04  0.35855764713E+04  0.00000000000E+00 0. -1.
          1   -1    0    0  501    0 -0.00000000000E+00 -0.00000000000E+00 -0.62697308793E+03  0.62697308793E+03  0.00000000000E+00 0. -1.
         25    2    1    2    0    0  0.90840057114E+02 -0.58762462530E+01 -0.95918844632E+02  0.18196875100E+03  0.12500302132E+03 0.  0.
          2    1    1    2  501    0  0.43276414860E+02  0.19228238039E+01 -0.48579467488E+03  0.48772226880E+03  0.00000000000E+00 0. -1.
          1    1    1    2  502    0 -0.13411647197E+03  0.39534224490E+01  0.35403169029E+04  0.35428585395E+04  0.00000000000E+00 0. -1.
         22    1    3    3    0    0  0.86345432647E+02  0.47566322864E+02 -0.46327520041E+02  0.10892349573E+03  0.00000000000E+00 0.  1.
         22    1    3    3    0    0  0.44946244671E+01 -0.53442569117E+02 -0.49591324590E+02  0.73045255270E+02  0.00000000000E+00 0.  1.
</event>
<event>
 7    1  0.7118985E-006  0.6812233E+02  0.7818608E-02  0.1489610E+00
          2   -1    0    0  502    0  0.00000000000E+00  0.00000000000E+00  0.44863690988E+03  0.44863690988E+03  0.00000000000E+00 0. -1.
          1   -1    0    0  501    0 -0.00000000000E+00 -0.00000000000E+00 -0.19208356674E+03  0.19208356674E+03  0.00000000000E+00 0. -1.
         25    2    1    2    0    0 -0.72802112719E+02 -0.46744863974E+02  0.13450183325E+03  0.20298133823E+03  0.12500180237E+03 0.  0.
          2    1    1    2  501    0  0.46213005596E+02  0.49115829556E+02 -0.14995716457E+03  0.16442371424E+03  0.00000000000E+00 0. -1.
          1    1    1    2  502    0  0.26589107123E+02 -0.23709655817E+01  0.27200867446E+03  0.27331542415E+03  0.00000000000E+00 0. -1.
         22    1    3    3    0    0  0.31326735926E+02 -0.91330033715E+01  0.56809716730E+01  0.33121738684E+02  0.00000000000E+00 0.  1.
         22    1    3    3    0    0 -0.10412884864E+03 -0.37611860603E+02  0.12882086158E+03  0.16985959954E+03  0.00000000000E+00 0.  1.
</event>
<event>
 7    1  0.7118985E-006  0.7944452E+02  0.7818608E-02  0.1354018E+00
          2   -1    0    0  502    0  0.00000000000E+00  0.00000000000E+00  0.23220211056E+03  0.23220211056E+03  0.00000000000E+00 0. -1.
          1   -1    0    0  501    0 -0.00000000000E+00 -0.00000000000E+00 -0.22077357673E+03  0.22077357673E+03  0.00000000000E+00 0. -1.
         25    2    1    2    0    0 -0.98950502535E+02 -0.42130034228E+02 -0.10563817142E+03  0.19583125736E+03  0.12499726543E+03 0.  0.
          2    1    1    2  501    0  0.37170837152E+02  0.62087744341E+02 -0.43164458373E+02  0.84259893179E+02  0.00000000000E+00 0. -1.
          1    1    1    2  502    0  0.61779665383E+02 -0.19957710113E+02  0.16023116362E+03  0.17288453674E+03  0.00000000000E+00 0. -1.
         22    1    3    3    0    0 -0.78383100005E+02  0.19967551480E+02 -0.12245759329E+02  0.81808142016E+02  0.00000000000E+00 0. -1.
         22    1    3    3    0    0 -0.20567402529E+02 -0.62097585708E+02 -0.93392412090E+02  0.11402311535E+03  0.00000000000E+00 0. -1.
</event>
<event>
 7    1  0.7118985E-006  0.9535357E+02  0.7818608E-02  0.1388634E+00
          2   -1    0    0  502    0  0.00000000000E+00  0.00000000000E+00  0.10642964348E+03  0.10642964348E+03  0.00000000000E+00 0. -1.
          1   -1    0    0  501    0 -0.00000000000E+00 -0.00000000000E+00 -0.11351067452E+04  0.11351067452E+04  0.00000000000E+00 0. -1.
         25    2    1    2    0    0 -0.43010524712E+02  0.86395977199E+02 -0.14524568207E+03  0.21455806501E+03  0.12499873994E+03 0.  0.
          2    1    1    2  501    0  0.39386119326E+02  0.10000979632E+02 -0.92214128779E+03  0.92303620766E+03  0.00000000000E+00 0. -1.
          1    1    1    2  502    0  0.36244053860E+01 -0.96396956831E+02  0.38709868108E+02  0.10394211605E+03  0.00000000000E+00 0. -1.
         22    1    3    3    0    0 -0.50219893929E+02  0.51804343514E+01 -0.11840460010E+03  0.12871877863E+03  0.00000000000E+00 0.  1.
         22    1    3    3    0    0  0.72093692170E+01  0.81215542848E+02 -0.26841081965E+02  0.85839286377E+02  0.00000000000E+00 0.  1.
</event>
<event>
 7    1  0.7118985E-006  0.1540236E+03  0.7818608E-02  0.1263636E+00
          2   -1    0    0  502    0  0.00000000000E+00  0.00000000000E+00  0.41331872248E+03  0.41331872248E+03  0.00000000000E+00 0. -1.
          1   -1    0    0  501    0 -0.00000000000E+00 -0.00000000000E+00 -0.24798771830E+03  0.24798771830E+03  0.00000000000E+00 0. -1.
         25    2    1    2    0    0 -0.12624442251E+03 -0.11509956193E+03  0.11533696251E+03  0.24106714900E+03  0.12500076813E+03 0.  0.
          2    1    1    2  501    0 -0.20211178446E+02  0.73507615376E+02 -0.15037220299E+03  0.16859318101E+03  0.00000000000E+00 0. -1.
          1    1    1    2  502    0  0.14645560096E+03  0.41591946557E+02  0.20036624465E+03  0.25164611077E+03  0.00000000000E+00 0. -1.
         22    1    3    3    0    0 -0.51181950913E+02 -0.12571449277E+03  0.78218741127E+02  0.15665853713E+03  0.00000000000E+00 0.  1.
         22    1    3    3    0    0 -0.75062471599E+02  0.10614930838E+02  0.37118221386E+02  0.84408611872E+02  0.00000000000E+00 0.  1.
</event>
<event>
 7    1  0.1058663E-005  0.6348275E+02  0.7818608E-02  0.1414671E+00
          2   -1    0    0  502    0  0.00000000000E+00  0.00000000000E+00  0.10955426406E+04  0.10955426406E+04  0.00000000000E+00 0. -1.
          1   -1    0    0  501    0 -0.00000000000E+00 -0.00000000000E+00 -0.13310305124E+04  0.13310305124E+04  0.00000000000E+00 0. -1.
         25    2    1    2    0    0  0.39572867871E+02 -0.58691540920E+02 -0.24923534823E+03  0.28766832166E+03  0.12499638249E+03 0.  0.
          2    1    1    2  501    0 -0.49524727408E+02 -0.40475193461E+01 -0.10610594714E+04  0.10622223321E+04  0.00000000000E+00 0. -1.
          1    1    1    2  502    0  0.99518595363E+01  0.62739060266E+02  0.10748069478E+04  0.10766824992E+04  0.00000000000E+00 0. -1.
         22    1    3    3    0    0  0.77237362261E+02 -0.45325255267E+02 -0.22178555288E+03  0.23918365404E+03  0.00000000000E+00 0. -1.
         22    1    3    3    0    0 -0.37664494389E+02 -0.13366285653E+02 -0.27449795344E+02  0.48484667619E+02  0.00000000000E+00 0. -1.
</event>
<event>
 7    1  0.1581380E-005  0.5248253E+02  0.7818608E-02  0.1450390E+00
          2   -1    0    0  502    0  0.00000000000E+00  0.00000000000E+00  0.22258886674E+04  0.22258886674E+04  0.00000000000E+00 0. -1.
          1   -1    0    0  501    0 -0.00000000000E+00 -0.00000000000E+00 -0.21788074010E+04  0.21788074010E+04  0.00000000000E+00 0. -1.
         25    2    1    2    0    0 -0.46888119650E+00  0.55032930176E+02 -0.24207925265E+03  0.27796169792E+03  0.12502598808E+03 0.  0.
          2    1    1    2  501    0  0.40935765981E+02 -0.33390914679E+02 -0.19181847898E+04  0.19189120818E+04  0.00000000000E+00 0. -1.
          1    1    1    2  502    0 -0.40466884784E+02 -0.21642015497E+02  0.22073453089E+04  0.22078222887E+04  0.00000000000E+00 0. -1.
         22    1    3    3    0    0  0.38041870003E+02  0.41162361611E+02 -0.22782489851E+03  0.23461821811E+03  0.00000000000E+00 0. -1.
         22    1    3    3    0    0 -0.38510751199E+02  0.13870568565E+02 -0.14254354135E+02  0.43343479810E+02  0.00000000000E+00 0. -1.
</event>
<event>
 7    1  0.7118985E-006  0.8134744E+02  0.7818608E-02  0.1443951E+00
          2   -1    0    0  502    0  0.00000000000E+00  0.00000000000E+00  0.28457858837E+03  0.28457858837E+03  0.00000000000E+00 0. -1.
          1   -1    0    0  501    0 -0.00000000000E+00 -0.00000000000E+00 -0.20548724415E+04  0.20548724415E+04  0.00000000000E+00 0. -1.
         25    2    1    2    0    0 -0.10591802571E+03 -0.25852309947E+02 -0.71898922463E+03  0.73787470195E+03  0.12500640202E+03 0.  0.
          2    1    1    2  501    0  0.75912309498E+02  0.17862384714E+02 -0.13244137009E+04  0.13267077277E+04  0.00000000000E+00 0. -1.
          1    1    1    2  502    0  0.30005716216E+02  0.79899252336E+01  0.27310907246E+03  0.27486860019E+03  0.00000000000E+00 0. -1.
         22    1    3    3    0    0 -0.54968737527E+02 -0.75411825097E+02 -0.35861399423E+03  0.37055701630E+03  0.00000000000E+00 0. -1.
         22    1    3    3    0    0 -0.50949288187E+02  0.49559515150E+02 -0.36037523040E+03  0.36731768566E+03  0.00000000000E+00 0. -1.
</event>
<event>
 7    1  0.7118985E-006  0.8121738E+02  0.7818608E-02  0.1425825E+00
          2   -1    0    0  502    0  0.00000000000E+00  0.00000000000E+00  0.18141699230E+03  0.18141699230E+03  0.00000000000E+00 0. -1.
          1   -1    0    0  501    0 -0.00000000000E+00 -0.00000000000E+00 -0.21415127843E+04  0.21415127843E+04  0.00000000000E+00 0. -1.
         25    2    1    2    0    0 -0.94261767432E+02 -0.62306205325E+02 -0.46783491197E+03  0.49725429127E+03  0.12499992524E+03 0.  0.
          2    1    1    2  501    0  0.60348447645E+02  0.51322048240E+02 -0.16561047689E+04  0.16579984600E+04  0.00000000000E+00 0. -1.
          1    1    1    2  502    0  0.33913319787E+02  0.10984157085E+02  0.16384388878E+03  0.16767702543E+03  0.00000000000E+00 0. -1.
         22    1    3    3    0    0  0.80087418077E+01  0.29438328274E+02 -0.69851227518E+02  0.76223022130E+02  0.00000000000E+00 0. -1.
         22    1    3    3    0    0 -0.10227050924E+03 -0.91744533599E+02 -0.39798368445E+03  0.42103126914E+03  0.00000000000E+00 0. -1.
</event>
<event>
 7    1  0.7118985E-006  0.1487614E+03  0.7818608E-02  0.1371845E+00
          2   -1    0    0  502    0  0.00000000000E+00  0.00000000000E+00  0.24394728815E+04  0.24394728815E+04  0.00000000000E+00 0. -1.
          1   -1    0    0  501    0 -0.00000000000E+00 -0.00000000000E+00 -0.31822541850E+03  0.31822541850E+03  0.00000000000E+00 0. -1.
         25    2    1    2    0    0  0.16000903410E+03  0.29822523856E+02 -0.21627092823E+03  0.29814530137E+03  0.12500092964E+03 0.  0.
          2    1    1    2  501    0 -0.20555245011E+02  0.21669151750E+02 -0.54911680372E+02  0.62508902377E+02  0.00000000000E+00 0. -1.
          1    1    1    2  502    0 -0.13945378908E+03 -0.51491675606E+02  0.23924300716E+04  0.23970440963E+04  0.00000000000E+00 0. -1.
         22    1    3    3    0    0  0.10034376340E+03 -0.20896108258E+02 -0.18939808198E+03  0.21535355035E+03  0.00000000000E+00 0. -1.
         22    1    3    3    0    0  0.59665270693E+02  0.50718632114E+02 -0.26872846249E+02  0.82791751014E+02  0.00000000000E+00 0. -1.
</event>
<event>
 7    1  0.7118985E-006  0.3897156E+02  0.7818608E-02  0.1541406E+00
          2   -1    0    0  502    0  0.00000000000E+00  0.00000000000E+00  0.16363786541E+03  0.16363786541E+03  0.00000000000E+00 0. -1.
          1   -1    0    0  501    0 -0.00000000000E+00 -0.00000000000E+00 -0.31604576759E+03  0.31604576759E+03  0.00000000000E+00 0. -1.
         25    2    1    2    0    0  0.16339552838E+02 -0.61473936804E+02 -0.24907009645E+03  0.28584354554E+03  0.12499837474E+03 0.  0.
          2    1    1    2  501    0 -0.23257020243E+02  0.23312916875E+02 -0.39982922947E+02  0.51797830178E+02  0.00000000000E+00 0. -1.
          1    1    1    2  502    0  0.69174674054E+01  0.38161019928E+02  0.13664511721E+03  0.14204225729E+03  0.00000000000E+00 0. -1.
         22    1    3    3    0    0 -0.35185612197E+02  0.19113741376E+02 -0.10994153741E+03  0.11700642744E+03  0.00000000000E+00 0. -1.
         22    1    3    3    0    0  0.51525165035E+02 -0.80587678180E+02 -0.13912855904E+03  0.16883711810E+03  0.00000000000E+00 0. -1.
</event>
<event>
 7    1  0.7118985E-006  0.1583264E+03  0.7818608E-02  0.1350410E+00
          2   -1    0    0  502    0  0.00000000000E+00  0.00000000000E+00  0.18633839171E+03  0.18633839171E+03  0.00000000000E+00 0. -1.
          1   -1    0    0  501    0 -0.00000000000E+00 -0.00000000000E+00 -0.27824897403E+04  0.27824897403E+04  0.00000000000E+00 0. -1.
         25    2    1    2    0    0 -0.44059310860E+02 -0.13042560649E+03 -0.11337773071E+04  0.11489251126E+04  0.12500348204E+03 0.  0.
          2    1    1    2  501    0  0.46896351916E+02  0.16389763420E+03 -0.16350888933E+04  0.16439517606E+04  0.00000000000E+00 0. -1.
          1    1    1    2  502    0 -0.28370410560E+01 -0.33472027712E+02  0.17271485180E+03  0.17595125880E+03  0.00000000000E+00 0. -1.
         22    1    3    3    0    0 -0.28225683961E+02 -0.11990368737E+03 -0.50307408844E+03  0.51793544187E+03  0.00000000000E+00 0. -1.
         22    1    3    3    0    0 -0.15833626899E+02 -0.10521919122E+02 -0.63070321870E+03  0.63098967076E+03  0.00000000000E+00 0. -1.
</event>
<event>
 7    1  0.7118985E-006  0.3273679E+03  0.7818608E-02  0.1186451E+00
          2   -1    0    0  502    0  0.00000000000E+00  0.00000000000E+00  0.60268104057E+03  0.60268104057E+03  0.00000000000E+00 0. -1.
          1   -1    0    0  501    0 -0.00000000000E+00 -0.00000000000E+00 -0.11767134356E+04  0.11767134356E+04  0.00000000000E+00 0. -1.
         25    2    1    2    0    0 -0.13937066264E+02  0.27627980523E+03 -0.27928290666E+03  0.41249116128E+03  0.12500097435E+03 0.  0.
          2    1    1    2  501    0  0.12386103048E+02 -0.35643697004E+03 -0.78917275344E+03  0.86602214979E+03  0.00000000000E+00 0. -1.
          1    1    1    2  502    0  0.15509632160E+01  0.80157164810E+02  0.49442326504E+03  0.50088116512E+03  0.00000000000E+00 0. -1.
         22    1    3    3    0    0  0.58972597371E+01  0.16475700244E+03 -0.79958475868E+02  0.18322937916E+03  0.00000000000E+00 0.  1.
         22    1    3    3    0    0 -0.19834326001E+02  0.11152280280E+03 -0.19932443079E+03  0.22926178212E+03  0.00000000000E+00 0.  1.
</event>
<event>
 7    1  0.7118985E-006  0.1153519E+03  0.7818608E-02  0.1297706E+00
          2   -1    0    0  502    0  0.00000000000E+00  0.00000000000E+00  0.96521629250E+02  0.96521629250E+02  0.00000000000E+00 0. -1.
          1   -1    0    0  501    0 -0.00000000000E+00 -0.00000000000E+00 -0.17628604636E+04  0.17628604636E+04  0.00000000000E+00 0. -1.
         25    2    1    2    0    0  0.34253625376E+02 -0.72292021908E+02 -0.30567759256E+03  0.33979836324E+03  0.12499875913E+03 0.  0.
          2    1    1    2  501    0 -0.10694969852E+03  0.60607317402E+02 -0.14198205834E+04  0.14251322654E+04  0.00000000000E+00 0. -1.
          1    1    1    2  502    0  0.72696073146E+02  0.11684704506E+02  0.59159341659E+02  0.94451464128E+02  0.00000000000E+00 0. -1.
         22    1    3    3    0    0 -0.34465974924E+02 -0.70994865632E+02 -0.14620461279E+03  0.16614440458E+03  0.00000000000E+00 0.  1.
         22    1    3    3    0    0  0.68719600300E+02 -0.12971562760E+01 -0.15947297977E+03  0.17365395866E+03  0.00000000000E+00 0.  1.
</event>
<event>
 7    1  0.7118985E-006  0.1083297E+03  0.7818608E-02  0.1401077E+00
          2   -1    0    0  502    0  0.00000000000E+00  0.00000000000E+00  0.11236830781E+04  0.11236830781E+04  0.00000000000E+00 0. -1.
          1   -1    0    0  501    0 -0.00000000000E+00 -0.00000000000E+00 -0.18309390795E+04  0.18309390795E+04  0.00000000000E+00 0. -1.
         25    2    1    2    0    0 -0.45252523532E+02 -0.10396212116E+03 -0.12715349185E+02  0.16924346420E+03  0.12500302615E+03 0.  0.
          2    1    1    2  501    0 -0.24543598292E+02  0.21133073756E+02 -0.17370026936E+04  0.17373046228E+04  0.00000000000E+00 0. -1.
          1    1    1    2  502    0  0.69796121825E+02  0.82829047406E+02  0.10424620413E+04  0.10480740706E+04  0.00000000000E+00 0. -1.
         22    1    3    3    0    0  0.17536155053E+02 -0.44665342117E+02 -0.55079456373E+02  0.73049681963E+02  0.00000000000E+00 0.  1.
         22    1    3    3    0    0 -0.62788678586E+02 -0.59296779045E+02  0.42364107189E+02  0.96193782239E+02  0.00000000000E+00 0.  1.
</event>
<event>
 7    1  0.7118985E-006  0.1142219E+03  0.7818608E-02  0.1267963E+00
          2   -1    0    0  502    0  0.00000000000E+00  0.00000000000E+00  0.14298116204E+04  0.14298116204E+04  0.00000000000E+00 0. -1.
          1   -1    0    0  501    0 -0.00000000000E+00 -0.00000000000E+00 -0.15676750565E+03  0.15676750565E+03  0.00000000000E+00 0. -1.
         25    2    1    2    0    0  0.37040797525E+02  0.46215498873E+02  0.42878017872E+03  0.45053925442E+03  0.12500114036E+03 0.  0.
          2    1    1    2  501    0  0.98420180608E+02  0.52485060152E+01 -0.12320617688E+03  0.15777782096E+03  0.00000000000E+00 0. -1.
          1    1    1    2  502    0 -0.13546097813E+03 -0.51464004888E+02  0.96747011293E+03  0.97826205068E+03  0.00000000000E+00 0. -1.
         22    1    3    3    0    0 -0.53311354598E+01  0.21641727965E+02  0.36367484663E+01  0.22583430519E+02  0.00000000000E+00 0. -1.
         22    1    3    3    0    0  0.42371932985E+02  0.24573770908E+02  0.42514343025E+03  0.42795582390E+03  0.00000000000E+00 0. -1.
</event>
<event>
 7    1  0.7118985E-006  0.4584955E+03  0.7818608E-02  0.1074061E+00
          2   -1    0    0  502    0  0.00000000000E+00  0.00000000000E+00  0.25913362175E+04  0.25913362175E+04  0.00000000000E+00 0. -1.
          1   -1    0    0  501    0 -0.00000000000E+00 -0.00000000000E+00 -0.44349635996E+03  0.44349635996E+03  0.00000000000E+00 0. -1.
         25    2    1    2    0    0 -0.15804359944E+03 -0.57966458315E+03  0.11110844331E+04  0.12693000003E+04  0.12500025997E+03 0.  0.
          2    1    1    2  501    0 -0.42379363617E+02  0.22424564390E+03 -0.29482823453E+03  0.37283482556E+03  0.00000000000E+00 0. -1.
          1    1    1    2  502    0  0.20042296305E+03  0.35541893925E+03  0.13315836590E+04  0.13926977516E+04  0.00000000000E+00 0. -1.
         22    1    3    3    0    0  0.18461285952E+02 -0.11774172911E+03  0.21264350228E+03  0.24376462605E+03  0.00000000000E+00 0. -1.
         22    1    3    3    0    0 -0.17650488539E+03 -0.46192285404E+03  0.89844093085E+03  0.10255353743E+04  0.00000000000E+00 0. -1.
</event>
<event>
 7    1  0.7118985E-006  0.8329667E+02  0.7818608E-02  0.1473956E+00
          2   -1    0    0  502    0  0.00000000000E+00  0.00000000000E+00  0.10891535367E+03  0.10891535367E+03  0.00000000000E+00 0. -1.
          1   -1    0    0  501    0 -0.00000000000E+00 -0.00000000000E+00 -0.11367750104E+04  0.11367750104E+04  0.00000000000E+00 0. -1.
         25    2    1    2    0    0  0.18568081619E+02 -0.63139351808E+02 -0.41689419765E+03  0.44017814661E+03  0.12499870925E+03 0.  0.
          2    1    1    2  501    0  0.21978941948E+02 -0.10544747050E+02 -0.68980400645E+03  0.69023462163E+03  0.00000000000E+00 0. -1.
          1    1    1    2  502    0 -0.40547023567E+02  0.73684098858E+02  0.78838547385E+02  0.11527759582E+03  0.00000000000E+00 0. -1.
         22    1    3    3    0    0  0.75882700821E+01 -0.90471527267E+02 -0.38954108993E+03  0.39998117435E+03  0.00000000000E+00 0.  1.
         22    1    3    3    0    0  0.10979811537E+02  0.27332175459E+02 -0.27353107716E+02  0.40196972255E+02  0.00000000000E+00 0.  1.
</event>
<event>
 7    1  0.7118985E-006  0.1285319E+03  0.7818608E-02  0.1335907E+00
          2   -1    0    0  502    0  0.00000000000E+00  0.00000000000E+00  0.44354184264E+03  0.44354184264E+03  0.00000000000E+00 0. -1.
          1   -1    0    0  501    0 -0.00000000000E+00 -0.00000000000E+00 -0.45396909493E+03  0.45396909493E+03  0.00000000000E+00 0. -1.
         25    2    1    2    0    0  0.13293891825E+02  0.86666932486E+02 -0.12156911851E+02  0.15316717892E+03  0.12499803777E+03 0.  0.
          2    1    1    2  501    0  0.55720757119E+01  0.46557456645E+02 -0.35759320149E+03  0.36065432556E+03  0.00000000000E+00 0. -1.
          1    1    1    2  502    0 -0.18865967537E+02 -0.13322438913E+03  0.35932286105E+03  0.38368943308E+03  0.00000000000E+00 0. -1.
         22    1    3    3    0    0 -0.50655982743E+02  0.42762467920E+02 -0.31239198658E+02  0.73284000866E+02  0.00000000000E+00 0.  1.
         22    1    3    3    0    0  0.63949874567E+02  0.43904464567E+02  0.19082286807E+02  0.79883178053E+02  0.00000000000E+00 0.  1.
</event>
<event>
 7    1  0.7118985E-006  0.7645425E+02  0.7818608E-02  0.1383656E+00
          2   -1    0    0  502    0  0.00000000000E+00  0.00000000000E+00  0.35958759587E+03  0.35958759587E+03  0.00000000000E+00 0. -1.
          1   -1    0    0  501    0 -0.00000000000E+00 -0.00000000000E+00 -0.68965065047E+03  0.68965065047E+03  0.00000000000E+00 0. -1.
         25    2    1    2    0    0 -0.53575508419E+02  0.95166586900E+01 -0.38858794183E+02  0.14176238351E+03  0.12500266237E+03 0.  0.
          2    1    1    2  501    0 -0.12885634094E+02 -0.51163901528E+02 -0.59315908488E+03  0.59550103641E+03  0.00000000000E+00 0. -1.
          1    1    1    2  502    0  0.66461142514E+02  0.41647242838E+02  0.30195482447E+03  0.31197482642E+03  0.00000000000E+00 0. -1.
         22    1    3    3    0    0 -0.51755850503E+02 -0.50380973323E+02 -0.38473373207E+02  0.81835878319E+02  0.00000000000E+00 0. -1.
         22    1    3    3    0    0 -0.18196579165E+01  0.59897632013E+02 -0.38542097514E+00  0.59926505196E+02  0.00000000000E+00 0. -1.
</event>
<event>
 7    1  0.7118985E-006  0.5195829E+02  0.7818608E-02  0.1459599E+00
          2   -1    0    0  502    0  0.00000000000E+00  0.00000000000E+00  0.12948709869E+04  0.12948709869E+04  0.00000000000E+00 0. -1.
          1   -1    0    0  501    0 -0.00000000000E+00 -0.00000000000E+00 -0.13862728816E+04  0.13862728816E+04  0.00000000000E+00 0. -1.
         25    2    1    2    0    0 -0.73703774218E+01 -0.25540727012E+02  0.22025819480E+03  0.25463787050E+03  0.12498048454E+03 0.  0.
          2    1    1    2  501    0  0.39982653205E+02 -0.16708892717E+02 -0.13680662879E+04  0.13687524128E+04  0.00000000000E+00 0. -1.
          1    1    1    2  502    0 -0.32612275783E+02  0.42249619729E+02  0.10564061984E+04  0.10577535852E+04  0.00000000000E+00 0. -1.
         22    1    3    3    0    0  0.35034984278E+02 -0.13985699191E+02  0.20449471576E+03  0.20794503764E+03  0.00000000000E+00 0. -1.
         22    1    3    3    0    0 -0.42405361700E+02 -0.11555027821E+02  0.15763479037E+02  0.46692832857E+02  0.00000000000E+00 0. -1.
</event>
<event>
 7    1  0.7118985E-006  0.2232760E+03  0.7818608E-02  0.1283894E+00
          2   -1    0    0  502    0  0.00000000000E+00  0.00000000000E+00  0.73281249351E+03  0.73281249351E+03  0.00000000000E+00 0. -1.
          1   -1    0    0  501    0 -0.00000000000E+00 -0.00000000000E+00 -0.34775863719E+03  0.34775863719E+03  0.00000000000E+00 0. -1.
         25    2    1    2    0    0  0.10589573232E+03 -0.20892312929E+03  0.80336214686E+02  0.27737516144E+03  0.12498116945E+03 0.  0.
          2    1    1    2  501    0 -0.62720121345E+02  0.21200004260E+03 -0.19910091075E+03  0.29752143510E+03  0.00000000000E+00 0. -1.
          1    1    1    2  502    0 -0.43175610972E+02 -0.30769133089E+01  0.50381855239E+03  0.50567453417E+03  0.00000000000E+00 0. -1.
         22    1    3    3    0    0 -0.89328790201E+01  0.74964985384E+00  0.32324489467E+02  0.33544461865E+02  0.00000000000E+00 0.  1.
         22    1    3    3    0    0  0.11482861134E+03 -0.20967277914E+03  0.48011725219E+02  0.24383069957E+03  0.00000000000E+00 0.  1.
</event>
<event>
 7    1  0.7118985E-006  0.1926916E+03  0.7818608E-02  0.1263549E+00
          2   -1    0    0  502    0  0.00000000000E+00  0.00000000000E+00  0.12511299629E+04  0.12511299629E+04  0.00000000000E+00 0. -1.
          1   -1    0    0  501    0 -0.00000000000E+00 -0.00000000000E+00 -0.66451867993E+03  0.66451867993E+03  0.00000000000E+00 0. -1.
         25    2    1    2    0    0 -0.20403161546E+03  0.95727943522E+02  0.46660919284E+02  0.26190609854E+03  0.12499929514E+03 0.  0.
          2    1    1    2  501    0  0.14775479263E+03 -0.11923456957E+03 -0.53982781225E+03  0.57224332954E+03  0.00000000000E+00 0. -1.
          1    1    1    2  502    0  0.56276822826E+02  0.23506626050E+02  0.10797781759E+04  0.10814992147E+04  0.00000000000E+00 0. -1.
         22    1    3    3    0    0 -0.72190608935E+02  0.83628693747E+02  0.65103033851E+02  0.12823278619E+03  0.00000000000E+00 0.  1.
         22    1    3    3    0    0 -0.13184100652E+03  0.12099249775E+02 -0.18442114567E+02  0.13367331236E+03  0.00000000000E+00 0.  1.
</event>
<event>
 7    1  0.7118985E-006  0.6747154E+02  0.7818608E-02  0.1442443E+00
          2   -1    0    0  502    0  0.00000000000E+00  0.00000000000E+00  0.47648399183E+02  0.47648399183E+02  0.00000000000E+00 0. -1.
          1   -1    0    0  501    0 -0.00000000000E+00 -0.00000000000E+00 -0.36490824383E+03  0.36490824383E+03  0.00000000000E+00 0. -1.
         25    2    1    2    0    0 -0.36652457627E+02 -0.22951774595E+01 -0.99956094092E+02  0.16421531651E+03  0.12500711556E+03 0.  0.
          2    1    1    2  501    0  0.74496781685E+02  0.12255737872E+01 -0.18164928097E+03  0.19633576799E+03  0.00000000000E+00 0. -1.
          1    1    1    2  502    0 -0.37844324058E+02  0.10696036724E+01 -0.35654469582E+02  0.52005558517E+02  0.00000000000E+00 0. -1.
         22    1    3    3    0    0 -0.50517370355E+02 -0.55602039189E+02 -0.54721669834E+02  0.92941124476E+02  0.00000000000E+00 0.  1.
         22    1    3    3    0    0  0.13864912728E+02  0.53306861729E+02 -0.45234424259E+02  0.71274192036E+02  0.00000000000E+00 0.  1.
</event>
<event>
 7    1  0.7118985E-006  0.2146239E+03  0.7818608E-02  0.1240632E+00
          2   -1    0    0  502    0  0.00000000000E+00  0.00000000000E+00  0.36103764763E+03  0.36103764763E+03  0.00000000000E+00 0. -1.
          1   -1    0    0  501    0 -0.00000000000E+00 -0.00000000000E+00 -0.12796277022E+04  0.12796277022E+04  0.00000000000E+00 0. -1.
         25    2    1    2    0    0  0.95591490639E+02  0.25062687148E+03 -0.41128220211E+03  0.50668477340E+03  0.12499939213E+03 0.  0.
          2    1    1    2  501    0 -0.82559541777E+02 -0.18308323176E+03 -0.80436696200E+03  0.82906076813E+03  0.00000000000E+00 0. -1.
          1    1    1    2  502    0 -0.13031948863E+02 -0.67543639720E+02  0.29705910952E+03  0.30491980832E+03  0.00000000000E+00 0. -1.
         22    1    3    3    0    0  0.23505668455E+02  0.94237102946E+02 -0.56611040581E+02  0.11241867255E+03  0.00000000000E+00 0. -1.
         22    1    3    3    0    0  0.72085822184E+02  0.15638976853E+03 -0.35467116153E+03  0.39426610086E+03  0.00000000000E+00 0. -1.
</event>
<event>
 7    1  0.7118985E-006  0.6598703E+02  0.7818608E-02  0.1499510E+00
          2   -1    0    0  502    0  0.00000000000E+00  0.00000000000E+00  0.86729274458E+03  0.86729274458E+03  0.00000000000E+00 0. -1.
          1   -1    0    0  501    0 -0.00000000000E+00 -0.00000000000E+00 -0.13634425648E+04  0.13634425648E+04  0.00000000000E+00 0. -1.
         25    2    1    2    0    0  0.48965811439E+02 -0.29127100797E+02 -0.10022859520E+03  0.17005085027E+03  0.12500192675E+03 0.  0.
          2    1    1    2  501    0  0.16484095126E+02  0.19760161633E+02 -0.12268547793E+04  0.12271246224E+04  0.00000000000E+00 0. -1.
          1    1    1    2  502    0 -0.65449906565E+02  0.93669391638E+01  0.83093355426E+03  0.83355983673E+03  0.00000000000E+00 0. -1.
         22    1    3    3    0    0 -0.16015955189E+02 -0.55866785039E+02 -0.15840240203E+02  0.60237211928E+02  0.00000000000E+00 0.  1.
         22    1    3    3    0    0  0.64981766628E+02  0.26739684243E+02 -0.84388354996E+02  0.10981363834E+03  0.00000000000E+00 0.  1.
</event>
<event>
 7    1  0.7118985E-006  0.5098826E+02  0.7818608E-02  0.1443463E+00
          2   -1    0    0  502    0  0.00000000000E+00  0.00000000000E+00  0.21912727075E+03  0.21912727075E+03  0.00000000000E+00 0. -1.
          1   -1    0    0  501    0 -0.00000000000E+00 -0.00000000000E+00 -0.10305328163E+03  0.10305328163E+03  0.00000000000E+00 0. -1.
         25    2    1    2    0    0 -0.62053841878E+01 -0.21936749818E+01  0.79712349355E+02  0.14840214852E+03  0.12500328013E+03 0.  0.
          2    1    1    2  501    0  0.44888247724E+02 -0.31024380704E+02 -0.49660089551E+02  0.73780698533E+02  0.00000000000E+00 0. -1.
          1    1    1    2  502    0 -0.38682863537E+02  0.33218055686E+02  0.86021729316E+02  0.99997705321E+02  0.00000000000E+00 0. -1.
         22    1    3    3    0    0  0.22991809156E+02  0.55589843197E+02  0.33456987892E+02  0.68834758616E+02  0.00000000000E+00 0.  1.
         22    1    3    3    0    0 -0.29197193344E+02 -0.57783518178E+02  0.46255361463E+02  0.79567389905E+02  0.00000000000E+00 0.  1.
</event>
<event>
 7    1  0.7118985E-006  0.8814503E+02  0.7818608E-02  0.1374658E+00
          2   -1    0    0  502    0  0.00000000000E+00  0.00000000000E+00  0.15910649727E+03  0.15910649727E+03  0.00000000000E+00 0. -1.
          1   -1    0    0  501    0 -0.00000000000E+00 -0.00000000000E+00 -0.92634142371E+03  0.92634142371E+03  0.00000000000E+00 0. -1.
         25    2    1    2    0    0  0.85289363589E+01 -0.97778622477E+02 -0.66280713975E+02  0.17219775701E+03  0.12500213081E+03 0.  0.
          2    1    1    2  501    0 -0.50663885009E+02  0.72274640078E+02 -0.79882432237E+03  0.80368572891E+03  0.00000000000E+00 0. -1.
          1    1    1    2  502    0  0.42134948650E+02  0.25503982399E+02  0.97870109910E+02  0.10956443506E+03  0.00000000000E+00 0. -1.
         22    1    3    3    0    0  0.35956043302E+02 -0.57197929281E+02  0.22158070767E+02  0.71101478635E+02  0.00000000000E+00 0. -1.
         22    1    3    3    0    0 -0.27427106944E+02 -0.40580693196E+02 -0.88438784742E+02  0.10109627838E+03  0.00000000000E+00 0. -1.
</event>
<event>
 7    1  0.7118985E-006  0.1224142E+03  0.7818608E-02  0.1298489E+00
          2   -1    0    0  502    0  0.00000000000E+00  0.00000000000E+00  0.69846342262E+02  0.69846342262E+02  0.00000000000E+00 0. -1.
          1   -1    0    0  501    0 -0.00000000000E+00 -0.00000000000E+00 -0.17078894857E+04  0.17078894857E+04  0.00000000000E+00 0. -1.
         25    2    1    2    0    0 -0.10065483611E+03  0.28292246725E+02 -0.16932548081E+03  0.23500665313E+03  0.12500064522E+03 0.  0.
          2    1    1    2  501    0 -0.18056024354E+00  0.68880530223E+02 -0.13692024101E+04  0.13709339152E+04  0.00000000000E+00 0. -1.
          1    1    1    2  502    0  0.10083539635E+03 -0.97172776948E+02 -0.99515252493E+02  0.17179525959E+03  0.00000000000E+00 0. -1.
         22    1    3    3    0    0  0.18368712115E+01 -0.63753458354E+01  0.17720582654E+02  0.18921896839E+02  0.00000000000E+00 0.  1.
         22    1    3    3    0    0 -0.10249170732E+03  0.34667592560E+02 -0.18704606346E+03  0.21608475629E+03  0.00000000000E+00 0.  1.
</event>
<event>
 7    1  0.7118985E-006  0.5454096E+02  0.7818608E-02  0.1470983E+00
          2   -1    0    0  502    0  0.00000000000E+00  0.00000000000E+00  0.29994793962E+04  0.29994793962E+04  0.00000000000E+00 0. -1.
          1   -1    0    0  501    0 -0.00000000000E+00 -0.00000000000E+00 -0.24440160467E+03  0.24440160467E+03  0.00000000000E+00 0. -1.
         25    2    1    2    0    0 -0.48796185454E+01 -0.25673121090E+02  0.20297884885E+03  0.23980905072E+03  0.12500019162E+03 0.  0.
          2    1    1    2  501    0 -0.25189950644E+02  0.48954074735E+02 -0.22250115486E+03  0.22921125400E+03  0.00000000000E+00 0. -1.
          1    1    1    2  502    0  0.30069569189E+02 -0.23280953645E+02  0.27746000975E+04  0.27748606961E+04  0.00000000000E+00 0. -1.
         22    1    3    3    0    0  0.19927342435E+02 -0.30190380685E+02  0.92278863490E+00  0.36185765175E+02  0.00000000000E+00 0.  1.
         22    1    3    3    0    0 -0.24806960980E+02  0.45172595951E+01  0.20205606021E+03  0.20362328555E+03  0.00000000000E+00 0.  1.
</event>
<event>
 7    1  0.7118985E-006  0.3539297E+02  0.7818608E-02  0.1620635E+00
          2   -1    0    0  502    0  0.00000000000E+00  0.00000000000E+00  0.14158935127E+04  0.14158935127E+04  0.00000000000E+00 0. -1.
          1   -1    0    0  501    0 -0.00000000000E+00 -0.00000000000E+00 -0.23362794477E+03  0.23362794477E+03  0.00000000000E+00 0. -1.
         25    2    1    2    0    0 -0.11901944595E+02  0.40030808561E+02  0.77642928022E+03  0.78753687478E+03  0.12501111965E+03 0.  0.
          2    1    1    2  501    0  0.26603122997E+02 -0.23343959731E+02 -0.22650440501E+03  0.22925294349E+03  0.00000000000E+00 0. -1.
          1    1    1    2  502    0 -0.14701178401E+02 -0.16686848830E+02  0.63234069275E+03  0.63273163923E+03  0.00000000000E+00 0. -1.
         22    1    3    3    0    0 -0.10730072501E+02  0.71949533561E+02  0.71116608763E+03  0.71487696426E+03  0.00000000000E+00 0.  1.
         22    1    3    3    0    0 -0.11718720942E+01 -0.31918724999E+02  0.65263192592E+02  0.72659910522E+02  0.00000000000E+00 0.  1.
</event>
<event>
 7    1  0.7118985E-006  0.2275247E+03  0.7818608E-02  0.1187560E+00
          2   -1    0    0  502    0  0.00000000000E+00  0.00000000000E+00  0.36243092713E+04  0.36243092713E+04  0.00000000000E+00 0. -1.
          1   -1    0    0  501    0 -0.00000000000E+00 -0.00000000000E+00 -0.55230437706E+03  0.55230437706E+03  0.00000000000E+00 0. -1.
         25    2    1    2    0    0  0.11888700282E+03  0.28221614427E+02  0.60986170647E+03  0.63441869133E+03  0.12500078371E+03 0.  0.
          2    1    1    2  501    0 -0.21189756875E+03 -0.94038438850E+02 -0.51400518358E+03  0.56386623978E+03  0.00000000000E+00 0. -1.
          1    1    1    2  502    0  0.93010565933E+02  0.65816824423E+02  0.29761483713E+04  0.29783287172E+04  0.00000000000E+00 0. -1.
         22    1    3    3    0    0  0.80202375481E+02  0.39103375056E+02  0.57294058015E+03  0.57984687923E+03  0.00000000000E+00 0. -1.
         22    1    3    3    0    0  0.38684627340E+02 -0.10881760629E+02  0.36921126325E+02  0.54571812101E+02  0.00000000000E+00 0. -1.
</event>
<event>
 7    1  0.7118985E-006  0.1446524E+03  0.7818608E-02  0.1354024E+00
          2   -1    0    0  502    0  0.00000000000E+00  0.00000000000E+00  0.19530720419E+04  0.19530720419E+04  0.00000000000E+00 0. -1.
          1   -1    0    0  501    0 -0.00000000000E+00 -0.00000000000E+00 -0.18977204415E+03  0.18977204415E+03  0.00000000000E+00 0. -1.
         25    2    1    2    0    0  0.10235941239E+03  0.50858540008E+02  0.89166664191E+03  0.90761144689E+03  0.12500039136E+03 0.  0.
          2    1    1    2  501    0 -0.12083690712E+03 -0.81351940036E+02 -0.15225938647E+03  0.21071928492E+03  0.00000000000E+00 0. -1.
          1    1    1    2  502    0  0.18477494736E+02  0.30493400028E+02  0.10238927423E+04  0.10245133542E+04  0.00000000000E+00 0. -1.
         22    1    3    3    0    0  0.42561473094E+02  0.85746256720E+02  0.61547739598E+03  0.62287745544E+03  0.00000000000E+00 0. -1.
         22    1    3    3    0    0  0.59797939294E+02 -0.34887716712E+02  0.27618924593E+03  0.28473399145E+03  0.00000000000E+00 0. -1.
</event>
<event>
 7    1  0.7118985E-006  0.1459420E+03  0.7818608E-02  0.1232814E+00
          2   -1    0    0  502    0  0.00000000000E+00  0.00000000000E+00  0.11413626581E+04  0.11413626581E+04  0.00000000000E+00 0. -1.
          1   -1    0    0  501    0 -0.00000000000E+00 -0.00000000000E+00 -0.38692386454E+03  0.38692386454E+03  0.00000000000E+00 0. -1.
         25    2    1    2    0    0 -0.58496550524E+02 -0.43430547990E+02  0.26182107654E+03  0.29914101555E+03  0.12500804831E+03 0.  0.
          2    1    1    2  501    0  0.27569226542E+02  0.14854408330E+03 -0.34906686169E+03  0.38035914721E+03  0.00000000000E+00 0. -1.
          1    1    1    2  502    0  0.30927323983E+02 -0.10511353531E+03  0.84168457869E+03  0.84878635986E+03  0.00000000000E+00 0. -1.
         22    1    3    3    0    0  0.13639896306E+02 -0.28802997355E+02  0.53479043981E+01  0.32315004399E+02  0.00000000000E+00 0.  1.
         22    1    3    3    0    0 -0.72136446830E+02 -0.14627550635E+02  0.25647317214E+03  0.26682601115E+03  0.00000000000E+00 0.  1.
</event>
<event>
 7    1  0.7118985E-006  0.1606172E+03  0.7818608E-02  0.1253525E+00
          2   -1    0    0  502    0  0.00000000000E+00  0.00000000000E+00  0.56350751421E+03  0.56350751421E+03  0.00000000000E+00 0. -1.
          1   -1    0    0  501    0 -0.00000000000E+00 -0.00000000000E+00 -0.40142118202E+03  0.40142118202E+03  0.00000000000E+00 0. -1.
         25    2    1    2    0    0 -0.12212119711E+03 -0.96569494447E+02  0.50505741166E+01  0.19972390984E+03  0.12499951129E+03 0.  0.
          2    1    1    2  501    0  0.59243348635E+02 -0.54888360065E+02 -0.28368780107E+03  0.29495978523E+03  0.00000000000E+00 0. -1.
          1    1    1    2  502    0  0.62877848476E+02  0.15145785451E+03  0.44072355915E+03  0.47024500116E+03  0.00000000000E+00 0. -1.
         22    1    3    3    0    0 -0.87110478552E+02 -0.30491554282E+02  0.57177245113E+02  0.10856890768E+03  0.00000000000E+00 0.  1.
         22    1    3    3    0    0 -0.35010718559E+02 -0.66077940165E+02 -0.52126670996E+02  0.91155002164E+02  0.00000000000E+00 0.  1.
</event>
<event>
 7    1  0.7118985E-006  0.1078533E+03  0.7818608E-02  0.1287457E+00
          2   -1    0    0  502    0  0.00000000000E+00  0.00000000000E+00  0.87585340825E+03  0.87585340825E+03  0.00000000000E+00 0. -1.
          1   -1    0    0  501    0 -0.00000000000E+00 -0.00000000000E+00 -0.16572599347E+03  0.16572599347E+03  0.00000000000E+00 0. -1.
         25    2    1    2    0    0  0.20151245430E+02 -0.27126217741E+02  0.31977259330E+03  0.34499724514E+03  0.12500673318E+03 0.  0.
          2    1    1    2  501    0 -0.10596635310E+03  0.39109267485E+02 -0.12818647786E+03  0.17085132689E+03  0.00000000000E+00 0. -1.
          1    1    1    2  502    0  0.85815107675E+02 -0.11983049744E+02  0.51854129933E+03  0.52573082970E+03  0.00000000000E+00 0. -1.
         22    1    3    3    0    0 -0.37196605127E+02 -0.46660726009E+02  0.94860025151E+02  0.11206799345E+03  0.00000000000E+00 0. -1.
         22    1    3    3    0    0  0.57347850557E+02  0.19534508268E+02  0.22491256815E+03  0.23292925168E+03  0.00000000000E+00 0. -1.
</event>
<event>
 7    1  0.7118985E-006  0.5475748E+02  0.7818608E-02  0.1512072E+00
          2   -1    0    0  502    0  0.00000000000E+00  0.00000000000E+00  0.70196486111E+03  0.70196486111E+03  0.00000000000E+00 0. -1.
          1   -1    0    0  501    0 -0.00000000000E+00 -0.00000000000E+00 -0.36025850540E+03  0.36025850540E+03  0.00000000000E+00 0. -1.
         25    2    1    2    0    0  0.48452774519E+02 -0.37089672841E+01  0.56841121462E+02  0.14565875337E+03  0.12499652614E+03 0.  0.
          2    1    1    2  501    0 -0.35314851451E+01 -0.28245370156E+02 -0.31393966397E+03  0.31522751297E+03  0.00000000000E+00 0. -1.
          1    1    1    2  502    0 -0.44921289374E+02  0.31954337440E+02  0.59880489821E+03  0.60133710017E+03  0.00000000000E+00 0. -1.
         22    1    3    3    0    0  0.47976118976E+02  0.20892164027E+02  0.90156456241E+02  0.10424191629E+03  0.00000000000E+00 0. -1.
         22    1    3    3    0    0  0.47665554307E+00 -0.24601131311E+02 -0.33315334779E+02  0.41416837080E+02  0.00000000000E+00 0. -1.
</event>
<event>
 7    1  0.7118985E-006  0.8176650E+02  0.7818608E-02  0.1324751E+00
          2   -1    0    0  502    0  0.00000000000E+00  0.00000000000E+00  0.31566123481E+03  0.31566123481E+03  0.00000000000E+00 0. -1.
          1   -1    0    0  501    0 -0.00000000000E+00 -0.00000000000E+00 -0.19236510691E+04  0.19236510691E+04  0.00000000000E+00 0. -1.
         25    2    1    2    0    0 -0.66450390572E+02 -0.56198488176E+02 -0.22390073461E+03  0.27079320444E+03  0.12499398438E+03 0.  0.
          2    1    1    2  501    0  0.79013807884E+02 -0.24597066535E+02 -0.16695392365E+04  0.16715889027E+04  0.00000000000E+00 0. -1.
          1    1    1    2  502    0 -0.12563417312E+02  0.80795554711E+02  0.28545013683E+03  0.29693019673E+03  0.00000000000E+00 0. -1.
         22    1    3    3    0    0 -0.23127092350E+02  0.24364719606E+02 -0.55398649006E+01  0.34046909774E+02  0.00000000000E+00 0. -1.
         22    1    3    3    0    0 -0.43323298222E+02 -0.80563207782E+02 -0.21836086971E+03  0.23674629466E+03  0.00000000000E+00 0. -1.
</event>
<event>
 7    1  0.7118985E-006  0.9574326E+02  0.7818608E-02  0.1386564E+00
          2   -1    0    0  502    0  0.00000000000E+00  0.00000000000E+00  0.78121832790E+03  0.78121832790E+03  0.00000000000E+00 0. -1.
          1   -1    0    0  501    0 -0.00000000000E+00 -0.00000000000E+00 -0.82767541660E+03  0.82767541660E+03  0.00000000000E+00 0. -1.
         25    2    1    2    0    0  0.27242065095E+02 -0.11154613324E+03  0.28814062899E+02  0.17216323924E+03  0.12500104310E+03 0.  0.
          2    1    1    2  501    0 -0.37502870525E+02  0.16941379252E+02 -0.75210998875E+03  0.75323496388E+03  0.00000000000E+00 0. -1.
          1    1    1    2  502    0  0.10260805430E+02  0.94604753984E+02  0.67683883715E+03  0.68349554138E+03  0.00000000000E+00 0. -1.
         22    1    3    3    0    0  0.24146111943E+02  0.22017581352E+02  0.19914793727E+02  0.38267579224E+02  0.00000000000E+00 0. -1.
         22    1    3    3    0    0  0.30959531519E+01 -0.13356371459E+03  0.88992691725E+01  0.13389566002E+03  0.00000000000E+00 0. -1.
</event>
<event>
 7    1  0.7118985E-006  0.1042489E+03  0.7818608E-02  0.1345294E+00
          2   -1    0    0  502    0  0.00000000000E+00  0.00000000000E+00  0.21393184882E+04  0.21393184882E+04  0.00000000000E+00 0. -1.
          1   -1    0    0  501    0 -0.00000000000E+00 -0.00000000000E+00 -0.10111264163E+03  0.10111264163E+03  0.00000000000E+00 0. -1.
         25    2    1    2    0    0 -0.31096160634E+02 -0.71236246977E+02  0.95639347532E+03  0.96765439221E+03  0.12499987622E+03 0.  0.
          2    1    1    2  501    0 -0.50241970601E+02 -0.17797565142E+02 -0.84684772766E+02  0.10006257879E+03  0.00000000000E+00 0. -1.
          1    1    1    2  502    0  0.81338131234E+02  0.89033812119E+02  0.11664971440E+04  0.11727141588E+04  0.00000000000E+00 0. -1.
         22    1    3    3    0    0 -0.49154263157E+02 -0.75991211763E+02  0.93452843177E+03  0.93890052489E+03  0.00000000000E+00 0. -1.
         22    1    3    3    0    0  0.18058102523E+02  0.47549647854E+01  0.21865043548E+02  0.28753867326E+02  0.00000000000E+00 0. -1.
</event>
<event>
 7    1  0.7118985E-006  0.6014089E+02  0.7818608E-02  0.1531743E+00
          2   -1    0    0  502    0  0.00000000000E+00  0.00000000000E+00  0.23960262693E+04  0.23960262693E+04  0.00000000000E+00 0. -1.
          1   -1    0    0  501    0 -0.00000000000E+00 -0.00000000000E+00 -0.75675257463E+01  0.75675257463E+01  0.00000000000E+00 0. -1.
         25    2    1    2    0    0  0.54914883096E+02 -0.94549366439E+01  0.78691736704E+03  0.79872896166E+03  0.12499588569E+03 0.  0.
          2    1    1    2  501    0  0.47339607772E+01  0.22232182515E+02  0.12409337941E+03  0.12615802447E+03  0.00000000000E+00 0. -1.
          1    1    1    2  502    0 -0.59648843874E+02 -0.12777245872E+02  0.14774479971E+04  0.14787068089E+04  0.00000000000E+00 0. -1.
         22    1    3    3    0    0  0.49337973950E+01 -0.22135781336E+02  0.20475778820E+02  0.30554749064E+02  0.00000000000E+00 0. -1.
         22    1    3    3    0    0  0.49981085701E+02  0.12680844692E+02  0.76644158822E+03  0.76817421260E+03  0.00000000000E+00 0. -1.
</event>
<event>
 7    1  0.7118985E-006  0.4502980E+02  0.7818608E-02  0.1522560E+00
          2   -1    0    0  502    0  0.00000000000E+00  0.00000000000E+00  0.69374388954E+02  0.69374388954E+02  0.00000000000E+00 0. -1.
          1   -1    0    0  501    0 -0.00000000000E+00 -0.00000000000E+00 -0.58910407034E+03  0.58910407034E+03  0.00000000000E+00 0. -1.
         25    2    1    2    0    0 -0.90474708652E+01  0.13103451891E+02 -0.11492031606E+03  0.17054556325E+03  0.12500221166E+03 0.  0.
          2    1    1    2  501    0 -0.11795696346E+02  0.30028303332E+02 -0.43176301921E+03  0.43296667564E+03  0.00000000000E+00 0. -1.
          1    1    1    2  502    0  0.20843167211E+02 -0.43131755223E+02  0.26953653887E+02  0.54966220408E+02  0.00000000000E+00 0. -1.
         22    1    3    3    0    0 -0.27102484685E+02  0.68008420970E+01 -0.13786968515E+03  0.14067283395E+03  0.00000000000E+00 0.  1.
         22    1    3    3    0    0  0.18055013820E+02  0.63026097944E+01  0.22949369087E+02  0.29872729298E+02  0.00000000000E+00 0.  1.
</event>
<event>
 7    1  0.7118985E-006  0.7925632E+02  0.7818608E-02  0.1410920E+00
          2   -1    0    0  502    0  0.00000000000E+00  0.00000000000E+00  0.13357470761E+03  0.13357470761E+03  0.00000000000E+00 0. -1.
          1   -1    0    0  501    0 -0.00000000000E+00 -0.00000000000E+00 -0.87453643453E+03  0.87453643453E+03  0.00000000000E+00 0. -1.
         25    2    1    2    0    0  0.75562399838E+02  0.89103111754E+02 -0.20769627467E+03  0.26909484265E+03  0.12500100414E+03 0.  0.
          2    1    1    2  501    0 -0.45013710324E+02 -0.61790694597E+02 -0.62965446112E+03  0.63427838089E+03  0.00000000000E+00 0. -1.
          1    1    1    2  502    0 -0.30548689514E+02 -0.27312417157E+02  0.96389008867E+02  0.10473791860E+03  0.00000000000E+00 0. -1.
         22    1    3    3    0    0 -0.11724175147E+02 -0.26285432325E+01  0.11062310879E+02  0.16332184311E+02  0.00000000000E+00 0.  1.
         22    1    3    3    0    0  0.87286574985E+02  0.91731654987E+02 -0.21875858555E+03  0.25276265834E+03  0.00000000000E+00 0.  1.
</event>
<event>
 7    1  0.7118985E-006  0.9396320E+02  0.7818608E-02  0.1315094E+00
          2   -1    0    0  502    0  0.00000000000E+00  0.00000000000E+00  0.52471604809E+04  0.52471604809E+04  0.00000000000E+00 0. -1.
          1   -1    0    0  501    0 -0.00000000000E+00 -0.00000000000E+00 -0.39698390600E+03  0.39698390600E+03  0.00000000000E+00 0. -1.
         25    2    1    2    0    0  0.17201213539E+02  0.12273776005E+02  0.55708422715E+02  0.13847327911E+03  0.12499957336E+03 0.  0.
          2    1    1    2  501    0  0.22483010191E+02  0.73776595949E+02 -0.35097811492E+03  0.35935234661E+03  0.00000000000E+00 0. -1.
          1    1    1    2  502    0 -0.39684223730E+02 -0.86050371955E+02  0.51454462671E+04  0.51463187612E+04  0.00000000000E+00 0. -1.
         22    1    3    3    0    0  0.65088067781E+02  0.21350948785E+02  0.57888473645E+02  0.89684976236E+02  0.00000000000E+00 0. -1.
         22    1    3    3    0    0 -0.47886854243E+02 -0.90771727799E+01 -0.21800509296E+01  0.48788302871E+02  0.00000000000E+00 0. -1.
</event>
<event>
 7    1  0.7118985E-006  0.2173357E+03  0.7818608E-02  0.1237321E+00
          2   -1    0    0  502    0  0.00000000000E+00  0.00000000000E+00  0.74514678023E+03  0.74514678023E+03  0.00000000000E+00 0. -1.
          1   -1    0    0  501    0 -0.00000000000E+00 -0.00000000000E+00 -0.39559284879E+03  0.39559284879E+03  0.00000000000E+00 0. -1.
         25    2    1    2    0    0 -0.17102877425E+03  0.56703801538E+01  0.30941005344E+02  0.21415988814E+03  0.12499646813E+03 0.  0.
          2    1    1    2  501    0  0.23142401674E+03 -0.41567834287E+02 -0.25605459560E+03  0.34763330724E+03  0.00000000000E+00 0. -1.
          1    1    1    2  502    0 -0.60395242492E+02  0.35897454134E+02  0.57466752170E+03  0.57894643364E+03  0.00000000000E+00 0. -1.
         22    1    3    3    0    0 -0.18890966397E+03  0.97661186256E+01  0.14824741831E+02  0.18974195947E+03  0.00000000000E+00 0. -1.
         22    1    3    3    0    0  0.17880889719E+02 -0.40957384718E+01  0.16116263513E+02  0.24417928668E+02  0.00000000000E+00 0. -1.
</event>
<event>
 7    1  0.7118985E-006  0.5569090E+02  0.7818608E-02  0.1431642E+00
          2   -1    0    0  502    0  0.00000000000E+00  0.00000000000E+00  0.29390071707E+04  0.29390071707E+04  0.00000000000E+00 0. -1.
          1   -1    0    0  501    0 -0.00000000000E+00 -0.00000000000E+00 -0.15340500020E+02  0.15340500020E+02  0.00000000000E+00 0. -1.
         25    2    1    2    0    0 -0.11097516274E+02  0.10751138788E+01  0.78677363319E+03  0.79672009684E+03  0.12500340835E+03 0.  0.
          2    1    1    2  501    0  0.60168946947E+02 -0.92080773057E+01  0.81950773081E+02  0.10208339764E+03  0.00000000000E+00 0. -1.
          1    1    1    2  502    0 -0.49071430673E+02  0.81329634269E+01  0.20549422644E+04  0.20555441762E+04  0.00000000000E+00 0. -1.
         22    1    3    3    0    0 -0.12714468578E+02 -0.55152304582E+02  0.56866352010E+03  0.57147321329E+03  0.00000000000E+00 0. -1.
         22    1    3    3    0    0  0.16169523037E+01  0.56227418461E+02  0.21811011309E+03  0.22524688356E+03  0.00000000000E+00 0. -1.
</event>
<event>
 7    1  0.7118985E-006  0.1049409E+03  0.7818608E-02  0.1451335E+00
          2   -1    0    0  502    0  0.00000000000E+00  0.00000000000E+00  0.44386869812E+03  0.44386869812E+03  0.00000000000E+00 0. -1.
          1   -1    0    0  501    0 -0.00000000000E+00 -0.00000000000E+00 -0.17919434202E+04  0.17919434202E+04  0.00000000000E+00 0. -1.
         25    2    1    2    0    0  0.15891574302E+02 -0.10877778585E+03 -0.58743949390E+03  0.61056933086E+03  0.12499839982E+03 0.  0.
          2    1    1    2  501    0  0.20324102274E+02  0.10314233428E+02 -0.11864628410E+04  0.11866817288E+04  0.00000000000E+00 0. -1.
          1    1    1    2  502    0 -0.36215676576E+02  0.98463552422E+02  0.42582761276E+03  0.43856105866E+03  0.00000000000E+00 0. -1.
         22    1    3    3    0    0 -0.44638157533E+02 -0.56418618090E+02 -0.40510246548E+03  0.41144092300E+03  0.00000000000E+00 0. -1.
         22    1    3    3    0    0  0.60529731835E+02 -0.52359167760E+02 -0.18233702842E+03  0.19912840786E+03  0.00000000000E+00 0. -1.
</event>
<event>
 7    1  0.7118985E-006  0.1075992E+03  0.7818608E-02  0.1417209E+00
          2   -1    0    0  502    0  0.00000000000E+00  0.00000000000E+00  0.19931227222E+03  0.19931227222E+03  0.00000000000E+00 0. -1.
          1   -1    0    0  501    0 -0.00000000000E+00 -0.00000000000E+00 -0.12181161317E+03  0.12181161317E+03  0.00000000000E+00 0. -1.
         25    2    1    2    0    0  0.22223220214E+02 -0.93818306496E+02  0.72037710416E+02  0.17352469979E+03  0.12500257423E+03 0.  0.
          2    1    1    2  501    0 -0.49982451341E+02  0.10128810346E+03 -0.12598062112E+02  0.11364962170E+03  0.00000000000E+00 0. -1.
          1    1    1    2  502    0  0.27759231126E+02 -0.74697969648E+01  0.18061010753E+02  0.33949563898E+02  0.00000000000E+00 0. -1.
         22    1    3    3    0    0 -0.19958932444E+02  0.14466206267E+02 -0.14531009340E+02  0.28614338023E+02  0.00000000000E+00 0. -1.
         22    1    3    3    0    0  0.42182152658E+02 -0.10828451276E+03  0.86568719756E+02  0.14491036177E+03  0.00000000000E+00 0. -1.
</event>
<event>
 7    1  0.7118985E-006  0.1265676E+03  0.7818608E-02  0.1280803E+00
          2   -1    0    0  502    0  0.00000000000E+00  0.00000000000E+00  0.42883329329E+04  0.42883329329E+04  0.00000000000E+00 0. -1.
          1   -1    0    0  501    0 -0.00000000000E+00 -0.00000000000E+00 -0.17865048073E+02  0.17865048073E+02  0.00000000000E+00 0. -1.
         25    2    1    2    0    0 -0.70032268033E+02  0.13476741230E+03  0.10831480381E+04  0.11008622018E+04  0.12498456245E+03 0.  0.
          2    1    1    2  501    0  0.10419856859E+03 -0.63949393831E+02  0.43393984979E+03  0.45083329502E+03  0.00000000000E+00 0. -1.
          1    1    1    2  502    0 -0.34166300558E+02 -0.70818018474E+02  0.27533799970E+04  0.27545024842E+04  0.00000000000E+00 0. -1.
         22    1    3    3    0    0 -0.54408237664E+02  0.77633919985E+01  0.54252966201E+03  0.54530629993E+03  0.00000000000E+00 0. -1.
         22    1    3    3    0    0 -0.15624030368E+02  0.12700402031E+03  0.54061837609E+03  0.55555590183E+03  0.00000000000E+00 0. -1.
</event>
<event>
 7    1  0.7118985E-006  0.1077071E+03  0.7818608E-02  0.1402883E+00
          2   -1    0    0  502    0  0.00000000000E+00  0.00000000000E+00  0.19763812832E+04  0.19763812832E+04  0.00000000000E+00 0. -1.
          1   -1    0    0  501    0 -0.00000000000E+00 -0.00000000000E+00 -0.11333543294E+03  0.11333543294E+03  0.00000000000E+00 0. -1.
         25    2    1    2    0    0 -0.48278313124E+02 -0.77481068983E+02  0.48293179278E+03  0.50713073853E+03  0.12499743164E+03 0.  0.
          2    1    1    2  501    0  0.15017253502E+02 -0.28386762283E+02 -0.96553771881E+02  0.10175439568E+03  0.00000000000E+00 0. -1.
          1    1    1    2  502    0  0.33261059622E+02  0.10586783127E+03  0.14766678294E+04  0.14808315819E+04  0.00000000000E+00 0. -1.
         22    1    3    3    0    0 -0.86427167598E+02 -0.44089208605E+02  0.38268792999E+03  0.39479559948E+03  0.00000000000E+00 0. -1.
         22    1    3    3    0    0  0.38148854473E+02 -0.33391860378E+02  0.10024386279E+03  0.11233513904E+03  0.00000000000E+00 0. -1.
</event>
<event>
 7    1  0.7118985E-006  0.1013191E+03  0.7818608E-02  0.1366246E+00
          2   -1    0    0  502    0  0.00000000000E+00  0.00000000000E+00  0.80362087872E+02  0.80362087872E+02  0.00000000000E+00 0. -1.
          1   -1    0    0  501    0 -0.00000000000E+00 -0.00000000000E+00 -0.35356568125E+03  0.35356568125E+03  0.00000000000E+00 0. -1.
         25    2    1    2    0    0 -0.35862339017E+02 -0.76672207105E+02 -0.13127119066E+03  0.20005320120E+03  0.12499769243E+03 0.  0.
          2    1    1    2  501    0  0.71536377972E+01  0.11253260483E+03 -0.14956489148E+03  0.18730835125E+03  0.00000000000E+00 0. -1.
          1    1    1    2  502    0  0.28708701219E+02 -0.35860397720E+02  0.76324887667E+01  0.46566216672E+02  0.00000000000E+00 0. -1.
         22    1    3    3    0    0 -0.59765730351E+02 -0.15365566530E+02 -0.11765689610E+03  0.13285777493E+03  0.00000000000E+00 0. -1.
         22    1    3    3    0    0  0.23903391335E+02 -0.61306640575E+02 -0.13614294564E+02  0.67195426276E+02  0.00000000000E+00 0. -1.
</event>
<event>
 7    1  0.7118985E-006  0.4879983E+02  0.7818608E-02  0.1501510E+00
          2   -1    0    0  502    0  0.00000000000E+00  0.00000000000E+00  0.21799522498E+02  0.21799522498E+02  0.00000000000E+00 0. -1.
          1   -1    0    0  501    0 -0.00000000000E+00 -0.00000000000E+00 -0.13455388103E+04  0.13455388103E+04  0.00000000000E+00 0. -1.
         25    2    1    2    0    0  0.20071186640E+01  0.26836567938E+02 -0.71668618326E+03  0.72800348218E+03  0.12500301946E+03 0.  0.
          2    1    1    2  501    0  0.33020680107E+02  0.93598757329E+01 -0.58212149436E+03  0.58313240931E+03  0.00000000000E+00 0. -1.
          1    1    1    2  502    0 -0.35027798771E+02 -0.36196443671E+02 -0.24931610139E+02  0.56202441275E+02  0.00000000000E+00 0. -1.
         22    1    3    3    0    0  0.14626916701E+02 -0.46551726534E+02 -0.38384249761E+03  0.38693161270E+03  0.00000000000E+00 0.  1.
         22    1    3    3    0    0 -0.12619798037E+02  0.73388294472E+02 -0.33284368565E+03  0.34107186948E+03  0.00000000000E+00 0.  1.
</event>
<event>
 7    1  0.7118985E-006  0.1419477E+03  0.7818608E-02  0.1390672E+00
          2   -1    0    0  502    0  0.00000000000E+00  0.00000000000E+00  0.92119183140E+03  0.92119183140E+03  0.00000000000E+00 0. -1.
          1   -1    0    0  501    0 -0.00000000000E+00 -0.00000000000E+00 -0.16031311075E+03  0.16031311075E+03  0.00000000000E+00 0. -1.
         25    2    1    2    0    0  0.11360419992E+03  0.52891508998E+02  0.15042135874E+03  0.23227584068E+03  0.12498821959E+03 0.  0.
          2    1    1    2  501    0 -0.13910025540E+03 -0.44461101096E+02 -0.74367046812E+02  0.16387839460E+03  0.00000000000E+00 0. -1.
          1    1    1    2  502    0  0.25496055486E+02 -0.84304079020E+01  0.68482440872E+03  0.68535070687E+03  0.00000000000E+00 0. -1.
         22    1    3    3    0    0  0.66252712928E+02  0.90621999181E+02  0.12068181157E+03  0.16482071578E+03  0.00000000000E+00 0.  1.
         22    1    3    3    0    0  0.47351486989E+02 -0.37730490184E+02  0.29739547168E+02  0.67455124901E+02  0.00000000000E+00 0.  1.
</event>
<event>
 7    1  0.7118985E-006  0.1262170E+03  0.7818608E-02  0.1360508E+00
          2   -1    0    0  502    0  0.00000000000E+00  0.00000000000E+00  0.93798604519E+03  0.93798604519E+03  0.00000000000E+00 0. -1.
          1   -1    0    0  501    0 -0.00000000000E+00 -0.00000000000E+00 -0.59260230208E+03  0.59260230208E+03  0.00000000000E+00 0. -1.
         25    2    1    2    0    0 -0.12312452295E+03 -0.47683423411E+02  0.25094887764E+03  0.30989442318E+03  0.12500342918E+03 0.  0.
          2    1    1    2  501    0  0.24113242269E+02 -0.30252940669E+02 -0.55641528965E+03  0.55775860677E+03  0.00000000000E+00 0. -1.
          1    1    1    2  502    0  0.99011280682E+02  0.77936364080E+02  0.65085015511E+03  0.66293531733E+03  0.00000000000E+00 0. -1.
         22    1    3    3    0    0 -0.54869419212E+00 -0.58606878841E+02  0.75131809378E+02  0.95288278887E+02  0.00000000000E+00 0.  1.
         22    1    3    3    0    0 -0.12257582876E+03  0.10923455430E+02  0.17581706827E+03  0.21460614429E+03  0.00000000000E+00 0.  1.
</event>
<event>
 7    1  0.7118985E-006  0.6118860E+02  0.7818608E-02  0.1539275E+00
          2   -1    0    0  502    0  0.00000000000E+00  0.00000000000E+00  0.13763826464E+04  0.13763826464E+04  0.00000000000E+00 0. -1.
          1   -1    0    0  501    0 -0.00000000000E+00 -0.00000000000E+00 -0.81074775327E+03  0.81074775327E+03  0.00000000000E+00 0. -1.
         25    2    1    2    0    0 -0.74541501128E+02 -0.17646923173E+02  0.22238776162E+02  0.14828236900E+03  0.12500099401E+03 0.  0.
          2    1    1    2  501    0  0.13522392567E+02  0.16413272275E+02 -0.74685327413E+03  0.74715598350E+03  0.00000000000E+00 0. -1.
          1    1    1    2  502    0  0.61019108562E+02  0.12336508981E+01  0.12902493911E+04  0.12916920472E+04  0.00000000000E+00 0. -1.
         22    1    3    3    0    0  0.40295238876E+01  0.45524122141E+02  0.45814711234E+01  0.45931172825E+02  0.00000000000E+00 0. -1.
         22    1    3    3    0    0 -0.78571025016E+02 -0.63171045313E+02  0.17657305039E+02  0.10235119618E+03  0.00000000000E+00 0. -1.
</event>
<event>
 7    1  0.7118985E-006  0.7278481E+02  0.7818608E-02  0.1416544E+00
          2   -1    0    0  502    0  0.00000000000E+00  0.00000000000E+00  0.12477224714E+04  0.12477224714E+04  0.00000000000E+00 0. -1.
          1   -1    0    0  501    0 -0.00000000000E+00 -0.00000000000E+00 -0.16264949026E+04  0.16264949026E+04  0.00000000000E+00 0. -1.
         25    2    1    2    0    0  0.24548976189E+02 -0.69546862518E+02 -0.75075095523E+02  0.16340284395E+03  0.12499920449E+03 0.  0.
          2    1    1    2  501    0  0.33897725960E+02  0.25991881432E+02 -0.15058491783E+04  0.15064549052E+04  0.00000000000E+00 0. -1.
          1    1    1    2  502    0 -0.58446702150E+02  0.43554981086E+02  0.12021518426E+04  0.12043596248E+04  0.00000000000E+00 0. -1.
         22    1    3    3    0    0 -0.31339913401E+02 -0.82075067900E+02 -0.46059970433E+02  0.99196914362E+02  0.00000000000E+00 0.  1.
         22    1    3    3    0    0  0.55888889590E+02  0.12528205382E+02 -0.29015125090E+02  0.64205929584E+02  0.00000000000E+00 0.  1.
</event>
<event>
 7    1  0.7118985E-006  0.5796226E+02  0.7818608E-02  0.1526143E+00
          2   -1    0    0  502    0  0.00000000000E+00  0.00000000000E+00  0.95374606980E+03  0.95374606980E+03  0.00000000000E+00 0. -1.
          1   -1    0    0  501    0 -0.00000000000E+00 -0.00000000000E+00 -0.10633502922E+04  0.10633502922E+04  0.00000000000E+00 0. -1.
         25    2    1    2    0    0  0.33649677428E+02  0.45719158927E+01  0.85697822791E+03  0.86671172933E+03  0.12499734172E+03 0.  0.
          2    1    1    2  501    0 -0.56320619238E+02 -0.13791287809E+02 -0.10560445882E+04  0.10576352793E+04  0.00000000000E+00 0. -1.
          1    1    1    2  502    0  0.22670941810E+02  0.92193719164E+01  0.89462137930E+02  0.92749353335E+02  0.00000000000E+00 0. -1.
         22    1    3    3    0    0  0.41333643441E+02  0.59501861903E+02  0.41637157618E+03  0.42262776897E+03  0.00000000000E+00 0. -1.
         22    1    3    3    0    0 -0.76839660136E+01 -0.54929946011E+02  0.44060665173E+03  0.44408396036E+03  0.00000000000E+00 0. -1.
</event>
<event>
 7    1  0.7118985E-006  0.6982114E+02  0.7818608E-02  0.1397090E+00
          2   -1    0    0  502    0  0.00000000000E+00  0.00000000000E+00  0.17079410830E+03  0.17079410830E+03  0.00000000000E+00 0. -1.
          1   -1    0    0  501    0 -0.00000000000E+00 -0.00000000000E+00 -0.45620639426E+03  0.45620639426E+03  0.00000000000E+00 0. -1.
         25    2    1    2    0    0 -0.58885202112E+02  0.85613871975E+01 -0.30764075746E+02  0.14181868567E+03  0.12500138747E+03 0.  0.
          2    1    1    2  501    0  0.56987064255E+02  0.43269219674E+02 -0.36037974922E+03  0.36741436350E+03  0.00000000000E+00 0. -1.
          1    1    1    2  502    0  0.18981378575E+01 -0.51830606872E+02  0.10573153901E+03  0.11776745339E+03  0.00000000000E+00 0. -1.
         22    1    3    3    0    0 -0.97385287182E+02 -0.24744222323E+01 -0.14067465470E+02  0.98427183794E+02  0.00000000000E+00 0.  1.
         22    1    3    3    0    0  0.38500085070E+02  0.11035809430E+02 -0.16696610276E+02  0.43391501874E+02  0.00000000000E+00 0.  1.
</event>
<event>
 7    1  0.7118985E-006  0.6797403E+02  0.7818608E-02  0.1393616E+00
          2   -1    0    0  502    0  0.00000000000E+00  0.00000000000E+00  0.46278416033E+03  0.46278416033E+03  0.00000000000E+00 0. -1.
          1   -1    0    0  501    0 -0.00000000000E+00 -0.00000000000E+00 -0.11068490983E+04  0.11068490983E+04  0.00000000000E+00 0. -1.
         25    2    1    2    0    0  0.24964236419E+02  0.60847468204E+02 -0.42152882189E+03  0.44456455684E+03  0.12500188009E+03 0.  0.
          2    1    1    2  501    0 -0.54768999700E+02  0.40319612313E+00 -0.67010821541E+03  0.67234278925E+03  0.00000000000E+00 0. -1.
          1    1    1    2  502    0  0.29804763281E+02 -0.61250664327E+02  0.44757209933E+03  0.45272591254E+03  0.00000000000E+00 0. -1.
         22    1    3    3    0    0  0.47302577374E+02  0.24044825714E+01 -0.33187405122E+03  0.33523678384E+03  0.00000000000E+00 0.  1.
         22    1    3    3    0    0 -0.22338340955E+02  0.58442985633E+02 -0.89654770668E+02  0.10932777300E+03  0.00000000000E+00 0.  1.
</event>
<event>
 7    1  0.7118985E-006  0.7255641E+02  0.7818608E-02  0.1447423E+00
          2   -1    0    0  502    0  0.00000000000E+00  0.00000000000E+00  0.99622058988E+03  0.99622058988E+03  0.00000000000E+00 0. -1.
          1   -1    0    0  501    0 -0.00000000000E+00 -0.00000000000E+00 -0.93443752996E+03  0.93443752996E+03  0.00000000000E+00 0. -1.
         25    2    1    2    0    0  0.70274392729E+01 -0.97034805765E+02  0.54102388485E+01  0.15849126058E+03  0.12500028225E+03 0.  0.
          2    1    1    2  501    0  0.14384200495E+02  0.70715267414E+02 -0.85606362255E+03  0.85909980801E+03  0.00000000000E+00 0. -1.
          1    1    1    2  502    0 -0.21411639768E+02  0.26319538350E+02  0.91243644363E+03  0.91306705125E+03  0.00000000000E+00 0. -1.
         22    1    3    3    0    0 -0.74042139713E+01 -0.61340479043E+02  0.63630240810E+02  0.88692075742E+02  0.00000000000E+00 0.  1.
         22    1    3    3    0    0  0.14431653244E+02 -0.35694326721E+02 -0.58220001962E+02  0.69799184837E+02  0.00000000000E+00 0.  1.
</event>
<event>
 7    1  0.7118985E-006  0.8887602E+02  0.7818608E-02  0.1394187E+00
          2   -1    0    0  502    0  0.00000000000E+00  0.00000000000E+00  0.27196223475E+04  0.27196223475E+04  0.00000000000E+00 0. -1.
          1   -1    0    0  501    0 -0.00000000000E+00 -0.00000000000E+00 -0.21744220619E+02  0.21744220619E+02  0.00000000000E+00 0. -1.
         25    2    1    2    0    0 -0.23421856663E+02 -0.76731445390E+02  0.18305436914E+04  0.18365597165E+04  0.12500035293E+03 0.  0.
          2    1    1    2  501    0 -0.16617146161E+02  0.88379926490E+02  0.93063619733E+02  0.12941398020E+03  0.00000000000E+00 0. -1.
          1    1    1    2  502    0  0.40039002825E+02 -0.11648481100E+02  0.77427081576E+03  0.77539287139E+03  0.00000000000E+00 0. -1.
         22    1    3    3    0    0 -0.42154277262E+02 -0.85324334565E+02  0.77591753492E+03  0.78173220872E+03  0.00000000000E+00 0. -1.
         22    1    3    3    0    0  0.18732420599E+02  0.85928891753E+01  0.10546261564E+04  0.10548275078E+04  0.00000000000E+00 0. -1.
</event>
<event>
 7    1  0.7118985E-006  0.1601868E+03  0.7818608E-02  0.1295479E+00
          2   -1    0    0  502    0  0.00000000000E+00  0.00000000000E+00  0.16084179668E+03  0.16084179668E+03  0.00000000000E+00 0. -1.
          1   -1    0    0  501    0 -0.00000000000E+00 -0.00000000000E+00 -0.23252157601E+04  0.23252157601E+04  0.00000000000E+00 0. -1.
         25    2    1    2    0    0  0.98612359712E+02  0.15027761232E+03 -0.15988913439E+04  0.16138110836E+04  0.12499970304E+03 0.  0.
          2    1    1    2  501    0 -0.10632115034E+03 -0.96702800729E+02 -0.70661919535E+03  0.72108689207E+03  0.00000000000E+00 0. -1.
          1    1    1    2  502    0  0.77087906274E+01 -0.53574811591E+02  0.14113657588E+03  0.15115958104E+03  0.00000000000E+00 0. -1.
         22    1    3    3    0    0  0.22830516913E+01 -0.21522495006E+02 -0.13375221474E+03  0.13549201107E+03  0.00000000000E+00 0.  1.
         22    1    3    3    0    0  0.96329308020E+02  0.17180010733E+03 -0.14651391292E+04  0.14783190726E+04  0.00000000000E+00 0.  1.
</event>
<event>
 7    1  0.7118985E-006  0.8017838E+02  0.7818608E-02  0.1424434E+00
          2   -1    0    0  502    0  0.00000000000E+00  0.00000000000E+00  0.19545431313E+03  0.19545431313E+03  0.00000000000E+00 0. -1.
          1   -1    0    0  501    0 -0.00000000000E+00 -0.00000000000E+00 -0.78763711900E+03  0.78763711900E+03  0.00000000000E+00 0. -1.
         25    2    1    2    0    0  0.73953826455E+02  0.38925377505E+02 -0.23270039920E+03  0.27705489995E+03  0.12500235331E+03 0.  0.
          2    1    1    2  501    0  0.63356693418E+01 -0.35941132783E+02 -0.52277541908E+03  0.52404775024E+03  0.00000000000E+00 0. -1.
          1    1    1    2  502    0 -0.80289495797E+02 -0.29842447220E+01  0.16329301241E+03  0.18198878195E+03  0.00000000000E+00 0. -1.
         22    1    3    3    0    0 -0.58000520969E+01  0.61928036559E+02 -0.13644341086E+03  0.14995174785E+03  0.00000000000E+00 0. -1.
         22    1    3    3    0    0  0.79753878552E+02 -0.23002659053E+02 -0.96256988349E+02  0.12710315210E+03  0.00000000000E+00 0. -1.
</event>
<event>
 7    1  0.7118985E-006  0.1354858E+03  0.7818608E-02  0.1264940E+00
          2   -1    0    0  502    0  0.00000000000E+00  0.00000000000E+00  0.10206606841E+04  0.10206606841E+04  0.00000000000E+00 0. -1.
          1   -1    0    0  501    0 -0.00000000000E+00 -0.00000000000E+00 -0.20231632790E+03  0.20231632790E+03  0.00000000000E+00 0. -1.
         25    2    1    2    0    0 -0.11017915765E+02 -0.68979958687E+02  0.12937988333E+03  0.19298410613E+03  0.12499632730E+03 0.  0.
          2    1    1    2  501    0 -0.55449906397E+02 -0.65173434433E+02 -0.15274017621E+03  0.17507664065E+03  0.00000000000E+00 0. -1.
          1    1    1    2  502    0  0.66467822162E+02  0.13415339312E+03  0.84170464910E+03  0.85491626525E+03  0.00000000000E+00 0. -1.
         22    1    3    3    0    0  0.50375238816E+02 -0.20157029234E+02  0.90302343251E+02  0.10534934129E+03  0.00000000000E+00 0.  1.
         22    1    3    3    0    0 -0.61393154581E+02 -0.48822929454E+02  0.39077540084E+02  0.87634764842E+02  0.00000000000E+00 0.  1.
</event>
<event>
 7    1  0.7118985E-006  0.5207631E+03  0.7818608E-02  0.1051582E+00
          2   -1    0    0  502    0  0.00000000000E+00  0.00000000000E+00  0.16427409060E+04  0.16427409060E+04  0.00000000000E+00 0. -1.
          1   -1    0    0  501    0 -0.00000000000E+00 -0.00000000000E+00 -0.24659418632E+04  0.24659418632E+04  0.00000000000E+00 0. -1.
         25    2    1    2    0    0  0.11576509463E+02  0.39945623715E+03  0.19686279270E+03  0.46268680993E+03  0.12499929587E+03 0.  0.
          2    1    1    2  501    0  0.25299775607E+03 -0.47349223373E+03 -0.22872302179E+04  0.23493881820E+04  0.00000000000E+00 0. -1.
          1    1    1    2  502    0 -0.26457426553E+03  0.74035996580E+02  0.12671664679E+04  0.12966077773E+04  0.00000000000E+00 0. -1.
         22    1    3    3    0    0  0.28557479207E+02  0.39057284870E+03  0.20481165051E+03  0.44193946638E+03  0.00000000000E+00 0.  1.
         22    1    3    3    0    0 -0.16980969745E+02  0.88833884467E+01 -0.79488578145E+01  0.20747343549E+02  0.00000000000E+00 0.  1.
</event>
<event>
 7    1  0.7118985E-006  0.1368651E+03  0.7818608E-02  0.1285400E+00
          2   -1    0    0  502    0  0.00000000000E+00  0.00000000000E+00  0.68359764194E+03  0.68359764194E+03  0.00000000000E+00 0. -1.
          1   -1    0    0  501    0 -0.00000000000E+00 -0.00000000000E+00 -0.13991516631E+04  0.13991516631E+04  0.00000000000E+00 0. -1.
         25    2    1    2    0    0 -0.73706819841E+02 -0.16680372421E+03  0.40563779331E+02  0.22477990216E+03  0.12499762606E+03 0.  0.
          2    1    1    2  501    0  0.11569117564E+02  0.13541307507E+03 -0.13012912666E+04  0.13083690252E+04  0.00000000000E+00 0. -1.
          1    1    1    2  502    0  0.62137702277E+02  0.31390649141E+02  0.54517346620E+03  0.54960037768E+03  0.00000000000E+00 0. -1.
         22    1    3    3    0    0 -0.83824888730E+02 -0.39360210248E+02  0.86277540476E+01  0.93006861367E+02  0.00000000000E+00 0.  1.
         22    1    3    3    0    0  0.10118068889E+02 -0.12744351396E+03  0.31936025283E+02  0.13177304079E+03  0.00000000000E+00 0.  1.
</event>
<event>
 7    1  0.7118985E-006  0.3873269E+02  0.7818608E-02  0.1532693E+00
          2   -1    0    0  502    0  0.00000000000E+00  0.00000000000E+00  0.35796198405E+03  0.35796198405E+03  0.00000000000E+00 0. -1.
          1   -1    0    0  501    0 -0.00000000000E+00 -0.00000000000E+00 -0.70105654863E+03  0.70105654863E+03  0.00000000000E+00 0. -1.
         25    2    1    2    0    0 -0.30967495170E+02 -0.66431410859E+02 -0.73778440281E+02  0.16260864633E+03  0.12500478193E+03 0.  0.
          2    1    1    2  501    0  0.15314179478E+02  0.35043955808E+02 -0.58125176735E+03  0.58250855786E+03  0.00000000000E+00 0. -1.
          1    1    1    2  502    0  0.15653315692E+02  0.31387455051E+02  0.31193564305E+03  0.31390132850E+03  0.00000000000E+00 0. -1.
         22    1    3    3    0    0  0.10616506194E+02 -0.61102325301E+02 -0.96661408173E+02  0.11484612397E+03  0.00000000000E+00 0. -1.
         22    1    3    3    0    0 -0.41584001364E+02 -0.53290855577E+01  0.22882967892E+02  0.47762522357E+02  0.00000000000E+00 0. -1.
</event>
<event>
 7    1  0.7118985E-006  0.4097863E+03  0.7818608E-02  0.1134637E+00
          2   -1    0    0  502    0  0.00000000000E+00  0.00000000000E+00  0.68082046585E+03  0.68082046585E+03  0.00000000000E+00 0. -1.
          1   -1    0    0  501    0 -0.00000000000E+00 -0.00000000000E+00 -0.26075055701E+04  0.26075055701E+04  0.00000000000E+00 0. -1.
         25    2    1    2    0    0 -0.40047168985E+03 -0.35352229093E+02 -0.12679086564E+03  0.43969093615E+03  0.12499936498E+03 0.  0.
          2    1    1    2  501    0  0.13344009572E+02 -0.11626702273E+03 -0.22400851037E+04  0.22431400659E+04  0.00000000000E+00 0. -1.
          1    1    1    2  502    0  0.38712768028E+03  0.15161925182E+03  0.44019086514E+03  0.60549503393E+03  0.00000000000E+00 0. -1.
         22    1    3    3    0    0 -0.17587128007E+03 -0.38740769840E+02  0.32915487997E+01  0.18011770789E+03  0.00000000000E+00 0.  1.
         22    1    3    3    0    0 -0.22460040978E+03  0.33885407474E+01 -0.13008241444E+03  0.25957322826E+03  0.00000000000E+00 0.  1.
</event>
<event>
 7    1  0.7118985E-006  0.1932551E+03  0.7818608E-02  0.1210413E+00
          2   -1    0    0  502    0  0.00000000000E+00  0.00000000000E+00  0.18528590003E+04  0.18528590003E+04  0.00000000000E+00 0. -1.
          1   -1    0    0  501    0 -0.00000000000E+00 -0.00000000000E+00 -0.42083613418E+03  0.42083613418E+03  0.00000000000E+00 0. -1.
         25    2    1    2    0    0  0.18559038025E+02 -0.42847486826E+02 -0.11087823754E+03  0.17348827409E+03  0.12499541058E+03 0.  0.
          2    1    1    2  501    0 -0.20616618702E+03 -0.35323746707E+01 -0.23453950269E+03  0.31229113446E+03  0.00000000000E+00 0. -1.
          1    1    1    2  502    0  0.18760714900E+03  0.46379861497E+02  0.17774406063E+04  0.17879157259E+04  0.00000000000E+00 0. -1.
         22    1    3    3    0    0 -0.30278564947E+02 -0.69706512601E+02 -0.77383737658E+02  0.10846212356E+03  0.00000000000E+00 0. -1.
         22    1    3    3    0    0  0.48837602971E+02  0.26859025775E+02 -0.33494499887E+02  0.65026150526E+02  0.00000000000E+00 0. -1.
</event>
<event>
 7    1  0.7118985E-006  0.1135786E+03  0.7818608E-02  0.1288462E+00
          2   -1    0    0  502    0  0.00000000000E+00  0.00000000000E+00  0.68808532966E+02  0.68808532966E+02  0.00000000000E+00 0. -1.
          1   -1    0    0  501    0 -0.00000000000E+00 -0.00000000000E+00 -0.79045885962E+03  0.79045885962E+03  0.00000000000E+00 0. -1.
         25    2    1    2    0    0  0.41943477471E+02 -0.12851327620E+03 -0.54372877086E+03  0.57405530210E+03  0.12499438446E+03 0.  0.
          2    1    1    2  501    0  0.34099065880E+02  0.99173153114E+02 -0.17455543898E+03  0.20363610159E+03  0.00000000000E+00 0. -1.
          1    1    1    2  502    0 -0.76042543351E+02  0.29340123091E+02 -0.33661168164E+01  0.81575988898E+02  0.00000000000E+00 0. -1.
         22    1    3    3    0    0 -0.40130873839E+02 -0.20882616361E+02 -0.92617922577E+02  0.10307594425E+03  0.00000000000E+00 0. -1.
         22    1    3    3    0    0  0.82074351310E+02 -0.10763065984E+03 -0.45111084828E+03  0.47097935785E+03  0.00000000000E+00 0. -1.
</event>
<event>
 7    1  0.7118985E-006  0.3649629E+02  0.7818608E-02  0.1594010E+00
          2   -1    0    0  502    0  0.00000000000E+00  0.00000000000E+00  0.50529677717E+02  0.50529677717E+02  0.00000000000E+00 0. -1.
          1   -1    0    0  501    0 -0.00000000000E+00 -0.00000000000E+00 -0.88853096304E+03  0.88853096304E+03  0.00000000000E+00 0. -1.
         25    2    1    2    0    0 -0.58804311905E+02  0.11405669186E+02 -0.29577657591E+03  0.32664648833E+03  0.12500443631E+03 0.  0.
          2    1    1    2  501    0  0.33539977768E+02 -0.12166670271E+02 -0.57213951390E+03  0.57325088865E+03  0.00000000000E+00 0. -1.
          1    1    1    2  502    0  0.25264334137E+02  0.76100108505E+00  0.29914804484E+02  0.39163263773E+02  0.00000000000E+00 0. -1.
         22    1    3    3    0    0 -0.64090714547E+02  0.13473689115E+02 -0.30708622020E+03  0.31399220790E+03  0.00000000000E+00 0. -1.
         22    1    3    3    0    0  0.52864026426E+01 -0.20680199296E+01  0.11309644288E+02  0.12654280432E+02  0.00000000000E+00 0. -1.
</event>
<event>
 7    1  0.7118985E-006  0.7342067E+02  0.7818608E-02  0.1403683E+00
          2   -1    0    0  502    0  0.00000000000E+00  0.00000000000E+00  0.98552916817E+03  0.98552916817E+03  0.00000000000E+00 0. -1.
          1   -1    0    0  501    0 -0.00000000000E+00 -0.00000000000E+00 -0.40533459257E+03  0.40533459257E+03  0.00000000000E+00 0. -1.
         25    2    1    2    0    0  0.31465205308E+02  0.47678048146E+02 -0.34773005832E+02  0.14175452996E+03  0.12498771704E+03 0.  0.
          2    1    1    2  501    0 -0.39039672165E+02  0.25836899930E+02 -0.31386699640E+03  0.31733914481E+03  0.00000000000E+00 0. -1.
          1    1    1    2  502    0  0.75744668571E+01 -0.73514948075E+02  0.92883457783E+03  0.93177008597E+03  0.00000000000E+00 0. -1.
         22    1    3    3    0    0 -0.76409925704E+01 -0.40229302009E+02 -0.64059045594E+01  0.41446557406E+02  0.00000000000E+00 0.  1.
         22    1    3    3    0    0  0.39106197879E+02  0.87907350155E+02 -0.28367101273E+02  0.10030797256E+03  0.00000000000E+00 0.  1.
</event>
<event>
 7    1  0.7118985E-006  0.1532736E+03  0.7818608E-02  0.1275400E+00
          2   -1    0    0  502    0  0.00000000000E+00  0.00000000000E+00  0.73934148907E+03  0.73934148907E+03  0.00000000000E+00 0. -1.
          1   -1    0    0  501    0 -0.00000000000E+00 -0.00000000000E+00 -0.18677816961E+04  0.18677816961E+04  0.00000000000E+00 0. -1.
         25    2    1    2    0    0 -0.18606711715E+03  0.33508332815E+02 -0.13811795994E+04  0.13996525151E+04  0.12500518760E+03 0.  0.
          2    1    1    2  501    0  0.12270181720E+03 -0.78436989330E+01 -0.46780368722E+03  0.48369158493E+03  0.00000000000E+00 0. -1.
          1    1    1    2  502    0  0.63365299945E+02 -0.25664633882E+02  0.72054307952E+03  0.72377908516E+03  0.00000000000E+00 0. -1.
         22    1    3    3    0    0 -0.12778007194E+03  0.21846323974E+02 -0.12359367541E+04  0.12427166486E+04  0.00000000000E+00 0. -1.
         22    1    3    3    0    0 -0.58287045205E+02  0.11662008841E+02 -0.14524284526E+03  0.15693586648E+03  0.00000000000E+00 0. -1.
</event>
<event>
 7    1  0.7118985E-006  0.2020544E+03  0.7818608E-02  0.1273011E+00
          2   -1    0    0  502    0  0.00000000000E+00  0.00000000000E+00  0.16782970379E+04  0.16782970379E+04  0.00000000000E+00 0. -1.
          1   -1    0    0  501    0 -0.00000000000E+00 -0.00000000000E+00 -0.27865045649E+03  0.27865045649E+03  0.00000000000E+00 0. -1.
         25    2    1    2    0    0  0.66456779593E+02 -0.17143374656E+03  0.90948953921E+03  0.93626998568E+03  0.12499692454E+03 0.  0.
          2    1    1    2  501    0  0.46940603624E+02 -0.24745761590E+02 -0.24536766093E+03  0.25103996100E+03  0.00000000000E+00 0. -1.
          1    1    1    2  502    0 -0.11339738322E+03  0.19617950815E+03  0.73552470315E+03  0.76963754773E+03  0.00000000000E+00 0. -1.
         22    1    3    3    0    0  0.23261723679E+02 -0.93782893628E+02  0.72595629179E+03  0.73235843445E+03  0.00000000000E+00 0.  1.
         22    1    3    3    0    0  0.43195055915E+02 -0.77650852927E+02  0.18353324742E+03  0.20391155123E+03  0.00000000000E+00 0.  1.
</event>
<event>
 7    1  0.7118985E-006  0.7466692E+02  0.7818608E-02  0.1507228E+00
          2   -1    0    0  502    0  0.00000000000E+00  0.00000000000E+00  0.11916437675E+03  0.11916437675E+03  0.00000000000E+00 0. -1.
          1   -1    0    0  501    0 -0.00000000000E+00 -0.00000000000E+00 -0.12953458989E+04  0.12953458989E+04  0.00000000000E+00 0. -1.
         25    2    1    2    0    0  0.80731179780E+02 -0.32450657094E+02 -0.67842926251E+02  0.16673712084E+03  0.12501214457E+03 0.  0.
          2    1    1    2  501    0 -0.61408255676E+02  0.42041603603E+02 -0.11751814353E+04  0.11775355095E+04  0.00000000000E+00 0. -1.
          1    1    1    2  502    0 -0.19322924104E+02 -0.95909465088E+01  0.66842839351E+02  0.70237645343E+02  0.00000000000E+00 0. -1.
         22    1    3    3    0    0 -0.30609237869E+02 -0.12381931344E+02  0.31565425928E+01  0.33169284404E+02  0.00000000000E+00 0. -1.
         22    1    3    3    0    0  0.11134041765E+03 -0.20068725750E+02 -0.70999468844E+02  0.13356783644E+03  0.00000000000E+00 0. -1.
</event>
<event>
 7    1  0.7118985E-006  0.7994394E+02  0.7818608E-02  0.1406090E+00
          2   -1    0    0  502    0  0.00000000000E+00  0.00000000000E+00  0.83570971094E+03  0.83570971094E+03  0.00000000000E+00 0. -1.
          1   -1    0    0  501    0 -0.00000000000E+00 -0.00000000000E+00 -0.12745862799E+04  0.12745862799E+04  0.00000000000E+00 0. -1.
         25    2    1    2    0    0 -0.54858979683E+02  0.31767067149E+02 -0.16741772384E+03  0.21833848717E+03  0.12499738604E+03 0.  0.
          2    1    1    2  501    0 -0.25326457417E+02 -0.33741439631E+02 -0.10793099723E+04  0.10801342187E+04  0.00000000000E+00 0. -1.
          1    1    1    2  502    0  0.80185437100E+02  0.19743724818E+01  0.80785112712E+03  0.81182328499E+03  0.00000000000E+00 0. -1.
         22    1    3    3    0    0 -0.76497074792E+02 -0.15252417452E+02 -0.13874330458E+03  0.15916702943E+03  0.00000000000E+00 0.  1.
         22    1    3    3    0    0  0.21638095109E+02  0.47019484600E+02 -0.28674419254E+02  0.59171457744E+02  0.00000000000E+00 0.  1.
</event>
<event>
 7    1  0.7118985E-006  0.9347382E+02  0.7818608E-02  0.1315492E+00
          2   -1    0    0  502    0  0.00000000000E+00  0.00000000000E+00  0.34777726222E+03  0.34777726222E+03  0.00000000000E+00 0. -1.
          1   -1    0    0  501    0 -0.00000000000E+00 -0.00000000000E+00 -0.45308281060E+03  0.45308281060E+03  0.00000000000E+00 0. -1.
         25    2    1    2    0    0  0.77603020779E+02 -0.13947650970E+03 -0.56088056968E+02  0.21034538488E+03  0.12499354069E+03 0.  0.
          2    1    1    2  501    0 -0.13760781831E+02  0.76017503811E+02 -0.30746860294E+03  0.31702517534E+03  0.00000000000E+00 0. -1.
          1    1    1    2  502    0 -0.63842238948E+02  0.63459005886E+02  0.25825111153E+03  0.27348951261E+03  0.00000000000E+00 0. -1.
         22    1    3    3    0    0  0.42636948094E+02 -0.16779384327E+02 -0.68229149360E+02  0.82186823174E+02  0.00000000000E+00 0. -1.
         22    1    3    3    0    0  0.34966072685E+02 -0.12269712537E+03  0.12141092391E+02  0.12815856170E+03  0.00000000000E+00 0. -1.
</event>
<event>
 7    1  0.7118985E-006  0.7887577E+02  0.7818608E-02  0.1504816E+00
          2   -1    0    0  502    0  0.00000000000E+00  0.00000000000E+00  0.14099029622E+04  0.14099029622E+04  0.00000000000E+00 0. -1.
          1   -1    0    0  501    0 -0.00000000000E+00 -0.00000000000E+00 -0.99161199701E+02  0.99161199701E+02  0.00000000000E+00 0. -1.
         25    2    1    2    0    0 -0.74700998669E+02  0.46739774833E+02  0.11172313424E+04  0.11276503805E+04  0.12499864987E+03 0.  0.
          2    1    1    2  501    0  0.55885978698E+02 -0.55512327083E+02 -0.76972966919E+02  0.11013491140E+03  0.00000000000E+00 0. -1.
          1    1    1    2  502    0  0.18815019971E+02  0.87725522501E+01  0.27048338698E+03  0.27127886995E+03  0.00000000000E+00 0. -1.
         22    1    3    3    0    0 -0.76377306658E+02 -0.13863682794E+01  0.32100357471E+03  0.32996774079E+03  0.00000000000E+00 0.  1.
         22    1    3    3    0    0  0.16763079897E+01  0.48126143112E+02  0.79622776768E+03  0.79768263970E+03  0.00000000000E+00 0.  1.
</event>
<event>
 7    1  0.9332470E-006  0.8691652E+02  0.7818608E-02  0.1369255E+00
          2   -1    0    0  502    0  0.00000000000E+00  0.00000000000E+00  0.15097958442E+04  0.15097958442E+04  0.00000000000E+00 0. -1.
          1   -1    0    0  501    0 -0.00000000000E+00 -0.00000000000E+00 -0.10913962034E+04  0.10913962034E+04  0.00000000000E+00 0. -1.
         25    2    1    2    0    0 -0.11647767375E+03 -0.68556995885E+01 -0.10222506931E+03  0.19921592237E+03  0.12499187906E+03 0.  0.
          2    1    1    2  501    0  0.80378600212E+02 -0.30886428080E+02 -0.93823688094E+03  0.94217999107E+03  0.00000000000E+00 0. -1.
          1    1    1    2  502    0  0.36099073538E+02  0.37742127668E+02  0.14588615911E+04  0.14597961341E+04  0.00000000000E+00 0. -1.
         22    1    3    3    0    0  0.15365465408E+02  0.18483702688E+02  0.81843216718E+01  0.25391492936E+02  0.00000000000E+00 0. -1.
         22    1    3    3    0    0 -0.13184313916E+03 -0.25339402277E+02 -0.11040939098E+03  0.17382442943E+03  0.00000000000E+00 0. -1.
</event>
<event>
 7    1  0.7118985E-006  0.9105779E+02  0.7818608E-02  0.1328115E+00
          2   -1    0    0  502    0  0.00000000000E+00  0.00000000000E+00  0.70700286760E+02  0.70700286760E+02  0.00000000000E+00 0. -1.
          1   -1    0    0  501    0 -0.00000000000E+00 -0.00000000000E+00 -0.16435925232E+04  0.16435925232E+04  0.00000000000E+00 0. -1.
         25    2    1    2    0    0 -0.11127805662E+03 -0.37921050502E+02 -0.11850725208E+03  0.20854195356E+03  0.12499986258E+03 0.  0.
          2    1    1    2  501    0  0.51046576509E+02  0.75262408974E+02 -0.14268136615E+04  0.14297088542E+04  0.00000000000E+00 0. -1.
          1    1    1    2  502    0  0.60231480107E+02 -0.37341358472E+02 -0.27571322830E+02  0.76042002150E+02  0.00000000000E+00 0. -1.
         22    1    3    3    0    0 -0.60311816868E+02 -0.65786425581E+02 -0.12105645686E+03  0.15039958375E+03  0.00000000000E+00 0.  1.
         22    1    3    3    0    0 -0.50966239748E+02  0.27865375079E+02  0.25492047826E+01  0.58142369812E+02  0.00000000000E+00 0.  1.
</event>
<event>
 7    1  0.7118985E-006  0.8398505E+02  0.7818608E-02  0.1447235E+00
          2   -1    0    0  502    0  0.00000000000E+00  0.00000000000E+00  0.96651950037E+03  0.96651950037E+03  0.00000000000E+00 0. -1.
          1   -1    0    0  501    0 -0.00000000000E+00 -0.00000000000E+00 -0.40962665461E+03  0.40962665461E+03  0.00000000000E+00 0. -1.
         25    2    1    2    0    0 -0.80099707036E+02  0.48485069194E+02 -0.18814801939E+02  0.15730863895E+03  0.12500098445E+03 0.  0.
          2    1    1    2  501    0  0.54687320183E+02 -0.63174825375E+02 -0.31589138119E+03  0.32675545330E+03  0.00000000000E+00 0. -1.
          1    1    1    2  502    0  0.25412386852E+02  0.14689756182E+02  0.89159902889E+03  0.89208206274E+03  0.00000000000E+00 0. -1.
         22    1    3    3    0    0 -0.11695517559E+02 -0.30735179699E+02 -0.38684474149E+02  0.50773269958E+02  0.00000000000E+00 0.  1.
         22    1    3    3    0    0 -0.68404189477E+02  0.79220248892E+02  0.19869672210E+02  0.10653536899E+03  0.00000000000E+00 0.  1.
</event>
<event>
 7    1  0.7118985E-006  0.6045756E+02  0.7818608E-02  0.1495759E+00
          2   -1    0    0  502    0  0.00000000000E+00  0.00000000000E+00  0.16623571411E+04  0.16623571411E+04  0.00000000000E+00 0. -1.
          1   -1    0    0  501    0 -0.00000000000E+00 -0.00000000000E+00 -0.23069602158E+02  0.23069602158E+02  0.00000000000E+00 0. -1.
         25    2    1    2    0    0 -0.52242378445E+01 -0.43385237377E+02  0.56643690054E+03  0.58170968143E+03  0.12500327871E+03 0.  0.
          2    1    1    2  501    0 -0.26730738512E+02 -0.10779444396E+02 -0.20208633097E+00  0.28823074815E+02  0.00000000000E+00 0. -1.
          1    1    1    2  502    0  0.31954976356E+02  0.54164681773E+02  0.10730527247E+04  0.10748939870E+04  0.00000000000E+00 0. -1.
         22    1    3    3    0    0  0.30505305897E+02  0.33472934684E+02  0.25267504402E+03  0.25670155612E+03  0.00000000000E+00 0. -1.
         22    1    3    3    0    0 -0.35729543741E+02 -0.76858172061E+02  0.31376185652E+03  0.32500812531E+03  0.00000000000E+00 0. -1.
</event>
<event>
 7    1  0.7118985E-006  0.1148644E+03  0.7818608E-02  0.1372983E+00
          2   -1    0    0  502    0  0.00000000000E+00  0.00000000000E+00  0.27253593463E+04  0.27253593463E+04  0.00000000000E+00 0. -1.
          1   -1    0    0  501    0 -0.00000000000E+00 -0.00000000000E+00 -0.15373785241E+03  0.15373785241E+03  0.00000000000E+00 0. -1.
         25    2    1    2    0    0 -0.90568412125E+02 -0.69522384801E+02  0.14467480286E+03  0.22269189729E+03  0.12499953309E+03 0.  0.
          2    1    1    2  501    0 -0.18721936309E+02  0.33435636032E+02 -0.11018807661E+03  0.11666132557E+03  0.00000000000E+00 0. -1.
          1    1    1    2  502    0  0.10929034843E+03  0.36086748769E+02  0.25371347676E+04  0.25397439758E+04  0.00000000000E+00 0. -1.
         22    1    3    3    0    0  0.23262575751E+02 -0.43499081872E+02  0.24306384804E+02  0.54991980293E+02  0.00000000000E+00 0. -1.
         22    1    3    3    0    0 -0.11383098788E+03 -0.26023302929E+02  0.12036841806E+03  0.16769991700E+03  0.00000000000E+00 0. -1.
</event>
<event>
 7    1  0.7118985E-006  0.8459717E+02  0.7818608E-02  0.1403524E+00
          2   -1    0    0  502    0  0.00000000000E+00  0.00000000000E+00  0.28813715085E+04  0.28813715085E+04  0.00000000000E+00 0. -1.
          1   -1    0    0  501    0 -0.00000000000E+00 -0.00000000000E+00 -0.10872981177E+03  0.10872981177E+03  0.00000000000E+00 0. -1.
         25    2    1    2    0    0 -0.76217028572E+02  0.57655912168E+02  0.13770757090E+03  0.20909522807E+03  0.12499679863E+03 0.  0.
          2    1    1    2  501    0  0.39180148042E+02 -0.74485135979E+02 -0.48585220352E+02  0.97178408708E+02  0.00000000000E+00 0. -1.
          1    1    1    2  502    0  0.37036880530E+02  0.16829223811E+02  0.26835193462E+04  0.26838276835E+04  0.00000000000E+00 0. -1.
         22    1    3    3    0    0 -0.67785282344E+02  0.61874588150E+02  0.16024418221E+03  0.18466593376E+03  0.00000000000E+00 0.  1.
         22    1    3    3    0    0 -0.84317462271E+01 -0.42186759823E+01 -0.22536611304E+02  0.24429294312E+02  0.00000000000E+00 0.  1.
</event>
<event>
 7    1  0.7118985E-006  0.1526035E+03  0.7818608E-02  0.1363359E+00
          2   -1    0    0  502    0  0.00000000000E+00  0.00000000000E+00  0.80884277962E+03  0.80884277962E+03  0.00000000000E+00 0. -1.
          1   -1    0    0  501    0 -0.00000000000E+00 -0.00000000000E+00 -0.14417886877E+04  0.14417886877E+04  0.00000000000E+00 0. -1.
         25    2    1    2    0    0  0.11259717248E+03 -0.94106025884E+02 -0.15093463450E+03  0.24482748308E+03  0.12500066088E+03 0.  0.
          2    1    1    2  501    0 -0.95421502464E+02  0.12020344620E+03 -0.12388502208E+04  0.12483204722E+04  0.00000000000E+00 0. -1.
          1    1    1    2  502    0 -0.17175670018E+02 -0.26097420316E+02  0.75683894724E+03  0.75748351206E+03  0.00000000000E+00 0. -1.
         22    1    3    3    0    0  0.89665597680E+02 -0.11843045883E+03 -0.85617733560E+02  0.17145287774E+03  0.00000000000E+00 0.  1.
         22    1    3    3    0    0  0.22931574803E+02  0.24324432941E+02 -0.65316900939E+02  0.73374605342E+02  0.00000000000E+00 0.  1.
</event>
<event>
 7    1  0.7118985E-006  0.8946946E+02  0.7818608E-02  0.1434971E+00
          2   -1    0    0  502    0  0.00000000000E+00  0.00000000000E+00  0.25175766053E+04  0.25175766053E+04  0.00000000000E+00 0. -1.
          1   -1    0    0  501    0 -0.00000000000E+00 -0.00000000000E+00 -0.12734820210E+02  0.12734820210E+02  0.00000000000E+00 0. -1.
         25    2    1    2    0    0 -0.61000663863E+02 -0.26612774251E+02  0.19563551924E+04  0.19614738529E+04  0.12499886318E+03 0.  0.
          2    1    1    2  501    0  0.90239388628E+02  0.19079987715E+02  0.21450962661E+03  0.23349855053E+03  0.00000000000E+00 0. -1.
          1    1    1    2  502    0 -0.29238724764E+02  0.75327865359E+01  0.33397696601E+03  0.33533902207E+03  0.00000000000E+00 0. -1.
         22    1    3    3    0    0 -0.54239715686E+02 -0.60770256430E+02  0.71408649467E+03  0.71871725504E+03  0.00000000000E+00 0. -1.
         22    1    3    3    0    0 -0.67609481775E+01  0.34157482179E+02  0.12422686978E+04  0.12427565979E+04  0.00000000000E+00 0. -1.
</event>
<event>
 7    1  0.7118985E-006  0.3061976E+02  0.7818608E-02  0.1593187E+00
          2   -1    0    0  502    0  0.00000000000E+00  0.00000000000E+00  0.28643168290E+03  0.28643168290E+03  0.00000000000E+00 0. -1.
          1   -1    0    0  501    0 -0.00000000000E+00 -0.00000000000E+00 -0.13093319611E+04  0.13093319611E+04  0.00000000000E+00 0. -1.
         25    2    1    2    0    0 -0.52993786652E+02  0.61561258355E+01 -0.67572200207E+02  0.15177341638E+03  0.12499171321E+03 0.  0.
          2    1    1    2  501    0  0.24962883388E+02 -0.17601704383E+02 -0.11985258273E+04  0.11989149779E+04  0.00000000000E+00 0. -1.
          1    1    1    2  502    0  0.28030903264E+02  0.11445578547E+02  0.24319774925E+03  0.24507524977E+03  0.00000000000E+00 0. -1.
         22    1    3    3    0    0  0.18721377673E+02  0.39304453466E+02  0.58398840621E+01  0.43925326295E+02  0.00000000000E+00 0. -1.
         22    1    3    3    0    0 -0.71715164325E+02 -0.33148327631E+02 -0.73412084269E+02  0.10784809009E+03  0.00000000000E+00 0. -1.
</event>
<event>
 7    1  0.7118985E-006  0.6384111E+02  0.7818608E-02  0.1424851E+00
          2   -1    0    0  502    0  0.00000000000E+00  0.00000000000E+00  0.66405381282E+03  0.66405381282E+03  0.00000000000E+00 0. -1.
          1   -1    0    0  501    0 -0.00000000000E+00 -0.00000000000E+00 -0.15736398101E+04  0.15736398101E+04  0.00000000000E+00 0. -1.
         25    2    1    2    0    0 -0.32443968311E+02 -0.26671404613E+02 -0.46625658916E+02  0.13986889532E+03  0.12500152361E+03 0.  0.
          2    1    1    2  501    0  0.61779342225E+01  0.64055323496E+02 -0.14788466047E+04  0.14802461051E+04  0.00000000000E+00 0. -1.
          1    1    1    2  502    0  0.26266034089E+02 -0.37383918882E+02  0.61588626634E+03  0.61757862253E+03  0.00000000000E+00 0. -1.
         22    1    3    3    0    0  0.40552217182E+02 -0.37603424481E+02 -0.60302590697E+01  0.55631500748E+02  0.00000000000E+00 0.  1.
         22    1    3    3    0    0 -0.72996185493E+02  0.10932019868E+02 -0.40595399846E+02  0.84237394568E+02  0.00000000000E+00 0.  1.
</event>
<event>
 7    1  0.7118985E-006  0.1527019E+03  0.7818608E-02  0.1260524E+00
          2   -1    0    0  502    0  0.00000000000E+00  0.00000000000E+00  0.15677395724E+04  0.15677395724E+04  0.00000000000E+00 0. -1.
          1   -1    0    0  501    0 -0.00000000000E+00 -0.00000000000E+00 -0.29583904856E+03  0.29583904856E+03  0.00000000000E+00 0. -1.
         25    2    1    2    0    0 -0.91784975050E+02 -0.90157904470E+02 -0.82256668820E+02  0.19734164819E+03  0.12499854864E+03 0.  0.
          2    1    1    2  501    0 -0.57844704038E+02  0.54207784823E+02 -0.14176258846E+03  0.16242267455E+03  0.00000000000E+00 0. -1.
          1    1    1    2  502    0  0.14962967909E+03  0.35950119647E+02  0.14959197811E+04  0.15038142982E+04  0.00000000000E+00 0. -1.
         22    1    3    3    0    0 -0.93382200855E+02 -0.38479881496E+02 -0.96885296152E+00  0.10100433353E+03  0.00000000000E+00 0. -1.
         22    1    3    3    0    0  0.15972258050E+01 -0.51678022974E+02 -0.81287815858E+02  0.96337314660E+02  0.00000000000E+00 0. -1.
</event>
<event>
 7    1  0.7118985E-006  0.6620968E+02  0.7818608E-02  0.1493061E+00
          2   -1    0    0  502    0  0.00000000000E+00  0.00000000000E+00  0.94669998948E+03  0.94669998948E+03  0.00000000000E+00 0. -1.
          1   -1    0    0  501    0 -0.00000000000E+00 -0.00000000000E+00 -0.30302167283E+03  0.30302167283E+03  0.00000000000E+00 0. -1.
         25    2    1    2    0    0  0.29212740355E+02 -0.57833878980E+02  0.26321055209E+03  0.29849889101E+03  0.12499460566E+03 0.  0.
          2    1    1    2  501    0 -0.37356249723E+01  0.66197050431E+02 -0.28125125299E+03  0.28896067498E+03  0.00000000000E+00 0. -1.
          1    1    1    2  502    0 -0.25477115382E+02 -0.83631714504E+01  0.66171901755E+03  0.66226209632E+03  0.00000000000E+00 0. -1.
         22    1    3    3    0    0  0.64733702073E+02 -0.52098647602E+02  0.24389405438E+03  0.25766068972E+03  0.00000000000E+00 0. -1.
         22    1    3    3    0    0 -0.35520961719E+02 -0.57352313781E+01  0.19316497708E+02  0.40838201284E+02  0.00000000000E+00 0. -1.
</event>
<event>
 7    1  0.7118985E-006  0.1132964E+03  0.7818608E-02  0.1293483E+00
          2   -1    0    0  502    0  0.00000000000E+00  0.00000000000E+00  0.21130715799E+04  0.21130715799E+04  0.00000000000E+00 0. -1.
          1   -1    0    0  501    0 -0.00000000000E+00 -0.00000000000E+00 -0.66315579728E+03  0.66315579728E+03  0.00000000000E+00 0. -1.
         25    2    1    2    0    0 -0.18670956463E+03  0.80305019678E+00  0.16244480147E+01  0.22472920175E+03  0.12505786210E+03 0.  0.
          2    1    1    2  501    0  0.10939363889E+03  0.92122800772E+01 -0.54537180185E+03  0.55631127670E+03  0.00000000000E+00 0. -1.
          1    1    1    2  502    0  0.77315925738E+02 -0.10015330274E+02  0.19936631365E+04  0.19951868988E+04  0.00000000000E+00 0. -1.
         22    1    3    3    0    0 -0.17435785266E+03 -0.20683099408E+02 -0.36426318734E+02  0.17931906782E+03  0.00000000000E+00 0.  1.
         22    1    3    3    0    0 -0.12351711969E+02  0.21486149605E+02  0.38050766748E+02  0.45410133930E+02  0.00000000000E+00 0.  1.
</event>
<event>
 7    1  0.7118985E-006  0.1195800E+03  0.7818608E-02  0.1340271E+00
          2   -1    0    0  502    0  0.00000000000E+00  0.00000000000E+00  0.22850122658E+04  0.22850122658E+04  0.00000000000E+00 0. -1.
          1   -1    0    0  501    0 -0.00000000000E+00 -0.00000000000E+00 -0.18806665146E+03  0.18806665146E+03  0.00000000000E+00 0. -1.
         25    2    1    2    0    0 -0.15506787331E+03 -0.56623035882E+02  0.40896882648E+03  0.45840081950E+03  0.12499438691E+03 0.  0.
          2    1    1    2  501    0  0.10746360778E+03  0.47215690365E+02 -0.14190125944E+03  0.18415676975E+03  0.00000000000E+00 0. -1.
          1    1    1    2  502    0  0.47604265531E+02  0.94073455168E+01  0.18298780473E+04  0.18305213280E+04  0.00000000000E+00 0. -1.
         22    1    3    3    0    0 -0.13421926979E+03 -0.74357502043E+02  0.40180772369E+03  0.43010847156E+03  0.00000000000E+00 0. -1.
         22    1    3    3    0    0 -0.20848603518E+02  0.17734466161E+02  0.71611027923E+01  0.28292347938E+02  0.00000000000E+00 0. -1.
</event>
<event>
 7    1  0.7118985E-006  0.8018054E+02  0.7818608E-02  0.1437619E+00
          2   -1    0    0  502    0  0.00000000000E+00  0.00000000000E+00  0.79413562827E+03  0.79413562827E+03  0.00000000000E+00 0. -1.
          1   -1    0    0  501    0 -0.00000000000E+00 -0.00000000000E+00 -0.49698522294E+03  0.49698522294E+03  0.00000000000E+00 0. -1.
         25    2    1    2    0    0  0.21315185710E+02 -0.42565562501E+02  0.25311885305E+03  0.28628467605E+03  0.12499439076E+03 0.  0.
          2    1    1    2  501    0 -0.38022148457E+02  0.71056124602E+02 -0.47649544179E+03  0.48326241594E+03  0.00000000000E+00 0. -1.
          1    1    1    2  502    0  0.16706962746E+02 -0.28490562101E+02  0.52052699408E+03  0.52157375921E+03  0.00000000000E+00 0. -1.
         22    1    3    3    0    0 -0.50596827984E+02 -0.32283304561E+02  0.96551445617E+02  0.11368567371E+03  0.00000000000E+00 0.  1.
         22    1    3    3    0    0  0.71912013694E+02 -0.10282257940E+02  0.15656740743E+03  0.17259900235E+03  0.00000000000E+00 0.  1.
</event>
<event>
 7    1  0.7118985E-006  0.7305518E+02  0.7818608E-02  0.1452509E+00
          2   -1    0    0  502    0  0.00000000000E+00  0.00000000000E+00  0.62839032472E+03  0.62839032472E+03  0.00000000000E+00 0. -1.
          1   -1    0    0  501    0 -0.00000000000E+00 -0.00000000000E+00 -0.71479549783E+03  0.71479549783E+03  0.00000000000E+00 0. -1.
         25    2    1    2    0    0  0.83583172609E+02 -0.48310506448E+02  0.20725482624E+03  0.26057176151E+03  0.12499211223E+03 0.  0.
          2    1    1    2  501    0 -0.70470719007E+02  0.18619052120E+02 -0.68553405654E+03  0.68939809545E+03  0.00000000000E+00 0. -1.
          1    1    1    2  502    0 -0.13112453602E+02  0.29691454328E+02  0.39187405718E+03  0.39321596559E+03  0.00000000000E+00 0. -1.
         22    1    3    3    0    0  0.14859146643E+02 -0.80628250048E+02  0.10853786873E+03  0.13602271095E+03  0.00000000000E+00 0.  1.
         22    1    3    3    0    0  0.68724025966E+02  0.32317743600E+02  0.98716957509E+02  0.12454905056E+03  0.00000000000E+00 0.  1.
</event>
<event>
 7    1  0.7118985E-006  0.7919794E+02  0.7818608E-02  0.1375768E+00
          2   -1    0    0  502    0  0.00000000000E+00  0.00000000000E+00  0.10006824411E+04  0.10006824411E+04  0.00000000000E+00 0. -1.
          1   -1    0    0  501    0 -0.00000000000E+00 -0.00000000000E+00 -0.11782050913E+04  0.11782050913E+04  0.00000000000E+00 0. -1.
         25    2    1    2    0    0 -0.87521353638E+02 -0.23013446795E+02  0.13865205074E+03  0.20746074949E+03  0.12500386125E+03 0.  0.
          2    1    1    2  501    0  0.13710448679E+02  0.52560563174E+02 -0.11412438607E+04  0.11425358370E+04  0.00000000000E+00 0. -1.
          1    1    1    2  502    0  0.73810904959E+02 -0.29547116380E+02  0.82506915977E+03  0.82889094589E+03  0.00000000000E+00 0. -1.
         22    1    3    3    0    0 -0.90753308620E+02 -0.37454906190E+02  0.15620824248E+03  0.18449945269E+03  0.00000000000E+00 0. -1.
         22    1    3    3    0    0  0.32319549824E+01  0.14441459395E+02 -0.17556191737E+02  0.22961296801E+02  0.00000000000E+00 0. -1.
</event>
<event>
 7    1  0.7118985E-006  0.3099162E+03  0.7818608E-02  0.1220415E+00
          2   -1    0    0  502    0  0.00000000000E+00  0.00000000000E+00  0.14775709775E+04  0.14775709775E+04  0.00000000000E+00 0. -1.
          1   -1    0    0  501    0 -0.00000000000E+00 -0.00000000000E+00 -0.60027129132E+03  0.60027129132E+03  0.00000000000E+00 0. -1.
         25    2    1    2    0    0 -0.28640000117E+03 -0.56472924546E+01 -0.20484856565E+02  0.31321069620E+03  0.12499783312E+03 0.  0.
          2    1    1    2  501    0 -0.22774360599E+02  0.54086641158E+02 -0.41292794020E+03  0.41707735499E+03  0.00000000000E+00 0. -1.
          1    1    1    2  502    0  0.30917436177E+03 -0.48439348703E+02  0.13107124830E+04  0.13475542176E+04  0.00000000000E+00 0. -1.
         22    1    3    3    0    0 -0.84644054900E+02 -0.57848433664E+02 -0.21759537917E+02  0.10480713143E+03  0.00000000000E+00 0. -1.
         22    1    3    3    0    0 -0.20175594627E+03  0.52201141210E+02  0.12746813517E+01  0.20840356478E+03  0.00000000000E+00 0. -1.
</event>
<event>
 7    1  0.7118985E-006  0.3646069E+02  0.7818608E-02  0.1618916E+00
          2   -1    0    0  502    0  0.00000000000E+00  0.00000000000E+00  0.53493648950E+02  0.53493648950E+02  0.00000000000E+00 0. -1.
          1   -1    0    0  501    0 -0.00000000000E+00 -0.00000000000E+00 -0.31599182332E+03  0.31599182332E+03  0.00000000000E+00 0. -1.
         25    2    1    2    0    0 -0.50824732420E+02 -0.23296256456E+02 -0.64830433420E+02  0.15149551886E+03  0.12498815203E+03 0.  0.
          2    1    1    2  501    0  0.29177236736E+02  0.20667598983E+02 -0.19221463173E+03  0.19551195728E+03  0.00000000000E+00 0. -1.
          1    1    1    2  502    0  0.21647495685E+02  0.26286574735E+01 -0.54531092235E+01  0.22477996124E+02  0.00000000000E+00 0. -1.
         22    1    3    3    0    0 -0.28110464956E+02 -0.18999473775E+02  0.35163864572E+02  0.48863847734E+02  0.00000000000E+00 0. -1.
         22    1    3    3    0    0 -0.22714267464E+02 -0.42967826812E+01 -0.99994297992E+02  0.10263167113E+03  0.00000000000E+00 0. -1.
</event>
<event>
 7    1  0.7118985E-006  0.8418084E+02  0.7818608E-02  0.1353635E+00
          2   -1    0    0  502    0  0.00000000000E+00  0.00000000000E+00  0.15069195319E+04  0.15069195319E+04  0.00000000000E+00 0. -1.
          1   -1    0    0  501    0 -0.00000000000E+00 -0.00000000000E+00 -0.31739528971E+03  0.31739528971E+03  0.00000000000E+00 0. -1.
         25    2    1    2    0    0 -0.29070207432E+01 -0.64006926006E+02  0.15044561117E+02  0.14126833995E+03  0.12500027082E+03 0.  0.
          2    1    1    2  501    0 -0.60953708128E+02  0.79497717831E+01 -0.24928315250E+03  0.25675015779E+03  0.00000000000E+00 0. -1.
          1    1    1    2  502    0  0.63860728871E+02  0.56057154223E+02  0.14237628336E+04  0.14262963239E+04  0.00000000000E+00 0. -1.
         22    1    3    3    0    0 -0.38958807556E+01 -0.76546423291E+02  0.58250513003E+02  0.96268660895E+02  0.00000000000E+00 0.  1.
         22    1    3    3    0    0  0.98886001235E+00  0.12539497284E+02 -0.43205951886E+02  0.44999679051E+02  0.00000000000E+00 0.  1.
</event>
<event>
 7    1  0.7118985E-006  0.1650916E+03  0.7818608E-02  0.1330008E+00
          2   -1    0    0  502    0  0.00000000000E+00  0.00000000000E+00  0.11868010561E+04  0.11868010561E+04  0.00000000000E+00 0. -1.
          1   -1    0    0  501    0 -0.00000000000E+00 -0.00000000000E+00 -0.85850625951E+03  0.85850625951E+03  0.00000000000E+00 0. -1.
         25    2    1    2    0    0  0.18781406690E+03 -0.34867375263E+02  0.90138904074E+03  0.92984796158E+03  0.12500068528E+03 0.  0.
          2    1    1    2  501    0 -0.15530465295E+03  0.55382836364E+02 -0.83480900143E+03  0.85093646217E+03  0.00000000000E+00 0. -1.
          1    1    1    2  502    0 -0.32509413950E+02 -0.20515461102E+02  0.26171475726E+03  0.26452289184E+03  0.00000000000E+00 0. -1.
         22    1    3    3    0    0  0.40495790802E+02  0.42682587904E+02  0.30682815108E+03  0.31241835202E+03  0.00000000000E+00 0.  1.
         22    1    3    3    0    0  0.14731827610E+03 -0.77549963166E+02  0.59456088965E+03  0.61742960956E+03  0.00000000000E+00 0.  1.
</event>
<event>
 7    1  0.7118985E-006  0.1540170E+03  0.7818608E-02  0.1311489E+00
          2   -1    0    0  502    0  0.00000000000E+00  0.00000000000E+00  0.28270959488E+04  0.28270959488E+04  0.00000000000E+00 0. -1.
          1   -1    0    0  501    0 -0.00000000000E+00 -0.00000000000E+00 -0.13478427415E+04  0.13478427415E+04  0.00000000000E+00 0. -1.
         25    2    1    2    0    0  0.45863425961E+02  0.14919682008E+03  0.29836435173E+03  0.35917933298E+03  0.12500144757E+03 0.  0.
          2    1    1    2  501    0  0.42904040777E+02 -0.22851539106E+02 -0.13145997299E+04  0.13154981564E+04  0.00000000000E+00 0. -1.
          1    1    1    2  502    0 -0.88767466738E+02 -0.12634528098E+03  0.24954885855E+04  0.25002612010E+04  0.00000000000E+00 0. -1.
         22    1    3    3    0    0  0.86453197949E+02  0.12358367509E+03  0.24197633917E+03  0.28513089784E+03  0.00000000000E+00 0.  1.
         22    1    3    3    0    0 -0.40589771988E+02  0.25613144989E+02  0.56388012557E+02  0.74048435138E+02  0.00000000000E+00 0.  1.
</event>
<event>
 7    1  0.7118985E-006  0.1459060E+03  0.7818608E-02  0.1388027E+00
          2   -1    0    0  502    0  0.00000000000E+00  0.00000000000E+00  0.88001808542E+03  0.88001808542E+03  0.00000000000E+00 0. -1.
          1   -1    0    0  501    0 -0.00000000000E+00 -0.00000000000E+00 -0.10130346604E+04  0.10130346604E+04  0.00000000000E+00 0. -1.
         25    2    1    2    0    0  0.13691328852E+02 -0.17090125958E+03 -0.65686104648E+03  0.69027859898E+03  0.12499366708E+03 0.  0.
          2    1    1    2  501    0 -0.84247877388E+01  0.25322166943E+02 -0.33278161225E+03  0.33384995228E+03  0.00000000000E+00 0. -1.
          1    1    1    2  502    0 -0.52665411131E+01  0.14557909264E+03  0.85662608371E+03  0.86892419460E+03  0.00000000000E+00 0. -1.
         22    1    3    3    0    0 -0.33934638213E+02 -0.17800138836E+02 -0.25075881043E+03  0.25366983585E+03  0.00000000000E+00 0.  1.
         22    1    3    3    0    0  0.47625967065E+02 -0.15310112075E+03 -0.40610223606E+03  0.43660876313E+03  0.00000000000E+00 0.  1.
</event>
<event>
 7    1  0.7118985E-006  0.9978767E+02  0.7818608E-02  0.1411054E+00
          2   -1    0    0  502    0  0.00000000000E+00  0.00000000000E+00  0.52834976971E+03  0.52834976971E+03  0.00000000000E+00 0. -1.
          1   -1    0    0  501    0 -0.00000000000E+00 -0.00000000000E+00 -0.15233372031E+04  0.15233372031E+04  0.00000000000E+00 0. -1.
         25    2    1    2    0    0  0.11726988355E+02 -0.86500187924E+02  0.27677444894E+03  0.31599053011E+03  0.12500445900E+03 0.  0.
          2    1    1    2  501    0  0.18634930385E+02  0.98128993000E+02 -0.15009217982E+04  0.15042416043E+04  0.00000000000E+00 0. -1.
          1    1    1    2  502    0 -0.30361918740E+02 -0.11628805076E+02  0.22915991581E+03  0.23145483843E+03  0.00000000000E+00 0. -1.
         22    1    3    3    0    0 -0.14645321735E+02 -0.11348176113E+03  0.19909774039E+03  0.22963559347E+03  0.00000000000E+00 0.  1.
         22    1    3    3    0    0  0.26372310090E+02  0.26981573210E+02  0.77676708550E+02  0.86354936648E+02  0.00000000000E+00 0.  1.
</event>
<event>
 7    1  0.7118985E-006  0.8350506E+02  0.7818608E-02  0.1483437E+00
          2   -1    0    0  502    0  0.00000000000E+00  0.00000000000E+00  0.11176040757E+03  0.11176040757E+03  0.00000000000E+00 0. -1.
          1   -1    0    0  501    0 -0.00000000000E+00 -0.00000000000E+00 -0.13145834455E+04  0.13145834455E+04  0.00000000000E+00 0. -1.
         25    2    1    2    0    0 -0.90989776201E+02  0.18918741284E+02 -0.33102872564E+03  0.36584464712E+03  0.12500092191E+03 0.  0.
          2    1    1    2  501    0  0.15736849927E+02  0.16413480321E+02 -0.94767123234E+03  0.94794399380E+03  0.00000000000E+00 0. -1.
          1    1    1    2  502    0  0.75252926273E+02 -0.35332221605E+02  0.75876920026E+02  0.11255521218E+03  0.00000000000E+00 0. -1.
         22    1    3    3    0    0 -0.53746404201E+02  0.71146301082E+02 -0.15977458194E+03  0.18297100632E+03  0.00000000000E+00 0. -1.
         22    1    3    3    0    0 -0.37243372000E+02 -0.52227559798E+02 -0.17125414371E+03  0.18287364079E+03  0.00000000000E+00 0. -1.
</event>
<event>
 7    1  0.7118985E-006  0.7042234E+02  0.7818608E-02  0.1485827E+00
          2   -1    0    0  502    0  0.00000000000E+00  0.00000000000E+00  0.10682394637E+04  0.10682394637E+04  0.00000000000E+00 0. -1.
          1   -1    0    0  501    0 -0.00000000000E+00 -0.00000000000E+00 -0.18720717637E+04  0.18720717637E+04  0.00000000000E+00 0. -1.
         25    2    1    2    0    0  0.90112018781E+02 -0.18260821897E+02 -0.49693801953E+03  0.52060109999E+03  0.12499790603E+03 0.  0.
          2    1    1    2  501    0 -0.64372516289E+02  0.24625228122E+02 -0.13622645004E+04  0.13640068885E+04  0.00000000000E+00 0. -1.
          1    1    1    2  502    0 -0.25739502492E+02 -0.63644062252E+01  0.10553702199E+04  0.10557032389E+04  0.00000000000E+00 0. -1.
         22    1    3    3    0    0  0.56183572149E+02  0.14871730091E+02 -0.69754796900E+02  0.90793688249E+02  0.00000000000E+00 0.  1.
         22    1    3    3    0    0  0.33928446632E+02 -0.33132551988E+02 -0.42718322263E+03  0.42980741174E+03  0.00000000000E+00 0.  1.
</event>
<event>
 7    1  0.7118985E-006  0.1090217E+03  0.7818608E-02  0.1291402E+00
          2   -1    0    0  502    0  0.00000000000E+00  0.00000000000E+00  0.88583014335E+03  0.88583014335E+03  0.00000000000E+00 0. -1.
          1   -1    0    0  501    0 -0.00000000000E+00 -0.00000000000E+00 -0.18253227371E+03  0.18253227371E+03  0.00000000000E+00 0. -1.
         25    2    1    2    0    0 -0.82759289332E+02  0.16428684776E+03  0.18233004544E+03  0.28759396842E+03  0.12500710734E+03 0.  0.
          2    1    1    2  501    0  0.25164972285E+02 -0.78680841849E+02 -0.11215501471E+03  0.13929356779E+03  0.00000000000E+00 0. -1.
          1    1    1    2  502    0  0.57594317046E+02 -0.85606005911E+02  0.63312283891E+03  0.64147488084E+03  0.00000000000E+00 0. -1.
         22    1    3    3    0    0 -0.63639292612E+02  0.95522427796E+02  0.18323344910E+03  0.21621514897E+03  0.00000000000E+00 0.  1.
         22    1    3    3    0    0 -0.19119996720E+02  0.68764419963E+02 -0.90340366292E+00  0.71378819447E+02  0.00000000000E+00 0.  1.
</event>
<event>
 7    1  0.7118985E-006  0.3566103E+02  0.7818608E-02  0.1582066E+00
          2   -1    0    0  502    0  0.00000000000E+00  0.00000000000E+00  0.10486566805E+04  0.10486566805E+04  0.00000000000E+00 0. -1.
          1   -1    0    0  501    0 -0.00000000000E+00 -0.00000000000E+00 -0.14297626215E+04  0.14297626215E+04  0.00000000000E+00 0. -1.
         25    2    1    2    0    0 -0.16294819761E+02  0.39478268392E+02 -0.17466786112E+03  0.21899414410E+03  0.12500207446E+03 0.  0.
          2    1    1    2  501    0 -0.15420435802E+02 -0.23162664107E+02 -0.12324647222E+04  0.12327788083E+04  0.00000000000E+00 0. -1.
          1    1    1    2  502    0  0.31715255563E+02 -0.16315604285E+02  0.10260266423E+04  0.10266463496E+04  0.00000000000E+00 0. -1.
         22    1    3    3    0    0 -0.54212792132E+02  0.42364683213E+01 -0.15388758646E+03  0.16321263359E+03  0.00000000000E+00 0. -1.
         22    1    3    3    0    0  0.37917972370E+02  0.35241800071E+02 -0.20780274654E+02  0.55781510517E+02  0.00000000000E+00 0. -1.
</event>
<event>
 7    1  0.7118985E-006  0.1481805E+03  0.7818608E-02  0.1400239E+00
          2   -1    0    0  502    0  0.00000000000E+00  0.00000000000E+00  0.11225802689E+04  0.11225802689E+04  0.00000000000E+00 0. -1.
          1   -1    0    0  501    0 -0.00000000000E+00 -0.00000000000E+00 -0.66996067850E+03  0.66996067850E+03  0.00000000000E+00 0. -1.
         25    2    1    2    0    0 -0.10137855765E+03 -0.86421331240E+02 -0.10089771013E+03  0.20869268966E+03  0.12500412938E+03 0.  0.
          2    1    1    2  501    0  0.12518096518E+03  0.85169555509E+02 -0.50390363448E+03  0.52615872137E+03  0.00000000000E+00 0. -1.
          1    1    1    2  502    0 -0.23802407534E+02  0.12517757304E+01  0.10574209351E+04  0.10576895364E+04  0.00000000000E+00 0. -1.
         22    1    3    3    0    0  0.24268340449E+01 -0.99501395256E+01  0.25904207556E+02  0.27855390307E+02  0.00000000000E+00 0.  1.
         22    1    3    3    0    0 -0.10380539169E+03 -0.76471191714E+02 -0.12680191769E+03  0.18083729935E+03  0.00000000000E+00 0.  1.
</event>
<event>
 7    1  0.7118985E-006  0.1650313E+03  0.7818608E-02  0.1280616E+00
          2   -1    0    0  502    0  0.00000000000E+00  0.00000000000E+00  0.69722626872E+03  0.69722626872E+03  0.00000000000E+00 0. -1.
          1   -1    0    0  501    0 -0.00000000000E+00 -0.00000000000E+00 -0.69503523738E+03  0.69503523738E+03  0.00000000000E+00 0. -1.
         25    2    1    2    0    0 -0.40514447704E+02  0.19760995275E+03 -0.19797809553E+03  0.30904793900E+03  0.12499675354E+03 0.  0.
          2    1    1    2  501    0 -0.39768326483E+01 -0.15674473379E+03 -0.42610236938E+03  0.45403519242E+03  0.00000000000E+00 0. -1.
          1    1    1    2  502    0  0.44491280352E+02 -0.40865218959E+02  0.62627149624E+03  0.62917837467E+03  0.00000000000E+00 0. -1.
         22    1    3    3    0    0 -0.62805258008E+02  0.12539860504E+03 -0.61703815283E+02  0.15322098877E+03  0.00000000000E+00 0. -1.
         22    1    3    3    0    0  0.22290810304E+02  0.72211347708E+02 -0.13627428025E+03  0.15582695024E+03  0.00000000000E+00 0. -1.
</event>
<event>
 7    1  0.7118985E-006  0.5586568E+02  0.7818608E-02  0.1420694E+00
          2   -1    0    0  502    0  0.00000000000E+00  0.00000000000E+00  0.59407500029E+03  0.59407500029E+03  0.00000000000E+00 0. -1.
          1   -1    0    0  501    0 -0.00000000000E+00 -0.00000000000E+00 -0.28007936888E+02  0.28007936888E+02  0.00000000000E+00 0. -1.
         25    2    1    2    0    0 -0.17081983196E+02  0.60187366048E+02  0.32274656564E+03  0.35170945027E+03  0.12497951270E+03 0.  0.
          2    1    1    2  501    0  0.55294517941E+02 -0.22173135363E+02  0.90708647123E+02  0.10852276401E+03  0.00000000000E+00 0. -1.
          1    1    1    2  502    0 -0.38212534745E+02 -0.38014230686E+02  0.15261185064E+03  0.16185072290E+03  0.00000000000E+00 0. -1.
         22    1    3    3    0    0 -0.44101840424E+02  0.80454638237E+02  0.29185582853E+03  0.30593748674E+03  0.00000000000E+00 0.  1.
         22    1    3    3    0    0  0.27019857229E+02 -0.20267272188E+02  0.30890737106E+02  0.45771963532E+02  0.00000000000E+00 0.  1.
</event>
<event>
 7    1  0.7118985E-006  0.4992425E+02  0.7818608E-02  0.1475061E+00
          2   -1    0    0  502    0  0.00000000000E+00  0.00000000000E+00  0.55634974068E+03  0.55634974068E+03  0.00000000000E+00 0. -1.
          1   -1    0    0  501    0 -0.00000000000E+00 -0.00000000000E+00 -0.32183878459E+03  0.32183878459E+03  0.00000000000E+00 0. -1.
         25    2    1    2    0    0 -0.10240217503E+02  0.20779300104E+02  0.33782477515E+03  0.36095240805E+03  0.12499768319E+03 0.  0.
          2    1    1    2  501    0 -0.22002193248E+02 -0.45046501470E+02 -0.30625018782E+03  0.31032637874E+03  0.00000000000E+00 0. -1.
          1    1    1    2  502    0  0.32242410751E+02  0.24267201366E+02  0.20293636876E+03  0.20690973848E+03  0.00000000000E+00 0. -1.
         22    1    3    3    0    0 -0.38457456305E+02 -0.29376108965E+02  0.25827213205E+03  0.26276686610E+03  0.00000000000E+00 0.  1.
         22    1    3    3    0    0  0.28217238802E+02  0.50155409069E+02  0.79552643093E+02  0.98185541948E+02  0.00000000000E+00 0.  1.
</event>
<event>
 7    1  0.7118985E-006  0.5404220E+02  0.7818608E-02  0.1442924E+00
          2   -1    0    0  502    0  0.00000000000E+00  0.00000000000E+00  0.10368659119E+04  0.10368659119E+04  0.00000000000E+00 0. -1.
          1   -1    0    0  501    0 -0.00000000000E+00 -0.00000000000E+00 -0.54140245634E+03  0.54140245634E+03  0.00000000000E+00 0. -1.
         25    2    1    2    0    0  0.36232043881E+02  0.60055385221E+02 -0.27133220166E+03  0.30686534851E+03  0.12500307262E+03 0.  0.
          2    1    1    2  501    0 -0.46574192211E+02 -0.70070054359E+01 -0.24938126798E+03  0.25378981525E+03  0.00000000000E+00 0. -1.
          1    1    1    2  502    0  0.10342148330E+02 -0.53048379785E+02  0.10161769252E+04  0.10176132045E+04  0.00000000000E+00 0. -1.
         22    1    3    3    0    0 -0.37789605387E+02  0.18875889953E+02 -0.16811650570E+03  0.17334218467E+03  0.00000000000E+00 0. -1.
         22    1    3    3    0    0  0.74021649268E+02  0.41179495268E+02 -0.10321569596E+03  0.13352316384E+03  0.00000000000E+00 0. -1.
</event>
<event>
 7    1  0.7118985E-006  0.7975269E+02  0.7818608E-02  0.1395717E+00
          2   -1    0    0  502    0  0.00000000000E+00  0.00000000000E+00  0.19213987632E+04  0.19213987632E+04  0.00000000000E+00 0. -1.
          1   -1    0    0  501    0 -0.00000000000E+00 -0.00000000000E+00 -0.13736406370E+03  0.13736406370E+03  0.00000000000E+00 0. -1.
         25    2    1    2    0    0  0.69075928633E+02 -0.33223287423E+02 -0.19470668945E+02  0.14791721835E+03  0.12500050317E+03 0.  0.
          2    1    1    2  501    0 -0.85214218886E+02 -0.97519026710E+01 -0.18928047194E+02  0.87834125923E+02  0.00000000000E+00 0. -1.
          1    1    1    2  502    0  0.16138290254E+02  0.42975190094E+02  0.18224334156E+04  0.18230114826E+04  0.00000000000E+00 0. -1.
         22    1    3    3    0    0  0.96898393504E+02 -0.39755976871E+02  0.11981534194E+02  0.10542008121E+03  0.00000000000E+00 0.  1.
         22    1    3    3    0    0 -0.27822464871E+02  0.65326894480E+01 -0.31452203139E+02  0.42497137142E+02  0.00000000000E+00 0.  1.
</event>
<event>
 7    1  0.7118985E-006  0.1185595E+03  0.7818608E-02  0.1384586E+00
          2   -1    0    0  502    0  0.00000000000E+00  0.00000000000E+00  0.57883084818E+02  0.57883084818E+02  0.00000000000E+00 0. -1.
          1   -1    0    0  501    0 -0.00000000000E+00 -0.00000000000E+00 -0.64716574428E+03  0.64716574428E+03  0.00000000000E+00 0. -1.
         25    2    1    2    0    0  0.50484742451E+02  0.90473267689E+02 -0.32324903830E+03  0.36171109291E+03  0.12494339754E+03 0.  0.
          2    1    1    2  501    0 -0.82467176756E+02 -0.10130945121E+03 -0.27828161875E+03  0.30741681718E+03  0.00000000000E+00 0. -1.
          1    1    1    2  502    0  0.31982434305E+02  0.10836183524E+02  0.12247997588E+02  0.35920919008E+02  0.00000000000E+00 0. -1.
         22    1    3    3    0    0  0.31147027718E+02  0.78335107457E+02 -0.76279858827E+02  0.11368880006E+03  0.00000000000E+00 0.  1.
         22    1    3    3    0    0  0.19337714732E+02  0.12138160232E+02 -0.24696917947E+03  0.24802229285E+03  0.00000000000E+00 0.  1.
</event>
<event>
 7    1  0.7118985E-006  0.5870267E+02  0.7818608E-02  0.1468769E+00
          2   -1    0    0  502    0  0.00000000000E+00  0.00000000000E+00  0.60366944712E+03  0.60366944712E+03  0.00000000000E+00 0. -1.
          1   -1    0    0  501    0 -0.00000000000E+00 -0.00000000000E+00 -0.11143569469E+04  0.11143569469E+04  0.00000000000E+00 0. -1.
         25    2    1    2    0    0  0.11027754208E+02 -0.68670719221E+02 -0.15413099735E+03  0.21028279232E+03  0.12500083743E+03 0.  0.
          2    1    1    2  501    0 -0.32958029675E+02  0.14226837983E+02 -0.93030667410E+03  0.93099900243E+03  0.00000000000E+00 0. -1.
          1    1    1    2  502    0  0.21930275468E+02  0.54443881238E+02  0.57375017173E+03  0.57674459923E+03  0.00000000000E+00 0. -1.
         22    1    3    3    0    0  0.67965199663E+02 -0.32951724983E+02 -0.74729860541E+02  0.10625270162E+03  0.00000000000E+00 0. -1.
         22    1    3    3    0    0 -0.56937445455E+02 -0.35718994237E+02 -0.79401136808E+02  0.10403009070E+03  0.00000000000E+00 0. -1.
</event>
<event>
 7    1  0.7118985E-006  0.2315656E+03  0.7818608E-02  0.1347448E+00
          2   -1    0    0  502    0  0.00000000000E+00  0.00000000000E+00  0.14256282474E+03  0.14256282474E+03  0.00000000000E+00 0. -1.
          1   -1    0    0  501    0 -0.00000000000E+00 -0.00000000000E+00 -0.38848275211E+04  0.38848275211E+04  0.00000000000E+00 0. -1.
         25    2    1    2    0    0 -0.20650494251E+03 -0.31710034978E+02 -0.27739217314E+04  0.27845856005E+04  0.12500150943E+03 0.  0.
          2    1    1    2  501    0 -0.22788682234E+02 -0.59642730000E+01 -0.10069721798E+04  0.10072476693E+04  0.00000000000E+00 0. -1.
          1    1    1    2  502    0  0.22929362474E+03  0.37674307978E+02  0.38629214706E+02  0.23555707601E+03  0.00000000000E+00 0. -1.
         22    1    3    3    0    0 -0.16464143102E+03  0.31516258101E+02 -0.19179117086E+04  0.19252234669E+04  0.00000000000E+00 0. -1.
         22    1    3    3    0    0 -0.41863511489E+02 -0.63226293080E+02 -0.85601002275E+03  0.85936213367E+03  0.00000000000E+00 0. -1.
</event>
<event>
 7    1  0.7118985E-006  0.1176370E+03  0.7818608E-02  0.1253777E+00
          2   -1    0    0  502    0  0.00000000000E+00  0.00000000000E+00  0.38357371023E+04  0.38357371023E+04  0.00000000000E+00 0. -1.
          1   -1    0    0  501    0 -0.00000000000E+00 -0.00000000000E+00 -0.70468443598E+02  0.70468443598E+02  0.00000000000E+00 0. -1.
         25    2    1    2    0    0  0.21224859519E+03  0.55927973377E+02  0.71444495693E+03  0.75778216885E+03  0.12499925834E+03 0.  0.
          2    1    1    2  501    0 -0.10962625124E+03 -0.89828556826E+01  0.15590574474E+02  0.11109308111E+03  0.00000000000E+00 0. -1.
          1    1    1    2  502    0 -0.10262234394E+03 -0.46945117694E+02  0.30352331273E+04  0.30373302959E+04  0.00000000000E+00 0. -1.
         22    1    3    3    0    0  0.19923076303E+03  0.44357861469E+01  0.55152285445E+03  0.58642137760E+03  0.00000000000E+00 0. -1.
         22    1    3    3    0    0  0.13017832159E+02  0.51492187230E+02  0.16292210248E+03  0.17136079125E+03  0.00000000000E+00 0. -1.
</event>
<event>
 7    1  0.7118985E-006  0.3971945E+02  0.7818608E-02  0.1510418E+00
          2   -1    0    0  502    0  0.00000000000E+00  0.00000000000E+00  0.93502594830E+03  0.93502594830E+03  0.00000000000E+00 0. -1.
          1   -1    0    0  501    0 -0.00000000000E+00 -0.00000000000E+00 -0.38835402017E+03  0.38835402017E+03  0.00000000000E+00 0. -1.
         25    2    1    2    0    0  0.12191986075E+02 -0.22204180118E+02  0.43651977170E+02  0.13480229390E+03  0.12499797274E+03 0.  0.
          2    1    1    2  501    0 -0.38951816797E+02 -0.75871905402E+01 -0.34115406893E+03  0.34345437578E+03  0.00000000000E+00 0. -1.
          1    1    1    2  502    0  0.26759830722E+02  0.29791370658E+02  0.84417401989E+03  0.84512329879E+03  0.00000000000E+00 0. -1.
         22    1    3    3    0    0  0.57610030874E+02  0.19802116784E+01 -0.12136031213E+02  0.58907725717E+02  0.00000000000E+00 0.  1.
         22    1    3    3    0    0 -0.45418044799E+02 -0.24184391796E+02  0.55788008384E+02  0.75894568181E+02  0.00000000000E+00 0.  1.
</event>
<event>
 7    1  0.7118985E-006  0.1060313E+03  0.7818608E-02  0.1341307E+00
          2   -1    0    0  502    0  0.00000000000E+00  0.00000000000E+00  0.13283575541E+04  0.13283575541E+04  0.00000000000E+00 0. -1.
          1   -1    0    0  501    0 -0.00000000000E+00 -0.00000000000E+00 -0.88388577752E+02  0.88388577752E+02  0.00000000000E+00 0. -1.
         25    2    1    2    0    0 -0.94971379889E+02 -0.50041989102E+02  0.39724137019E+03  0.43005713596E+03  0.12499868131E+03 0.  0.
          2    1    1    2  501    0  0.36059852312E+02 -0.40513477844E+02 -0.58056743707E+02  0.79449608719E+02  0.00000000000E+00 0. -1.
          1    1    1    2  502    0  0.58911527576E+02  0.90555466946E+02  0.90078434991E+03  0.90723938722E+03  0.00000000000E+00 0. -1.
         22    1    3    3    0    0 -0.83715846209E+02 -0.26400518960E+02  0.39401554810E+03  0.40367509516E+03  0.00000000000E+00 0.  1.
         22    1    3    3    0    0 -0.11255533679E+02 -0.23641470143E+02  0.32258220943E+01  0.26382040806E+02  0.00000000000E+00 0.  1.
</event>
<event>
 7    1  0.7118985E-006  0.5036908E+03  0.7818608E-02  0.1146213E+00
          2   -1    0    0  502    0  0.00000000000E+00  0.00000000000E+00  0.10053052169E+04  0.10053052169E+04  0.00000000000E+00 0. -1.
          1   -1    0    0  501    0 -0.00000000000E+00 -0.00000000000E+00 -0.14587006854E+04  0.14587006854E+04  0.00000000000E+00 0. -1.
         25    2    1    2    0    0  0.55436560125E+03 -0.48395893190E+02  0.26936737522E+03  0.63075112507E+03  0.12499926648E+03 0.  0.
          2    1    1    2  501    0 -0.82812579775E+02 -0.46115814220E+00 -0.11750917101E+04  0.11780062237E+04  0.00000000000E+00 0. -1.
          1    1    1    2  502    0 -0.47155302148E+03  0.48857051332E+02  0.45232886631E+03  0.65524855347E+03  0.00000000000E+00 0. -1.
         22    1    3    3    0    0  0.54355938970E+03 -0.45513867747E+02  0.28186177433E+03  0.61398239560E+03  0.00000000000E+00 0. -1.
         22    1    3    3    0    0  0.10806211559E+02 -0.28820254426E+01 -0.12494399112E+02  0.16768729471E+02  0.00000000000E+00 0. -1.
</event>
<event>
 7    1  0.7118985E-006  0.5528315E+02  0.7818608E-02  0.1454287E+00
          2   -1    0    0  502    0  0.00000000000E+00  0.00000000000E+00  0.71692299727E+03  0.71692299727E+03  0.00000000000E+00 0. -1.
          1   -1    0    0  501    0 -0.00000000000E+00 -0.00000000000E+00 -0.30765230231E+03  0.30765230231E+03  0.00000000000E+00 0. -1.
         25    2    1    2    0    0 -0.51648762964E+02 -0.80147986264E+02  0.18197455531E+03  0.24048101168E+03  0.12500033512E+03 0.  0.
          2    1    1    2  501    0  0.26240644440E+02  0.33224059716E+02 -0.27536910193E+03  0.27860465154E+03  0.00000000000E+00 0. -1.
          1    1    1    2  502    0  0.25408118524E+02  0.46923926548E+02  0.50266524158E+03  0.50548963636E+03  0.00000000000E+00 0. -1.
         22    1    3    3    0    0  0.39963704545E+02 -0.34788800788E+02  0.44680885472E+02  0.69309017219E+02  0.00000000000E+00 0.  1.
         22    1    3    3    0    0 -0.91612467509E+02 -0.45359185477E+02  0.13729366984E+03  0.17117199446E+03  0.00000000000E+00 0.  1.
</event>
<event>
 7    1  0.7118985E-006  0.1375309E+03  0.7818608E-02  0.1225721E+00
          2   -1    0    0  502    0  0.00000000000E+00  0.00000000000E+00  0.80833309287E+03  0.80833309287E+03  0.00000000000E+00 0. -1.
          1   -1    0    0  501    0 -0.00000000000E+00 -0.00000000000E+00 -0.30242700972E+03  0.30242700972E+03  0.00000000000E+00 0. -1.
         25    2    1    2    0    0  0.48915287756E+02 -0.41107445694E+01  0.67171186551E+02  0.15015630717E+03  0.12500137872E+03 0.  0.
          2    1    1    2  501    0 -0.13768668861E+02 -0.13683996364E+03 -0.23451090572E+03  0.27186415135E+03  0.00000000000E+00 0. -1.
          1    1    1    2  502    0 -0.35146618895E+02  0.14095070821E+03  0.67324580232E+03  0.68873964406E+03  0.00000000000E+00 0. -1.
         22    1    3    3    0    0  0.31452644972E+02  0.47870305447E+02  0.75418531545E+02  0.94703695386E+02  0.00000000000E+00 0.  1.
         22    1    3    3    0    0  0.17462642785E+02 -0.51981050017E+02 -0.82473449940E+01  0.55452611781E+02  0.00000000000E+00 0.  1.
</event>
<event>
 7    1  0.7118985E-006  0.8770318E+02  0.7818608E-02  0.1347437E+00
          2   -1    0    0  502    0  0.00000000000E+00  0.00000000000E+00  0.22146375387E+03  0.22146375387E+03  0.00000000000E+00 0. -1.
          1   -1    0    0  501    0 -0.00000000000E+00 -0.00000000000E+00 -0.14416932201E+04  0.14416932201E+04  0.00000000000E+00 0. -1.
         25    2    1    2    0    0  0.42267588430E+01  0.13450135122E+03 -0.25036094863E+03  0.31050527303E+03  0.12499776402E+03 0.  0.
          2    1    1    2  501    0  0.27626661519E+02 -0.81074054661E+02 -0.11545776124E+04  0.11577502743E+04  0.00000000000E+00 0. -1.
          1    1    1    2  502    0 -0.31853420362E+02 -0.53427296563E+02  0.18470909476E+03  0.19490142661E+03  0.00000000000E+00 0. -1.
         22    1    3    3    0    0  0.28118824874E+02  0.88920016805E+02 -0.54545534090E+02  0.10804005271E+03  0.00000000000E+00 0.  1.
         22    1    3    3    0    0 -0.23892066031E+02  0.45581334418E+02 -0.19581541454E+03  0.20246522032E+03  0.00000000000E+00 0.  1.
</event>
<event>
 7    1  0.7118985E-006  0.9472513E+02  0.7818608E-02  0.1397314E+00
          2   -1    0    0  502    0  0.00000000000E+00  0.00000000000E+00  0.24163207868E+03  0.24163207868E+03  0.00000000000E+00 0. -1.
          1   -1    0    0  501    0 -0.00000000000E+00 -0.00000000000E+00 -0.44793664525E+03  0.44793664525E+03  0.00000000000E+00 0. -1.
         25    2    1    2    0    0  0.67034822837E+02  0.32230960208E+02  0.95685834237E+02  0.17410103014E+03  0.12499154994E+03 0.  0.
          2    1    1    2  501    0  0.23710973770E+02  0.29901116469E+02 -0.37918584432E+03  0.38110128782E+03  0.00000000000E+00 0. -1.
          1    1    1    2  502    0 -0.90745796607E+02 -0.62132076676E+02  0.77195443514E+02  0.13436640597E+03  0.00000000000E+00 0. -1.
         22    1    3    3    0    0 -0.30560286077E+02 -0.15259336056E+02  0.93511204743E+01  0.35414995074E+02  0.00000000000E+00 0. -1.
         22    1    3    3    0    0  0.97595108914E+02  0.47490296264E+02  0.86334713763E+02  0.13868603507E+03  0.00000000000E+00 0. -1.
</event>
<event>
 7    1  0.7118985E-006  0.1488433E+03  0.7818608E-02  0.1290584E+00
          2   -1    0    0  502    0  0.00000000000E+00  0.00000000000E+00  0.77147663404E+03  0.77147663404E+03  0.00000000000E+00 0. -1.
          1   -1    0    0  501    0 -0.00000000000E+00 -0.00000000000E+00 -0.32408154142E+04  0.32408154142E+04  0.00000000000E+00 0. -1.
         25    2    1    2    0    0 -0.13241360745E+03  0.12474068066E+03 -0.21356081446E+03  0.30712801129E+03  0.12500317194E+03 0.  0.
          2    1    1    2  501    0  0.60773042997E+02  0.49082366009E+01 -0.29725859829E+04  0.29732112066E+04  0.00000000000E+00 0. -1.
          1    1    1    2  502    0  0.71640564452E+02 -0.12964891726E+03  0.71680801723E+03  0.73195283030E+03  0.00000000000E+00 0. -1.
         22    1    3    3    0    0 -0.10785375192E+03  0.12491133911E+03 -0.10449658331E+03  0.19533256350E+03  0.00000000000E+00 0.  1.
         22    1    3    3    0    0 -0.24559855526E+02 -0.17065845182E+00 -0.10906423115E+03  0.11179544778E+03  0.00000000000E+00 0.  1.
</event>
<event>
 7    1  0.7118985E-006  0.9965211E+02  0.7818608E-02  0.1329442E+00
          2   -1    0    0  502    0  0.00000000000E+00  0.00000000000E+00  0.21965413544E+03  0.21965413544E+03  0.00000000000E+00 0. -1.
          1   -1    0    0  501    0 -0.00000000000E+00 -0.00000000000E+00 -0.23435473384E+04  0.23435473384E+04  0.00000000000E+00 0. -1.
         25    2    1    2    0    0 -0.15411266754E+03  0.51286839125E+02 -0.92564421067E+03  0.94806305714E+03  0.12500120560E+03 0.  0.
          2    1    1    2  501    0  0.58609441407E+02 -0.25715413106E+02 -0.13941946686E+04  0.13956629690E+04  0.00000000000E+00 0. -1.
          1    1    1    2  502    0  0.95503226132E+02 -0.25571426019E+02  0.19594567637E+03  0.21947544764E+03  0.00000000000E+00 0. -1.
         22    1    3    3    0    0 -0.63976860337E+02 -0.37081370298E+02 -0.44593409306E+03  0.45202354146E+03  0.00000000000E+00 0. -1.
         22    1    3    3    0    0 -0.90135807203E+02  0.88368209423E+02 -0.47971011761E+03  0.49603951568E+03  0.00000000000E+00 0. -1.
</event>
<event>
 7    1  0.7118985E-006  0.1356348E+03  0.7818608E-02  0.1266003E+00
          2   -1    0    0  502    0  0.00000000000E+00  0.00000000000E+00  0.20624826894E+04  0.20624826894E+04  0.00000000000E+00 0. -1.
          1   -1    0    0  501    0 -0.00000000000E+00 -0.00000000000E+00 -0.60045043969E+03  0.60045043969E+03  0.00000000000E+00 0. -1.
         25    2    1    2    0    0  0.24251024601E+02 -0.21804516599E+03 -0.16888750515E+03  0.30377482325E+03  0.12499738892E+03 0.  0.
          2    1    1    2  501    0 -0.75331839322E+01  0.84259897724E+02 -0.35689115369E+03  0.36678028138E+03  0.00000000000E+00 0. -1.
          1    1    1    2  502    0 -0.16717840669E+02  0.13378526826E+03  0.19878109085E+04  0.19923780244E+04  0.00000000000E+00 0. -1.
         22    1    3    3    0    0 -0.28284541479E+01 -0.35620517592E+02 -0.10119832312E+03  0.10732158231E+03  0.00000000000E+00 0. -1.
         22    1    3    3    0    0  0.27079478749E+02 -0.18242464840E+03 -0.67689182029E+02  0.19645324094E+03  0.00000000000E+00 0. -1.
</event>
<event>
 7    1  0.7118985E-006  0.6062843E+02  0.7818608E-02  0.1477927E+00
          2   -1    0    0  502    0  0.00000000000E+00  0.00000000000E+00  0.60626770902E+03  0.60626770902E+03  0.00000000000E+00 0. -1.
          1   -1    0    0  501    0 -0.00000000000E+00 -0.00000000000E+00 -0.13134597133E+03  0.13134597133E+03  0.00000000000E+00 0. -1.
         25    2    1    2    0    0 -0.37191808140E+02  0.57445197234E+01  0.35516048682E+03  0.37839150187E+03  0.12499970875E+03 0.  0.
          2    1    1    2  501    0  0.49622599866E+02 -0.35838766668E+02 -0.11068706121E+03  0.12648496010E+03  0.00000000000E+00 0. -1.
          1    1    1    2  502    0 -0.12430791726E+02  0.30094246945E+02  0.23044831207E+03  0.23273721838E+03  0.00000000000E+00 0. -1.
         22    1    3    3    0    0 -0.60062958338E+02  0.43983909295E+02  0.13893880179E+03  0.15762656465E+03  0.00000000000E+00 0.  1.
         22    1    3    3    0    0  0.22871150199E+02 -0.38239389571E+02  0.21622168504E+03  0.22076493722E+03  0.00000000000E+00 0.  1.
</event>
<event>
 7    1  0.7118985E-006  0.6538827E+02  0.7818608E-02  0.1478254E+00
          2   -1    0    0  502    0  0.00000000000E+00  0.00000000000E+00  0.14161857963E+04  0.14161857963E+04  0.00000000000E+00 0. -1.
          1   -1    0    0  501    0 -0.00000000000E+00 -0.00000000000E+00 -0.19397892599E+03  0.19397892599E+03  0.00000000000E+00 0. -1.
         25    2    1    2    0    0 -0.23070591187E+02 -0.29413239096E+02  0.79545473585E+02  0.15280532801E+03  0.12499838034E+03 0.  0.
          2    1    1    2  501    0  0.36244830889E+02  0.56499725919E+02 -0.15000647649E+03  0.16434065165E+03  0.00000000000E+00 0. -1.
          1    1    1    2  502    0 -0.13174239702E+02 -0.27086486823E+02  0.12926678732E+04  0.12930187426E+04  0.00000000000E+00 0. -1.
         22    1    3    3    0    0  0.47295987700E+02  0.70398011808E+01  0.13615298946E+02  0.49717659021E+02  0.00000000000E+00 0.  1.
         22    1    3    3    0    0 -0.70366578886E+02 -0.36453040276E+02  0.65930174639E+02  0.10308766899E+03  0.00000000000E+00 0.  1.
</event>
<event>
 7    1  0.7118985E-006  0.5520095E+02  0.7818608E-02  0.1475939E+00
          2   -1    0    0  502    0  0.00000000000E+00  0.00000000000E+00  0.99223605701E+03  0.99223605701E+03  0.00000000000E+00 0. -1.
          1   -1    0    0  501    0 -0.00000000000E+00 -0.00000000000E+00 -0.24189448784E+02  0.24189448784E+02  0.00000000000E+00 0. -1.
         25    2    1    2    0    0  0.26737794740E+02 -0.66434246350E+01  0.53081178074E+03  0.54602380087E+03  0.12498719850E+03 0.  0.
          2    1    1    2  501    0 -0.56568929555E+02 -0.13986552735E+02  0.38100125978E+02  0.69622460800E+02  0.00000000000E+00 0. -1.
          1    1    1    2  502    0  0.29831134814E+02  0.20629977370E+02  0.39913470151E+03  0.40077924413E+03  0.00000000000E+00 0. -1.
         22    1    3    3    0    0 -0.13460222780E+02  0.44635227610E+02  0.10025314065E+03  0.11056298364E+03  0.00000000000E+00 0. -1.
         22    1    3    3    0    0  0.40198017520E+02 -0.51278652245E+02  0.43055864009E+03  0.43546081724E+03  0.00000000000E+00 0. -1.
</event>
<event>
 7    1  0.7118985E-006  0.1109860E+03  0.7818608E-02  0.1393084E+00
          2   -1    0    0  502    0  0.00000000000E+00  0.00000000000E+00  0.63086813591E+03  0.63086813591E+03  0.00000000000E+00 0. -1.
          1   -1    0    0  501    0 -0.00000000000E+00 -0.00000000000E+00 -0.55707709498E+02  0.55707709498E+02  0.00000000000E+00 0. -1.
         25    2    1    2    0    0 -0.47126404995E+02 -0.78089916206E+02  0.14103000005E+03  0.20936105433E+03  0.12499462826E+03 0.  0.
          2    1    1    2  501    0 -0.33253485774E+02 -0.53913775721E+01  0.66932447353E+01  0.34346190375E+02  0.00000000000E+00 0. -1.
          1    1    1    2  502    0  0.80379890769E+02  0.83481293778E+02  0.42743718163E+03  0.44286860071E+03  0.00000000000E+00 0. -1.
         22    1    3    3    0    0  0.14704976071E+02 -0.67021062972E+02  0.17552684559E+02  0.70824825720E+02  0.00000000000E+00 0. -1.
         22    1    3    3    0    0 -0.61831381066E+02 -0.11068853235E+02  0.12347731549E+03  0.13853622861E+03  0.00000000000E+00 0. -1.
</event>
<event>
 7    1  0.7118985E-006  0.8327181E+02  0.7818608E-02  0.1472322E+00
          2   -1    0    0  502    0  0.00000000000E+00  0.00000000000E+00  0.23747343938E+04  0.23747343938E+04  0.00000000000E+00 0. -1.
          1   -1    0    0  501    0 -0.00000000000E+00 -0.00000000000E+00 -0.49485893767E+03  0.49485893767E+03  0.00000000000E+00 0. -1.
         25    2    1    2    0    0 -0.23294305491E+02 -0.74848092597E+02  0.28970845328E+03  0.32511640198E+03  0.12499930119E+03 0.  0.
          2    1    1    2  501    0  0.23041807841E+02 -0.88158364370E+01 -0.47598890201E+03  0.47662781992E+03  0.00000000000E+00 0. -1.
          1    1    1    2  502    0  0.25249764990E+00  0.83663929034E+02  0.20661559048E+04  0.20678491095E+04  0.00000000000E+00 0. -1.
         22    1    3    3    0    0 -0.38255356688E+02 -0.12807891158E+02  0.14917743604E+02  0.43012247854E+02  0.00000000000E+00 0. -1.
         22    1    3    3    0    0  0.14961051197E+02 -0.62040201439E+02  0.27479070968E+03  0.28210415412E+03  0.00000000000E+00 0. -1.
</event>
<event>
 7    1  0.7118985E-006  0.6187754E+02  0.7818608E-02  0.1540957E+00
          2   -1    0    0  502    0  0.00000000000E+00  0.00000000000E+00  0.94089465833E+03  0.94089465833E+03  0.00000000000E+00 0. -1.
          1   -1    0    0  501    0 -0.00000000000E+00 -0.00000000000E+00 -0.54886890494E+02  0.54886890494E+02  0.00000000000E+00 0. -1.
         25    2    1    2    0    0 -0.91966568954E+01 -0.79145238788E+02  0.63902064756E+03  0.65598999209E+03  0.12500773733E+03 0.  0.
          2    1    1    2  501    0  0.15544347866E+02  0.59337030640E+02 -0.25560140700E+02  0.66451717422E+02  0.00000000000E+00 0. -1.
          1    1    1    2  502    0 -0.63476909703E+01  0.19808208149E+02  0.27254726097E+03  0.27333983931E+03  0.00000000000E+00 0. -1.
         22    1    3    3    0    0  0.22545382950E+02 -0.55951138754E+02  0.10953549333E+03  0.12504738510E+03  0.00000000000E+00 0. -1.
         22    1    3    3    0    0 -0.31742039846E+02 -0.23194100034E+02  0.52948515423E+03  0.53094260700E+03  0.00000000000E+00 0. -1.
</event>
<event>
 7    1  0.7118985E-006  0.6006561E+02  0.7818608E-02  0.1537593E+00
          2   -1    0    0  502    0  0.00000000000E+00  0.00000000000E+00  0.16652795070E+04  0.16652795070E+04  0.00000000000E+00 0. -1.
          1   -1    0    0  501    0 -0.00000000000E+00 -0.00000000000E+00 -0.29187686938E+03  0.29187686938E+03  0.00000000000E+00 0. -1.
         25    2    1    2    0    0  0.35426523032E+02 -0.14547747744E+02 -0.81510913000E+02  0.15405665392E+03  0.12499099240E+03 0.  0.
          2    1    1    2  501    0  0.20774705155E+02 -0.69384468326E+01 -0.17284615503E+03  0.17422836660E+03  0.00000000000E+00 0. -1.
          1    1    1    2  502    0 -0.56201228187E+02  0.21486194577E+02  0.16277597056E+04  0.16288713558E+04  0.00000000000E+00 0. -1.
         22    1    3    3    0    0  0.71343693122E+02  0.25426022245E+02 -0.58014749746E+02  0.95405012151E+02  0.00000000000E+00 0. -1.
         22    1    3    3    0    0 -0.35917170090E+02 -0.39973769989E+02 -0.23496163255E+02  0.58651641768E+02  0.00000000000E+00 0. -1.
</event>
<event>
 7    1  0.7118985E-006  0.3916113E+02  0.7818608E-02  0.1516279E+00
          2   -1    0    0  502    0  0.00000000000E+00  0.00000000000E+00  0.47415967942E+03  0.47415967942E+03  0.00000000000E+00 0. -1.
          1   -1    0    0  501    0 -0.00000000000E+00 -0.00000000000E+00 -0.12023411215E+03  0.12023411215E+03  0.00000000000E+00 0. -1.
         25    2    1    2    0    0 -0.13551727429E+01 -0.17656162541E+02 -0.37853392668E+01  0.12629807485E+03  0.12499319320E+03 0.  0.
          2    1    1    2  501    0  0.40039702072E+02  0.17053710055E+02 -0.45541059063E+02  0.62992021949E+02  0.00000000000E+00 0. -1.
          1    1    1    2  502    0 -0.38684529329E+02  0.60245248636E+00  0.40325196560E+03  0.40510369477E+03  0.00000000000E+00 0. -1.
         22    1    3    3    0    0 -0.27934761165E+02  0.47695520089E+02  0.34279196452E+01  0.55380178322E+02  0.00000000000E+00 0. -1.
         22    1    3    3    0    0  0.26579588422E+02 -0.65351682630E+02 -0.72132589120E+01  0.70917896524E+02  0.00000000000E+00 0. -1.
</event>
<event>
 7    1  0.7118985E-006  0.6537586E+02  0.7818608E-02  0.1496699E+00
          2   -1    0    0  502    0  0.00000000000E+00  0.00000000000E+00  0.18330375740E+03  0.18330375740E+03  0.00000000000E+00 0. -1.
          1   -1    0    0  501    0 -0.00000000000E+00 -0.00000000000E+00 -0.17151479308E+03  0.17151479308E+03  0.00000000000E+00 0. -1.
         25    2    1    2    0    0  0.70218523425E+02 -0.31507506551E+02 -0.64043722250E+02  0.16015644595E+03  0.12500049928E+03 0.  0.
          2    1    1    2  501    0 -0.23073087980E+02 -0.12996319249E+02 -0.48036333149E+02  0.54852174117E+02  0.00000000000E+00 0. -1.
          1    1    1    2  502    0 -0.47145435444E+02  0.44503825800E+02  0.12386901972E+03  0.13980993041E+03  0.00000000000E+00 0. -1.
         22    1    3    3    0    0  0.38053606475E+02 -0.22796345761E+02 -0.10104982058E+03  0.11035767570E+03  0.00000000000E+00 0. -1.
         22    1    3    3    0    0  0.32164916950E+02 -0.87111607898E+01  0.37006098334E+02  0.49798770252E+02  0.00000000000E+00 0. -1.
</event>
<event>
 7    1  0.7118985E-006  0.3175615E+02  0.7818608E-02  0.1656838E+00
          2   -1    0    0  502    0  0.00000000000E+00  0.00000000000E+00  0.31582186846E+03  0.31582186846E+03  0.00000000000E+00 0. -1.
          1   -1    0    0  501    0 -0.00000000000E+00 -0.00000000000E+00 -0.14817368188E+03  0.14817368188E+03  0.00000000000E+00 0. -1.
         25    2    1    2    0    0 -0.20397195009E+01  0.28836666788E+02  0.33649105115E+02  0.13263874806E+03  0.12500024562E+03 0.  0.
          2    1    1    2  501    0 -0.17970836288E+02 -0.26519543838E+02 -0.95626298110E+02  0.10084952183E+03  0.00000000000E+00 0. -1.
          1    1    1    2  502    0  0.20010555789E+02 -0.23171229502E+01  0.22962537958E+03  0.23050728046E+03  0.00000000000E+00 0. -1.
         22    1    3    3    0    0 -0.30566327682E+01 -0.18329346051E+02 -0.40610805806E+02  0.44660334513E+02  0.00000000000E+00 0.  1.
         22    1    3    3    0    0  0.10169132673E+01  0.47166012839E+02  0.74259910921E+02  0.87978413544E+02  0.00000000000E+00 0.  1.
</event>
<event>
 7    1  0.7118985E-006  0.5699465E+02  0.7818608E-02  0.1426642E+00
          2   -1    0    0  502    0  0.00000000000E+00  0.00000000000E+00  0.26321850949E+03  0.26321850949E+03  0.00000000000E+00 0. -1.
          1   -1    0    0  501    0 -0.00000000000E+00 -0.00000000000E+00 -0.86616091285E+03  0.86616091285E+03  0.00000000000E+00 0. -1.
         25    2    1    2    0    0 -0.22373111413E+02  0.13832968196E+02  0.38289468685E+02  0.13335305416E+03  0.12500018607E+03 0.  0.
          2    1    1    2  501    0  0.50011827383E+02  0.28411631352E+02 -0.81400210693E+03  0.81603176027E+03  0.00000000000E+00 0. -1.
          1    1    1    2  502    0 -0.27638715971E+02 -0.42244599549E+02  0.17277023489E+03  0.17999460790E+03  0.00000000000E+00 0. -1.
         22    1    3    3    0    0  0.32744271362E+02  0.22939712080E+02 -0.26377236357E+02  0.47897560430E+02  0.00000000000E+00 0. -1.
         22    1    3    3    0    0 -0.55117382774E+02 -0.91067438836E+01  0.64666705041E+02  0.85455493732E+02  0.00000000000E+00 0. -1.
</event>
<event>
 7    1  0.7118985E-006  0.9554240E+02  0.7818608E-02  0.1360586E+00
          2   -1    0    0  502    0  0.00000000000E+00  0.00000000000E+00  0.18403090649E+04  0.18403090649E+04  0.00000000000E+00 0. -1.
          1   -1    0    0  501    0 -0.00000000000E+00 -0.00000000000E+00 -0.23374939823E+03  0.23374939823E+03  0.00000000000E+00 0. -1.
         25    2    1    2    0    0  0.58435821804E+02  0.11241616525E+03 -0.40145098207E+02  0.18245168477E+03  0.12499939554E+03 0.  0.
          2    1    1    2  501    0 -0.64859232019E+02 -0.61747417456E+02 -0.10565623169E+03  0.13850163477E+03  0.00000000000E+00 0. -1.
          1    1    1    2  502    0  0.64234102146E+01 -0.50668747792E+02  0.17523609966E+04  0.17531051436E+04  0.00000000000E+00 0. -1.
         22    1    3    3    0    0 -0.15653309840E+02 -0.28058882538E+01  0.25886438503E+02  0.30381027241E+02  0.00000000000E+00 0.  1.
         22    1    3    3    0    0  0.74089131644E+02  0.11522205350E+03 -0.66031536710E+02  0.15207065753E+03  0.00000000000E+00 0.  1.
</event>
<event>
 7    1  0.7118985E-006  0.5626658E+02  0.7818608E-02  0.1427429E+00
          2   -1    0    0  502    0  0.00000000000E+00  0.00000000000E+00  0.30430916524E+03  0.30430916524E+03  0.00000000000E+00 0. -1.
          1   -1    0    0  501    0 -0.00000000000E+00 -0.00000000000E+00 -0.43307094261E+03  0.43307094261E+03  0.00000000000E+00 0. -1.
         25    2    1    2    0    0  0.50158361560E+02 -0.79085517699E+01 -0.21378444034E+03  0.25280164881E+03  0.12500592100E+03 0.  0.
          2    1    1    2  501    0 -0.29511991258E+02  0.54357292543E+02 -0.19262727416E+03  0.20231396302E+03  0.00000000000E+00 0. -1.
          1    1    1    2  502    0 -0.20646370302E+02 -0.46448740773E+02  0.27764993713E+03  0.28226449602E+03  0.00000000000E+00 0. -1.
         22    1    3    3    0    0  0.17565038565E+02 -0.64910289167E+02 -0.86347153069E+02  0.10944271133E+03  0.00000000000E+00 0. -1.
         22    1    3    3    0    0  0.32593322995E+02  0.57001737397E+02 -0.12743728727E+03  0.14335893749E+03  0.00000000000E+00 0. -1.
</event>
<event>
 7    1  0.7118985E-006  0.1352152E+03  0.7818608E-02  0.1374793E+00
          2   -1    0    0  502    0  0.00000000000E+00  0.00000000000E+00  0.11677337805E+04  0.11677337805E+04  0.00000000000E+00 0. -1.
          1   -1    0    0  501    0 -0.00000000000E+00 -0.00000000000E+00 -0.20068809940E+03  0.20068809940E+03  0.00000000000E+00 0. -1.
         25    2    1    2    0    0 -0.87295581105E+02 -0.90435811601E+02  0.34911639724E+03  0.39154598951E+03  0.12500739410E+03 0.  0.
          2    1    1    2  501    0 -0.28640821779E+02  0.14432275875E+02 -0.17195430606E+03  0.17491961191E+03  0.00000000000E+00 0. -1.
          1    1    1    2  502    0  0.11593640288E+03  0.76003535727E+02  0.78988358992E+03  0.80195627847E+03  0.00000000000E+00 0. -1.
         22    1    3    3    0    0 -0.93751372190E+02 -0.15664540578E+02  0.13868104132E+03  0.16812831064E+03  0.00000000000E+00 0.  1.
         22    1    3    3    0    0  0.64557910842E+01 -0.74771271023E+02  0.21043535592E+03  0.22341767886E+03  0.00000000000E+00 0.  1.
</event>
<event>
 7    1  0.7118985E-006  0.1127136E+03  0.7818608E-02  0.1383509E+00
          2   -1    0    0  502    0  0.00000000000E+00  0.00000000000E+00  0.80176533986E+02  0.80176533986E+02  0.00000000000E+00 0. -1.
          1   -1    0    0  501    0 -0.00000000000E+00 -0.00000000000E+00 -0.20650143086E+04  0.20650143086E+04  0.00000000000E+00 0. -1.
         25    2    1    2    0    0  0.22369068473E+02  0.11306277335E+03 -0.66371579752E+03  0.68514719838E+03  0.12499783053E+03 0.  0.
          2    1    1    2  501    0  0.13455101469E+02 -0.11236609054E+03 -0.13834926059E+04  0.13881134567E+04  0.00000000000E+00 0. -1.
          1    1    1    2  502    0 -0.35824169942E+02 -0.69668280696E+00  0.62370628876E+02  0.71930187441E+02  0.00000000000E+00 0. -1.
         22    1    3    3    0    0 -0.13222322176E+02  0.94455796923E+02 -0.22215158141E+03  0.24176032035E+03  0.00000000000E+00 0.  1.
         22    1    3    3    0    0  0.35591390649E+02  0.18606976428E+02 -0.44156421611E+03  0.44338687803E+03  0.00000000000E+00 0.  1.
</event>
<event>
 7    1  0.7118985E-006  0.3127127E+02  0.7818608E-02  0.1591871E+00
          2   -1    0    0  502    0  0.00000000000E+00  0.00000000000E+00  0.22814062137E+04  0.22814062137E+04  0.00000000000E+00 0. -1.
          1   -1    0    0  501    0 -0.00000000000E+00 -0.00000000000E+00 -0.58532880345E+02  0.58532880345E+02  0.00000000000E+00 0. -1.
         25    2    1    2    0    0  0.28044095852E+02 -0.26912260373E+02  0.21292372417E+03  0.24994418580E+03  0.12499937052E+03 0.  0.
          2    1    1    2  501    0  0.15048450093E+01  0.31378798596E+02 -0.33731938428E+02  0.46094872057E+02  0.00000000000E+00 0. -1.
          1    1    1    2  502    0 -0.29548940861E+02 -0.44665382233E+01  0.20436815476E+04  0.20439000361E+04  0.00000000000E+00 0. -1.
         22    1    3    3    0    0  0.41262398160E+02  0.41784934748E+02  0.74641903057E+02  0.94973575092E+02  0.00000000000E+00 0. -1.
         22    1    3    3    0    0 -0.13218302308E+02 -0.68697195121E+02  0.13828182111E+03  0.15497061071E+03  0.00000000000E+00 0. -1.
</event>
<event>
 7    1  0.7118985E-006  0.7245939E+02  0.7818608E-02  0.1367422E+00
          2   -1    0    0  502    0  0.00000000000E+00  0.00000000000E+00  0.41110725342E+04  0.41110725342E+04  0.00000000000E+00 0. -1.
          1   -1    0    0  501    0 -0.00000000000E+00 -0.00000000000E+00 -0.37328087954E+02  0.37328087954E+02  0.00000000000E+00 0. -1.
         25    2    1    2    0    0  0.36533294554E+02  0.80036089063E+02  0.55963687558E+03  0.58013656384E+03  0.12499817208E+03 0.  0.
          2    1    1    2  501    0 -0.68732564435E+02 -0.25180824280E+02  0.23216471733E+02  0.76793514602E+02  0.00000000000E+00 0. -1.
          1    1    1    2  502    0  0.32199269880E+02 -0.54855264783E+02  0.34908910989E+04  0.34914705437E+04  0.00000000000E+00 0. -1.
         22    1    3    3    0    0  0.47006156877E+02  0.65623727935E+02  0.55615659308E+03  0.56198417102E+03  0.00000000000E+00 0. -1.
         22    1    3    3    0    0 -0.10472862323E+02  0.14412361128E+02  0.34802825013E+01  0.18152392812E+02  0.00000000000E+00 0. -1.
</event>
<event>
 7    1  0.7118985E-006  0.1250849E+03  0.7818608E-02  0.1375956E+00
          2   -1    0    0  502    0  0.00000000000E+00  0.00000000000E+00  0.48006958493E+03  0.48006958493E+03  0.00000000000E+00 0. -1.
          1   -1    0    0  501    0 -0.00000000000E+00 -0.00000000000E+00 -0.15358611130E+03  0.15358611130E+03  0.00000000000E+00 0. -1.
         25    2    1    2    0    0 -0.22263445615E+02  0.95923326427E+02  0.58137183148E+02  0.16941817580E+03  0.12500256263E+03 0.  0.
          2    1    1    2  501    0 -0.20094476590E+02  0.27846024141E+02 -0.82733869568E+02  0.89577241661E+02  0.00000000000E+00 0. -1.
          1    1    1    2  502    0  0.42357922205E+02 -0.12376935057E+03  0.35108016005E+03  0.37466027878E+03  0.00000000000E+00 0. -1.
         22    1    3    3    0    0  0.11189007855E+02  0.52834956434E+02  0.90938182013E+02  0.10576615463E+03  0.00000000000E+00 0. -1.
         22    1    3    3    0    0 -0.33452453471E+02  0.43088369994E+02 -0.32800998865E+02  0.63652021166E+02  0.00000000000E+00 0. -1.
</event>
<event>
 7    1  0.7118985E-006  0.6968010E+02  0.7818608E-02  0.1474654E+00
          2   -1    0    0  502    0  0.00000000000E+00  0.00000000000E+00  0.14615778899E+04  0.14615778899E+04  0.00000000000E+00 0. -1.
          1   -1    0    0  501    0 -0.00000000000E+00 -0.00000000000E+00 -0.17085242232E+02  0.17085242232E+02  0.00000000000E+00 0. -1.
         25    2    1    2    0    0  0.20946314779E+02  0.39172693138E+02  0.44318241382E+03  0.46261201958E+03  0.12500392294E+03 0.  0.
          2    1    1    2  501    0  0.10268587574E+02  0.27117724083E+02  0.29089783545E+02  0.41073475101E+02  0.00000000000E+00 0. -1.
          1    1    1    2  502    0 -0.31214902352E+02 -0.66290417222E+02  0.97222045029E+03  0.97497763744E+03  0.00000000000E+00 0. -1.
         22    1    3    3    0    0 -0.43707168559E+02  0.46062514651E+02  0.27648725668E+03  0.28368516871E+03  0.00000000000E+00 0.  1.
         22    1    3    3    0    0  0.64653483338E+02 -0.68898215122E+01  0.16669515715E+03  0.17892685088E+03  0.00000000000E+00 0.  1.
</event>
<event>
 7    1  0.7118985E-006  0.9560877E+02  0.7818608E-02  0.1298376E+00
          2   -1    0    0  502    0  0.00000000000E+00  0.00000000000E+00  0.82932420536E+02  0.82932420536E+02  0.00000000000E+00 0. -1.
          1   -1    0    0  501    0 -0.00000000000E+00 -0.00000000000E+00 -0.25772484566E+04  0.25772484566E+04  0.00000000000E+00 0. -1.
         25    2    1    2    0    0  0.80045153862E+02  0.20022023610E+02 -0.14604012566E+04  0.14680612877E+04  0.12499602403E+03 0.  0.
          2    1    1    2  501    0 -0.82120758617E+02  0.75564215450E+02 -0.10801630615E+04  0.10859125237E+04  0.00000000000E+00 0. -1.
          1    1    1    2  502    0  0.20756047545E+01 -0.95586239060E+02  0.46248282025E+02  0.10620706579E+03  0.00000000000E+00 0. -1.
         22    1    3    3    0    0  0.12873043487E+02  0.66046693610E+02 -0.74842430389E+03  0.75144315795E+03  0.00000000000E+00 0.  1.
         22    1    3    3    0    0  0.67172110375E+02 -0.46024669999E+02 -0.71197695273E+03  0.71661812974E+03  0.00000000000E+00 0.  1.
</event>
<event>
 7    1  0.7118985E-006  0.9949259E+02  0.7818608E-02  0.1307024E+00
          2   -1    0    0  502    0  0.00000000000E+00  0.00000000000E+00  0.16182844856E+04  0.16182844856E+04  0.00000000000E+00 0. -1.
          1   -1    0    0  501    0 -0.00000000000E+00 -0.00000000000E+00 -0.38434070809E+03  0.38434070809E+03  0.00000000000E+00 0. -1.
         25    2    1    2    0    0 -0.92981984937E+02  0.94944010544E+02  0.36891352961E+01  0.18246503831E+03  0.12497946162E+03 0.  0.
          2    1    1    2  501    0  0.78295442619E+02  0.32989393041E+01 -0.28809588494E+03  0.29856372562E+03  0.00000000000E+00 0. -1.
          1    1    1    2  502    0  0.14686542317E+02 -0.98242949848E+02  0.15183505272E+04  0.15215964298E+04  0.00000000000E+00 0. -1.
         22    1    3    3    0    0 -0.77892316578E+02  0.69465001098E+02 -0.54081307131E+02  0.11754738253E+03  0.00000000000E+00 0. -1.
         22    1    3    3    0    0 -0.15089668359E+02  0.25479009445E+02  0.57770442427E+02  0.64917655778E+02  0.00000000000E+00 0. -1.
</event>
<event>
 7    1  0.7118985E-006  0.1187638E+03  0.7818608E-02  0.1406699E+00
          2   -1    0    0  502    0  0.00000000000E+00  0.00000000000E+00  0.10916199288E+04  0.10916199288E+04  0.00000000000E+00 0. -1.
          1   -1    0    0  501    0 -0.00000000000E+00 -0.00000000000E+00 -0.12287450426E+04  0.12287450426E+04  0.00000000000E+00 0. -1.
         25    2    1    2    0    0  0.13005851958E+03  0.66918654424E+02  0.41966516940E+03  0.46166771591E+03  0.12499960272E+03 0.  0.
          2    1    1    2  501    0 -0.10769522789E+03 -0.49635309043E+02 -0.12045240712E+04  0.12103471255E+04  0.00000000000E+00 0. -1.
          1    1    1    2  502    0 -0.22363291690E+02 -0.17283345381E+02  0.64773378806E+03  0.64835012998E+03  0.00000000000E+00 0. -1.
         22    1    3    3    0    0  0.15423273167E+03  0.48212143526E+02  0.36102366219E+03  0.39553790079E+03  0.00000000000E+00 0.  1.
         22    1    3    3    0    0 -0.24174212085E+02  0.18706510898E+02  0.58641507207E+02  0.66129815117E+02  0.00000000000E+00 0.  1.
</event>
<event>
 7    1  0.7118985E-006  0.6279226E+02  0.7818608E-02  0.1423489E+00
          2   -1    0    0  502    0  0.00000000000E+00  0.00000000000E+00  0.13141673171E+04  0.13141673171E+04  0.00000000000E+00 0. -1.
          1   -1    0    0  501    0 -0.00000000000E+00 -0.00000000000E+00 -0.23918809576E+04  0.23918809576E+04  0.00000000000E+00 0. -1.
         25    2    1    2    0    0 -0.65598509078E+02 -0.74042881636E+01  0.37413760449E+03  0.39995209783E+03  0.12499898235E+03 0.  0.
          2    1    1    2  501    0  0.41134571301E+02  0.47462909741E+02 -0.23779647048E+04  0.23787940050E+04  0.00000000000E+00 0. -1.
          1    1    1    2  502    0  0.24463937776E+02 -0.40058621577E+02  0.92611345985E+03  0.92730217185E+03  0.00000000000E+00 0. -1.
         22    1    3    3    0    0 -0.20771152311E+02 -0.30448220855E+02  0.19400992081E+02  0.41652531919E+02  0.00000000000E+00 0.  1.
         22    1    3    3    0    0 -0.44827356767E+02  0.23043932691E+02  0.35473661241E+03  0.35829956591E+03  0.00000000000E+00 0.  1.
</event>
<event>
 7    1  0.7118985E-006  0.7473725E+02  0.7818608E-02  0.1454353E+00
          2   -1    0    0  502    0  0.00000000000E+00  0.00000000000E+00  0.59070771733E+03  0.59070771733E+03  0.00000000000E+00 0. -1.
          1   -1    0    0  501    0 -0.00000000000E+00 -0.00000000000E+00 -0.18079702804E+03  0.18079702804E+03  0.00000000000E+00 0. -1.
         25    2    1    2    0    0 -0.38652932943E+02  0.37999394876E+02  0.23875549200E+03  0.27489473689E+03  0.12499971270E+03 0.  0.
          2    1    1    2  501    0  0.69073279743E+02 -0.30624829828E+02 -0.15316228952E+03  0.17078549443E+03  0.00000000000E+00 0. -1.
          1    1    1    2  502    0 -0.30420346800E+02 -0.73745650473E+01  0.32431748681E+03  0.32582451405E+03  0.00000000000E+00 0. -1.
         22    1    3    3    0    0 -0.15404985479E+02  0.10518579155E+02  0.23816521596E+03  0.23889458801E+03  0.00000000000E+00 0. -1.
         22    1    3    3    0    0 -0.23247947465E+02  0.27480815720E+02  0.59027603931E+00  0.36000148886E+02  0.00000000000E+00 0. -1.
</event>
<event>
 7    1  0.7118985E-006  0.1022172E+03  0.7818608E-02  0.1311827E+00
          2   -1    0    0  502    0  0.00000000000E+00  0.00000000000E+00  0.92035325337E+02  0.92035325337E+02  0.00000000000E+00 0. -1.
          1   -1    0    0  501    0 -0.00000000000E+00 -0.00000000000E+00 -0.96224943905E+03  0.96224943905E+03  0.00000000000E+00 0. -1.
         25    2    1    2    0    0  0.84369838448E+02  0.56445327666E+02 -0.35981270087E+03  0.39420178484E+03  0.12500209121E+03 0.  0.
          2    1    1    2  501    0 -0.29195703265E+02 -0.10427573654E+03 -0.56092905833E+03  0.57128559127E+03  0.00000000000E+00 0. -1.
          1    1    1    2  502    0 -0.55174135183E+02  0.47830408879E+02  0.50527645484E+02  0.88797388277E+02  0.00000000000E+00 0. -1.
         22    1    3    3    0    0  0.92129033560E+02  0.49749911243E+02 -0.14345295055E+03  0.17759944120E+03  0.00000000000E+00 0. -1.
         22    1    3    3    0    0 -0.77591951127E+01  0.66954164232E+01 -0.21635975033E+03  0.21660234364E+03  0.00000000000E+00 0. -1.
</event>
<event>
 7    1  0.7118985E-006  0.1991206E+03  0.7818608E-02  0.1359350E+00
          2   -1    0    0  502    0  0.00000000000E+00  0.00000000000E+00  0.13809047399E+04  0.13809047399E+04  0.00000000000E+00 0. -1.
          1   -1    0    0  501    0 -0.00000000000E+00 -0.00000000000E+00 -0.11177908853E+03  0.11177908853E+03  0.00000000000E+00 0. -1.
         25    2    1    2    0    0 -0.18549056849E+03  0.43078529364E+02  0.10472110372E+03  0.25070297204E+03  0.12499183947E+03 0.  0.
          2    1    1    2  501    0  0.21000114634E+03 -0.39556481127E+02  0.25699236243E+03  0.33423086484E+03  0.00000000000E+00 0. -1.
          1    1    1    2  502    0 -0.24510577845E+02 -0.35220482370E+01  0.90741218518E+03  0.90774999150E+03  0.00000000000E+00 0. -1.
         22    1    3    3    0    0 -0.16801536430E+03  0.57729463406E+02  0.12734268132E+03  0.21858182009E+03  0.00000000000E+00 0.  1.
         22    1    3    3    0    0 -0.17475204191E+02 -0.14650934042E+02 -0.22621577600E+02  0.32121151956E+02  0.00000000000E+00 0.  1.
</event>
<event>
 7    1  0.7118985E-006  0.1005934E+03  0.7818608E-02  0.1419576E+00
          2   -1    0    0  502    0  0.00000000000E+00  0.00000000000E+00  0.12189064092E+03  0.12189064092E+03  0.00000000000E+00 0. -1.
          1   -1    0    0  501    0 -0.00000000000E+00 -0.00000000000E+00 -0.14590889236E+04  0.14590889236E+04  0.00000000000E+00 0. -1.
         25    2    1    2    0    0  0.11051799200E+03  0.46351432553E+02 -0.49082643771E+03  0.52047880536E+03  0.12499965207E+03 0.  0.
          2    1    1    2  501    0 -0.81321058505E+02 -0.54042053194E+02 -0.94875111090E+03  0.95376219704E+03  0.00000000000E+00 0. -1.
          1    1    1    2  502    0 -0.29196933491E+02  0.76906206413E+01  0.10237926589E+03  0.10673856217E+03  0.00000000000E+00 0. -1.
         22    1    3    3    0    0  0.24650698657E+02  0.75266390775E+02 -0.28049945831E+03  0.29146634907E+03  0.00000000000E+00 0.  1.
         22    1    3    3    0    0  0.85867293339E+02 -0.28914958222E+02 -0.21032697940E+03  0.22901245629E+03  0.00000000000E+00 0.  1.
</event>
<event>
 7    1  0.7118985E-006  0.2483087E+02  0.7818608E-02  0.1663853E+00
          2   -1    0    0  502    0  0.00000000000E+00  0.00000000000E+00  0.23535345057E+03  0.23535345057E+03  0.00000000000E+00 0. -1.
          1   -1    0    0  501    0 -0.00000000000E+00 -0.00000000000E+00 -0.69386169627E+03  0.69386169627E+03  0.00000000000E+00 0. -1.
         25    2    1    2    0    0  0.70499505901E+01 -0.72262524536E+01 -0.34092398914E+02  0.12995915557E+03  0.12500067970E+03 0.  0.
          2    1    1    2  501    0  0.14427565639E+02  0.20140026018E+02 -0.61074590207E+03  0.61124817561E+03  0.00000000000E+00 0. -1.
          1    1    1    2  502    0 -0.21477516229E+02 -0.12913773564E+02  0.18633005527E+03  0.18800781566E+03  0.00000000000E+00 0. -1.
         22    1    3    3    0    0  0.50235591636E+02  0.33073123410E+02  0.29835639327E+01  0.60219164830E+02  0.00000000000E+00 0.  1.
         22    1    3    3    0    0 -0.43185641045E+02 -0.40299375864E+02 -0.37075962846E+02  0.69739990741E+02  0.00000000000E+00 0.  1.
</event>
<event>
 7    1  0.7118985E-006  0.1495642E+03  0.7818608E-02  0.1254887E+00
          2   -1    0    0  502    0  0.00000000000E+00  0.00000000000E+00  0.84474761077E+02  0.84474761077E+02  0.00000000000E+00 0. -1.
          1   -1    0    0  501    0 -0.00000000000E+00 -0.00000000000E+00 -0.14450086154E+04  0.14450086154E+04  0.00000000000E+00 0. -1.
         25    2    1    2    0    0  0.61128519953E+02  0.80789864386E+02 -0.73563346496E+03  0.75302365356E+03  0.12499731965E+03 0.  0.
          2    1    1    2  501    0 -0.42078665195E+02  0.74504842074E+02 -0.61366100893E+03  0.61959778844E+03  0.00000000000E+00 0. -1.
          1    1    1    2  502    0 -0.19049854758E+02 -0.15529470646E+03 -0.11239380454E+02  0.15686193450E+03  0.00000000000E+00 0. -1.
         22    1    3    3    0    0  0.18574008517E+02  0.59657954043E+02 -0.11761616942E+03  0.13318268875E+03  0.00000000000E+00 0.  1.
         22    1    3    3    0    0  0.42554511436E+02  0.21131910343E+02 -0.61801729553E+03  0.61984096481E+03  0.00000000000E+00 0.  1.
</event>
<event>
 7    1  0.7118985E-006  0.1257481E+03  0.7818608E-02  0.1397000E+00
          2   -1    0    0  502    0  0.00000000000E+00  0.00000000000E+00  0.99728345651E+03  0.99728345651E+03  0.00000000000E+00 0. -1.
          1   -1    0    0  501    0 -0.00000000000E+00 -0.00000000000E+00 -0.38282448087E+03  0.38282448087E+03  0.00000000000E+00 0. -1.
         25    2    1    2    0    0 -0.48089008896E+02 -0.86472330439E+02  0.43253718234E+02  0.16521690605E+03  0.12504289342E+03 0.  0.
          2    1    1    2  501    0 -0.13465367978E+02 -0.25479312463E+02 -0.31661590294E+03  0.31792474187E+03  0.00000000000E+00 0. -1.
          1    1    1    2  502    0  0.61554376874E+02  0.11195164290E+03  0.88782116035E+03  0.89696628946E+03  0.00000000000E+00 0. -1.
         22    1    3    3    0    0 -0.92427057891E+01 -0.96642140836E+02  0.67560830458E+02  0.11827762598E+03  0.00000000000E+00 0. -1.
         22    1    3    3    0    0 -0.38846303106E+02  0.10169810397E+02 -0.24307112224E+02  0.46939280067E+02  0.00000000000E+00 0. -1.
</event>
<event>
 7    1  0.7118985E-006  0.4760975E+02  0.7818608E-02  0.1467148E+00
          2   -1    0    0  502    0  0.00000000000E+00  0.00000000000E+00  0.53922666766E+03  0.53922666766E+03  0.00000000000E+00 0. -1.
          1   -1    0    0  501    0 -0.00000000000E+00 -0.00000000000E+00 -0.19894574785E+03  0.19894574785E+03  0.00000000000E+00 0. -1.
         25    2    1    2    0    0 -0.23457441164E+02  0.77406715259E+02  0.14057737436E+03  0.20476120438E+03  0.12499240586E+03 0.  0.
          2    1    1    2  501    0 -0.87335819177E+01 -0.43919916481E+02 -0.16233857714E+03  0.16840144936E+03  0.00000000000E+00 0. -1.
          1    1    1    2  502    0  0.32191023081E+02 -0.33486798778E+02  0.36204212259E+03  0.36500976177E+03  0.00000000000E+00 0. -1.
         22    1    3    3    0    0 -0.71892293505E+02  0.46164552247E+02  0.55090982652E+02  0.10165964843E+03  0.00000000000E+00 0.  1.
         22    1    3    3    0    0  0.48434852342E+02  0.31242163012E+02  0.85486391709E+02  0.10310155595E+03  0.00000000000E+00 0.  1.
</event>
<event>
 7    1  0.7118985E-006  0.4928832E+02  0.7818608E-02  0.1545763E+00
          2   -1    0    0  502    0  0.00000000000E+00  0.00000000000E+00  0.22474638629E+04  0.22474638629E+04  0.00000000000E+00 0. -1.
          1   -1    0    0  501    0 -0.00000000000E+00 -0.00000000000E+00 -0.13431696626E+02  0.13431696626E+02  0.00000000000E+00 0. -1.
         25    2    1    2    0    0 -0.21175290406E+02  0.48054443939E+02  0.56651407334E+03  0.58251242499E+03  0.12499962986E+03 0.  0.
          2    1    1    2  501    0 -0.40938827441E+01 -0.49536951972E+02  0.11056311468E+03  0.12122240640E+03  0.00000000000E+00 0. -1.
          1    1    1    2  502    0  0.25269173150E+02  0.14825080325E+01  0.15569549782E+04  0.15571607281E+04  0.00000000000E+00 0. -1.
         22    1    3    3    0    0 -0.13718959943E+02  0.90499621720E+02  0.35153658619E+03  0.36325798384E+03  0.00000000000E+00 0.  1.
         22    1    3    3    0    0 -0.74563304629E+01 -0.42445177780E+02  0.21497748716E+03  0.21925444115E+03  0.00000000000E+00 0.  1.
</event>
<event>
 7    1  0.7118985E-006  0.6770522E+02  0.7818608E-02  0.1395086E+00
          2   -1    0    0  502    0  0.00000000000E+00  0.00000000000E+00  0.27741763011E+03  0.27741763011E+03  0.00000000000E+00 0. -1.
          1   -1    0    0  501    0 -0.00000000000E+00 -0.00000000000E+00 -0.75225623975E+03  0.75225623975E+03  0.00000000000E+00 0. -1.
         25    2    1    2    0    0  0.56993361781E+01  0.84606374513E+02  0.30356850385E+02  0.15407667508E+03  0.12500944923E+03 0.  0.
          2    1    1    2  501    0 -0.46767310682E+02 -0.49011728093E+02 -0.68470146158E+03  0.68804463688E+03  0.00000000000E+00 0. -1.
          1    1    1    2  502    0  0.41067974503E+02 -0.35594646420E+02  0.17950600156E+03  0.18755255791E+03  0.00000000000E+00 0. -1.
         22    1    3    3    0    0 -0.36330189422E+02  0.78535816116E+02 -0.19381786589E+02  0.88675874554E+02  0.00000000000E+00 0. -1.
         22    1    3    3    0    0  0.42029525600E+02  0.60705583970E+01  0.49738636974E+02  0.65400800526E+02  0.00000000000E+00 0. -1.
</event>
<event>
 7    1  0.7118985E-006  0.1433879E+03  0.7818608E-02  0.1316828E+00
          2   -1    0    0  502    0  0.00000000000E+00  0.00000000000E+00  0.90655475487E+02  0.90655475487E+02  0.00000000000E+00 0. -1.
          1   -1    0    0  501    0 -0.00000000000E+00 -0.00000000000E+00 -0.41703846785E+03  0.41703846785E+03  0.00000000000E+00 0. -1.
         25    2    1    2    0    0 -0.13117141791E+03 -0.82367778013E+01 -0.11797441774E+03  0.21636979463E+03  0.12499655756E+03 0.  0.
          2    1    1    2  501    0  0.14840745363E+03 -0.38442345003E+02 -0.16579918507E+03  0.22581398529E+03  0.00000000000E+00 0. -1.
          1    1    1    2  502    0 -0.17236035720E+02  0.46679122805E+02 -0.42609389553E+02  0.65510163420E+02  0.00000000000E+00 0. -1.
         22    1    3    3    0    0 -0.37274181739E+02  0.15397529918E+01 -0.11609986506E+03  0.12194635759E+03  0.00000000000E+00 0.  1.
         22    1    3    3    0    0 -0.93897236168E+02 -0.97765307931E+01 -0.18745526844E+01  0.94423437039E+02  0.00000000000E+00 0.  1.
</event>
<event>
 7    1  0.7118985E-006  0.8612810E+02  0.7818608E-02  0.1374921E+00
          2   -1    0    0  502    0  0.00000000000E+00  0.00000000000E+00  0.36414685415E+03  0.36414685415E+03  0.00000000000E+00 0. -1.
          1   -1    0    0  501    0 -0.00000000000E+00 -0.00000000000E+00 -0.30354618457E+03  0.30354618457E+03  0.00000000000E+00 0. -1.
         25    2    1    2    0    0 -0.90997162192E+02  0.75311173298E+02  0.20247036261E+03  0.26565306514E+03  0.12500018773E+03 0.  0.
          2    1    1    2  501    0  0.48768205098E+02 -0.12306702477E+02 -0.25826272898E+03  0.26311486073E+03  0.00000000000E+00 0. -1.
          1    1    1    2  502    0  0.42228957094E+02 -0.63004470821E+02  0.11639303595E+03  0.13892511285E+03  0.00000000000E+00 0. -1.
         22    1    3    3    0    0 -0.38575311738E+02  0.21424171995E+02  0.18265130222E+03  0.18790568918E+03  0.00000000000E+00 0. -1.
         22    1    3    3    0    0 -0.52421850454E+02  0.53887001303E+02  0.19819060387E+02  0.77747375963E+02  0.00000000000E+00 0. -1.
</event>
<event>
 7    1  0.7118985E-006  0.1288202E+03  0.7818608E-02  0.1403260E+00
          2   -1    0    0  502    0  0.00000000000E+00  0.00000000000E+00  0.48838252809E+03  0.48838252809E+03  0.00000000000E+00 0. -1.
          1   -1    0    0  501    0 -0.00000000000E+00 -0.00000000000E+00 -0.13527648989E+04  0.13527648989E+04  0.00000000000E+00 0. -1.
         25    2    1    2    0    0  0.99549269501E+02  0.36269275289E+02  0.15033335144E+02  0.16455178037E+03  0.12500307944E+03 0.  0.
          2    1    1    2  501    0  0.26559940137E+02  0.33558558542E+01 -0.12669006901E+04  0.12671835111E+04  0.00000000000E+00 0. -1.
          1    1    1    2  502    0 -0.12610920964E+03 -0.39625131143E+02  0.38748498416E+03  0.40941213553E+03  0.00000000000E+00 0. -1.
         22    1    3    3    0    0  0.17998519579E+02  0.57742818371E+02 -0.31542934219E+02  0.68213902393E+02  0.00000000000E+00 0.  1.
         22    1    3    3    0    0  0.81550749922E+02 -0.21473543082E+02  0.46576269364E+02  0.96337877977E+02  0.00000000000E+00 0.  1.
</event>
<event>
 7    1  0.7118985E-006  0.8575971E+02  0.7818608E-02  0.1313985E+00
          2   -1    0    0  502    0  0.00000000000E+00  0.00000000000E+00  0.66794551472E+03  0.66794551472E+03  0.00000000000E+00 0. -1.
          1   -1    0    0  501    0 -0.00000000000E+00 -0.00000000000E+00 -0.68766085376E+03  0.68766085376E+03  0.00000000000E+00 0. -1.
         25    2    1    2    0    0  0.38225344017E+02 -0.12373054973E+03 -0.10583874749E+03  0.20879224030E+03  0.12498773251E+03 0.  0.
          2    1    1    2  501    0 -0.72329245779E+02  0.45316914915E+02 -0.52390990234E+03  0.53081703848E+03  0.00000000000E+00 0. -1.
          1    1    1    2  502    0  0.34103901763E+02  0.78413634812E+02  0.61003331079E+03  0.61599708969E+03  0.00000000000E+00 0. -1.
         22    1    3    3    0    0 -0.10391419224E+02 -0.10194857302E+03 -0.15117553345E+02  0.10358587526E+03  0.00000000000E+00 0.  1.
         22    1    3    3    0    0  0.48616763241E+02 -0.21781976704E+02 -0.90721194144E+02  0.10520636504E+03  0.00000000000E+00 0.  1.
</event>
<event>
 7    1  0.7118985E-006  0.5657927E+02  0.7818608E-02  0.1417192E+00
          2   -1    0    0  502    0  0.00000000000E+00  0.00000000000E+00  0.10164510665E+04  0.10164510665E+04  0.00000000000E+00 0. -1.
          1   -1    0    0  501    0 -0.00000000000E+00 -0.00000000000E+00 -0.12488856710E+03  0.12488856710E+03  0.00000000000E+00 0. -1.
         25    2    1    2    0    0 -0.39958411774E+02  0.36335416770E+02  0.49315927001E+03  0.51161959749E+03  0.12502643623E+03 0.  0.
          2    1    1    2  501    0  0.54586733370E+02  0.16347366299E+02 -0.10707515641E+03  0.12129318598E+03  0.00000000000E+00 0. -1.
          1    1    1    2  502    0 -0.14628321597E+02 -0.52682783069E+02  0.50547838583E+03  0.50842685016E+03  0.00000000000E+00 0. -1.
         22    1    3    3    0    0  0.28830774938E+02  0.19039238906E+02  0.39625109654E+02  0.52572383594E+02  0.00000000000E+00 0.  1.
         22    1    3    3    0    0 -0.68789186712E+02  0.17296177863E+02  0.45353416035E+03  0.45904721389E+03  0.00000000000E+00 0.  1.
</event>
<event>
 7    1  0.7118985E-006  0.1202907E+03  0.7818608E-02  0.1440819E+00
          2   -1    0    0  502    0  0.00000000000E+00  0.00000000000E+00  0.36072836290E+03  0.36072836290E+03  0.00000000000E+00 0. -1.
          1   -1    0    0  501    0 -0.00000000000E+00 -0.00000000000E+00 -0.24535190193E+03  0.24535190193E+03  0.00000000000E+00 0. -1.
         25    2    1    2    0    0 -0.47089390838E+01 -0.10590623942E+03  0.13290898265E+02  0.16444033928E+03  0.12500268618E+03 0.  0.
          2    1    1    2  501    0  0.18083512437E+02  0.12273253992E+03 -0.14658904425E+03  0.19203811516E+03  0.00000000000E+00 0. -1.
          1    1    1    2  502    0 -0.13374573353E+02 -0.16826300503E+02  0.24867460697E+03  0.24960181039E+03  0.00000000000E+00 0. -1.
         22    1    3    3    0    0  0.21756031927E+02 -0.11646120546E+02  0.53253802316E+02  0.58693479281E+02  0.00000000000E+00 0. -1.
         22    1    3    3    0    0 -0.26464971011E+02 -0.94260118870E+02 -0.39962904050E+02  0.10574686000E+03  0.00000000000E+00 0. -1.
</event>
<event>
 7    1  0.7118985E-006  0.2695308E+03  0.7818608E-02  0.1311006E+00
          2   -1    0    0  502    0  0.00000000000E+00  0.00000000000E+00  0.11850123515E+04  0.11850123515E+04  0.00000000000E+00 0. -1.
          1   -1    0    0  501    0 -0.00000000000E+00 -0.00000000000E+00 -0.11911033146E+04  0.11911033146E+04  0.00000000000E+00 0. -1.
         25    2    1    2    0    0 -0.64069397573E+02 -0.24639762658E+03  0.40855289012E+02  0.28654937189E+03  0.12499883920E+03 0.  0.
          2    1    1    2  501    0  0.17801333014E+02 -0.21481584024E+02 -0.10499781857E+04  0.10503487689E+04  0.00000000000E+00 0. -1.
          1    1    1    2  502    0  0.46268064559E+02  0.26787921061E+03  0.10030319336E+04  0.10392175254E+04  0.00000000000E+00 0. -1.
         22    1    3    3    0    0  0.23819073896E+02 -0.14558737297E+03  0.39820160957E+02  0.15280273777E+03  0.00000000000E+00 0.  1.
         22    1    3    3    0    0 -0.87888471469E+02 -0.10081025361E+03  0.10351280548E+01  0.13374663413E+03  0.00000000000E+00 0.  1.
</event>
<event>
 7    1  0.7118985E-006  0.3457026E+02  0.7818608E-02  0.1589175E+00
          2   -1    0    0  502    0  0.00000000000E+00  0.00000000000E+00  0.17839132075E+04  0.17839132075E+04  0.00000000000E+00 0. -1.
          1   -1    0    0  501    0 -0.00000000000E+00 -0.00000000000E+00 -0.85515273239E+02  0.85515273239E+02  0.00000000000E+00 0. -1.
         25    2    1    2    0    0  0.27976576510E+02 -0.74665265659E+01  0.14919499712E+04  0.14974586424E+04  0.12501692397E+03 0.  0.
          2    1    1    2  501    0 -0.28236677924E+02 -0.20012530425E+02 -0.78452389504E+02  0.85747237699E+02  0.00000000000E+00 0. -1.
          1    1    1    2  502    0  0.26010141406E+00  0.27479056991E+02  0.28490035257E+03  0.28622260065E+03  0.00000000000E+00 0. -1.
         22    1    3    3    0    0  0.14800547697E+02 -0.64052593568E+02  0.59294230130E+03  0.59657553053E+03  0.00000000000E+00 0.  1.
         22    1    3    3    0    0  0.13176028813E+02  0.56586067002E+02  0.89900766991E+03  0.90088311188E+03  0.00000000000E+00 0.  1.
</event>
<event>
 7    1  0.7118985E-006  0.4764874E+02  0.7818608E-02  0.1500825E+00
          2   -1    0    0  502    0  0.00000000000E+00  0.00000000000E+00  0.22519012711E+03  0.22519012711E+03  0.00000000000E+00 0. -1.
          1   -1    0    0  501    0 -0.00000000000E+00 -0.00000000000E+00 -0.33725936844E+03  0.33725936844E+03  0.00000000000E+00 0. -1.
         25    2    1    2    0    0  0.36335025144E+01 -0.40659610412E+02 -0.46941518318E+02  0.13962357145E+03  0.12499931721E+03 0.  0.
          2    1    1    2  501    0 -0.37567482439E+02  0.30875560670E+02 -0.23976859939E+03  0.24464994837E+03  0.00000000000E+00 0. -1.
          1    1    1    2  502    0  0.33933979925E+02  0.97840497421E+01  0.17464087638E+03  0.17817597573E+03  0.00000000000E+00 0. -1.
         22    1    3    3    0    0  0.57647334259E+02 -0.50427826503E+02 -0.26298698741E+02  0.80980259251E+02  0.00000000000E+00 0. -1.
         22    1    3    3    0    0 -0.54013831744E+02  0.97682160909E+01 -0.20642819578E+02  0.58643312197E+02  0.00000000000E+00 0. -1.
</event>
<event>
 7    1  0.7118985E-006  0.9533853E+02  0.7818608E-02  0.1305205E+00
          2   -1    0    0  502    0  0.00000000000E+00  0.00000000000E+00  0.17280132448E+04  0.17280132448E+04  0.00000000000E+00 0. -1.
          1   -1    0    0  501    0 -0.00000000000E+00 -0.00000000000E+00 -0.71355101087E+03  0.71355101087E+03  0.00000000000E+00 0. -1.
         25    2    1    2    0    0 -0.13343753673E+03  0.88774681206E+02  0.92912410801E+03  0.95109636934E+03  0.12500470171E+03 0.  0.
          2    1    1    2  501    0  0.50698613802E+02 -0.80533887798E+02 -0.69712952564E+03  0.70359479251E+03  0.00000000000E+00 0. -1.
          1    1    1    2  502    0  0.82738922923E+02 -0.82407934076E+01  0.78246765159E+03  0.78687309385E+03  0.00000000000E+00 0. -1.
         22    1    3    3    0    0 -0.11457834809E+03  0.53336173288E+02  0.87295503595E+03  0.88205637010E+03  0.00000000000E+00 0. -1.
         22    1    3    3    0    0 -0.18859188637E+02  0.35438507917E+02  0.56169072062E+02  0.69039999245E+02  0.00000000000E+00 0. -1.
</event>
<event>
 7    1  0.7118985E-006  0.6319498E+02  0.7818608E-02  0.1537636E+00
          2   -1    0    0  502    0  0.00000000000E+00  0.00000000000E+00  0.38492551919E+04  0.38492551919E+04  0.00000000000E+00 0. -1.
          1   -1    0    0  501    0 -0.00000000000E+00 -0.00000000000E+00 -0.26895345184E+03  0.26895345184E+03  0.00000000000E+00 0. -1.
         25    2    1    2    0    0  0.48948730412E+01 -0.46949600247E+02  0.26391010657E+04  0.26424813999E+04  0.12500115498E+03 0.  0.
          2    1    1    2  501    0 -0.21546630818E+02  0.59434504916E+02 -0.26343358199E+03  0.27091321451E+03  0.00000000000E+00 0. -1.
          1    1    1    2  502    0  0.16651757776E+02 -0.12484904669E+02  0.12046342563E+04  0.12048140294E+04  0.00000000000E+00 0. -1.
         22    1    3    3    0    0 -0.44090024023E+02 -0.60677763160E+02  0.19799355950E+04  0.19813557685E+04  0.00000000000E+00 0. -1.
         22    1    3    3    0    0  0.48984897064E+02  0.13728162913E+02  0.65916547074E+03  0.66112563134E+03  0.00000000000E+00 0. -1.
</event>
<event>
 7    1  0.7118985E-006  0.1669743E+03  0.7818608E-02  0.1297254E+00
          2   -1    0    0  502    0  0.00000000000E+00  0.00000000000E+00  0.64528559186E+03  0.64528559186E+03  0.00000000000E+00 0. -1.
          1   -1    0    0  501    0 -0.00000000000E+00 -0.00000000000E+00 -0.97298981923E+03  0.97298981923E+03  0.00000000000E+00 0. -1.
         25    2    1    2    0    0  0.19808211699E+03 -0.57906459815E+02  0.29720965885E+02  0.24309936346E+03  0.12499712614E+03 0.  0.
          2    1    1    2  501    0 -0.14873374087E+03  0.71090132738E+02 -0.85714453211E+03  0.87285295530E+03  0.00000000000E+00 0. -1.
          1    1    1    2  502    0 -0.49348376124E+02 -0.13183672923E+02  0.49971933886E+03  0.50232309233E+03  0.00000000000E+00 0. -1.
         22    1    3    3    0    0  0.30664463960E+01  0.27918933112E+02  0.98264361469E+00  0.28104012313E+02  0.00000000000E+00 0.  1.
         22    1    3    3    0    0  0.19501567060E+03 -0.85825392927E+02  0.28738322270E+02  0.21499535115E+03  0.00000000000E+00 0.  1.
</event>
<event>
 7    1  0.7118985E-006  0.1449792E+03  0.7818608E-02  0.1364390E+00
          2   -1    0    0  502    0  0.00000000000E+00  0.00000000000E+00  0.37955168846E+03  0.37955168846E+03  0.00000000000E+00 0. -1.
          1   -1    0    0  501    0 -0.00000000000E+00 -0.00000000000E+00 -0.51926484529E+03  0.51926484529E+03  0.00000000000E+00 0. -1.
         25    2    1    2    0    0 -0.34370753818E+02  0.13278202116E+03  0.10032054903E+02  0.18584467523E+03  0.12500074929E+03 0.  0.
          2    1    1    2  501    0  0.29240887802E+02  0.14420590423E+02 -0.41140990175E+03  0.41269975794E+03  0.00000000000E+00 0. -1.
          1    1    1    2  502    0  0.51298660154E+01 -0.14720261158E+03  0.26166469002E+03  0.30027210058E+03  0.00000000000E+00 0. -1.
         22    1    3    3    0    0 -0.67278626596E+02  0.13351112240E+03 -0.51563166243E+01  0.14959351926E+03  0.00000000000E+00 0. -1.
         22    1    3    3    0    0  0.32907872778E+02 -0.72910124583E+00  0.15188371527E+02  0.36251155969E+02  0.00000000000E+00 0. -1.
</event>
<event>
 7    1  0.7118985E-006  0.1539759E+03  0.7818608E-02  0.1196141E+00
          2   -1    0    0  502    0  0.00000000000E+00  0.00000000000E+00  0.85050318338E+03  0.85050318338E+03  0.00000000000E+00 0. -1.
          1   -1    0    0  501    0 -0.00000000000E+00 -0.00000000000E+00 -0.24659767836E+03  0.24659767836E+03  0.00000000000E+00 0. -1.
         25    2    1    2    0    0  0.39308810391E+02 -0.15536524377E+03 -0.17911342877E+02  0.20403249881E+03  0.12499961129E+03 0.  0.
          2    1    1    2  501    0 -0.16465691389E+03  0.65942549248E+02 -0.65225517670E+02  0.18898329886E+03  0.00000000000E+00 0. -1.
          1    1    1    2  502    0  0.12534810350E+03  0.89422694518E+02  0.68704236557E+03  0.70408506406E+03  0.00000000000E+00 0. -1.
         22    1    3    3    0    0 -0.24636164251E+02 -0.17797642940E+02  0.32189671565E+02  0.44270437526E+02  0.00000000000E+00 0.  1.
         22    1    3    3    0    0  0.63944974642E+02 -0.13756760083E+03 -0.50101014442E+02  0.15976206129E+03  0.00000000000E+00 0.  1.
</event>
<event>
 7    1  0.7118985E-006  0.1630068E+03  0.7818608E-02  0.1314503E+00
          2   -1    0    0  502    0  0.00000000000E+00  0.00000000000E+00  0.42099840204E+03  0.42099840204E+03  0.00000000000E+00 0. -1.
          1   -1    0    0  501    0 -0.00000000000E+00 -0.00000000000E+00 -0.42845245998E+04  0.42845245998E+04  0.00000000000E+00 0. -1.
         25    2    1    2    0    0 -0.16292830396E+03 -0.12704512679E+03 -0.15338483264E+03  0.28607504347E+03  0.12500370852E+03 0.  0.
          2    1    1    2  501    0  0.12868532956E+03  0.98319877182E+02 -0.40617664021E+04  0.40649936061E+04  0.00000000000E+00 0. -1.
          1    1    1    2  502    0  0.34242974393E+02  0.28725249604E+02  0.35162503695E+03  0.35445435231E+03  0.00000000000E+00 0. -1.
         22    1    3    3    0    0 -0.85919785135E+02 -0.13370425297E+02 -0.11372492612E+03  0.14315843172E+03  0.00000000000E+00 0.  1.
         22    1    3    3    0    0 -0.77008518820E+02 -0.11367470149E+03 -0.39659906513E+02  0.14291661175E+03  0.00000000000E+00 0.  1.
</event>
<event>
 7    1  0.7118985E-006  0.7689734E+02  0.7818608E-02  0.1345140E+00
          2   -1    0    0  502    0  0.00000000000E+00  0.00000000000E+00  0.88732036981E+03  0.88732036981E+03  0.00000000000E+00 0. -1.
          1   -1    0    0  501    0 -0.00000000000E+00 -0.00000000000E+00 -0.17591618402E+03  0.17591618402E+03  0.00000000000E+00 0. -1.
         25    2    1    2    0    0 -0.27941566915E+02 -0.53098642984E+02  0.11578104559E+03  0.18064044591E+03  0.12500209252E+03 0.  0.
          2    1    1    2  501    0 -0.42854991659E+02  0.68035606247E+02 -0.13028011523E+03  0.15309572970E+03  0.00000000000E+00 0. -1.
          1    1    1    2  502    0  0.70796558574E+02 -0.14936963262E+02  0.72590325543E+03  0.72950037822E+03  0.00000000000E+00 0. -1.
         22    1    3    3    0    0 -0.17473593451E+02 -0.26134709469E+02  0.13964631327E+03  0.14314133685E+03  0.00000000000E+00 0.  1.
         22    1    3    3    0    0 -0.10467973464E+02 -0.26963933515E+02 -0.23865267676E+02  0.37499109060E+02  0.00000000000E+00 0.  1.
</event>
<event>
 7    1  0.7118985E-006  0.1141208E+03  0.7818608E-02  0.1393568E+00
          2   -1    0    0  502    0  0.00000000000E+00  0.00000000000E+00  0.27255376691E+03  0.27255376691E+03  0.00000000000E+00 0. -1.
          1   -1    0    0  501    0 -0.00000000000E+00 -0.00000000000E+00 -0.44256638760E+03  0.44256638760E+03  0.00000000000E+00 0. -1.
         25    2    1    2    0    0 -0.97269351033E+02  0.65293519762E+02 -0.10502752988E+03  0.20094875130E+03  0.12500019297E+03 0.  0.
          2    1    1    2  501    0  0.23878576915E+02  0.22246274748E+02 -0.27402143540E+03  0.27595802259E+03  0.00000000000E+00 0. -1.
          1    1    1    2  502    0  0.73390774118E+02 -0.87539794510E+02  0.20903634458E+03  0.23821338062E+03  0.00000000000E+00 0. -1.
         22    1    3    3    0    0 -0.10158573576E+03  0.10641923175E+02 -0.27110708936E+02  0.10567829852E+03  0.00000000000E+00 0.  1.
         22    1    3    3    0    0  0.43163847308E+01  0.54651596587E+02 -0.77916820946E+02  0.95270452781E+02  0.00000000000E+00 0.  1.
</event>
<event>
 7    1  0.7118985E-006  0.1441497E+03  0.7818608E-02  0.1345204E+00
          2   -1    0    0  502    0  0.00000000000E+00  0.00000000000E+00  0.37668186974E+03  0.37668186974E+03  0.00000000000E+00 0. -1.
          1   -1    0    0  501    0 -0.00000000000E+00 -0.00000000000E+00 -0.21229491218E+04  0.21229491218E+04  0.00000000000E+00 0. -1.
         25    2    1    2    0    0  0.35106383027E+02 -0.17666996768E+03 -0.17174819961E+04  0.17314198871E+04  0.12500273249E+03 0.  0.
          2    1    1    2  501    0 -0.18688499026E+02  0.33748010839E+02 -0.38349895789E+03  0.38543435100E+03  0.00000000000E+00 0. -1.
          1    1    1    2  502    0 -0.16417884001E+02  0.14292195684E+03  0.35471370188E+03  0.38277675342E+03  0.00000000000E+00 0. -1.
         22    1    3    3    0    0  0.68986187759E+02 -0.96023114729E+02 -0.67522779478E+03  0.68550135485E+03  0.00000000000E+00 0. -1.
         22    1    3    3    0    0 -0.33879804732E+02 -0.80646852946E+02 -0.10422542013E+04  0.10459185323E+04  0.00000000000E+00 0. -1.
</event>
<event>
 7    1  0.7118985E-006  0.5882652E+02  0.7818608E-02  0.1451323E+00
          2   -1    0    0  502    0  0.00000000000E+00  0.00000000000E+00  0.17549288044E+04  0.17549288044E+04  0.00000000000E+00 0. -1.
          1   -1    0    0  501    0 -0.00000000000E+00 -0.00000000000E+00 -0.12888853192E+03  0.12888853192E+03  0.00000000000E+00 0. -1.
         25    2    1    2    0    0 -0.57848478498E+02  0.64007138732E+01  0.17339187898E+02  0.13896490469E+03  0.12499272657E+03 0.  0.
          2    1    1    2  501    0  0.50866424781E+02  0.33656909644E+02 -0.54115138686E+02  0.81539125404E+02  0.00000000000E+00 0. -1.
          1    1    1    2  502    0  0.69820537171E+01 -0.40057623517E+02  0.16628162232E+04  0.16633133062E+04  0.00000000000E+00 0. -1.
         22    1    3    3    0    0  0.21577013269E+02 -0.30324136266E+02 -0.21771245102E+02  0.43117373009E+02  0.00000000000E+00 0.  1.
         22    1    3    3    0    0 -0.79425491767E+02  0.36724850139E+02  0.39110433001E+02  0.95847531682E+02  0.00000000000E+00 0.  1.
</event>
<event>
 7    1  0.7118985E-006  0.1622522E+03  0.7818608E-02  0.1280422E+00
          2   -1    0    0  502    0  0.00000000000E+00  0.00000000000E+00  0.16735656298E+04  0.16735656298E+04  0.00000000000E+00 0. -1.
          1   -1    0    0  501    0 -0.00000000000E+00 -0.00000000000E+00 -0.91048930544E+03  0.91048930544E+03  0.00000000000E+00 0. -1.
         25    2    1    2    0    0  0.22145889662E+03 -0.60260155332E+01  0.16535286856E+03  0.30337828271E+03  0.12496581743E+03 0.  0.
          2    1    1    2  501    0 -0.16001952840E+03  0.98583631503E+01 -0.83317240318E+03  0.84845724124E+03  0.00000000000E+00 0. -1.
          1    1    1    2  502    0 -0.61439368222E+02 -0.38323476172E+01  0.14308958590E+04  0.14322194113E+04  0.00000000000E+00 0. -1.
         22    1    3    3    0    0  0.70528937307E+02  0.12466953385E+02  0.12819420503E+03  0.14684519103E+03  0.00000000000E+00 0. -1.
         22    1    3    3    0    0  0.15092995931E+03 -0.18492968918E+02  0.37158663526E+02  0.15653309168E+03  0.00000000000E+00 0. -1.
</event>
<event>
 7    1  0.7118985E-006  0.7455484E+02  0.7818608E-02  0.1384358E+00
          2   -1    0    0  502    0  0.00000000000E+00  0.00000000000E+00  0.22701308635E+04  0.22701308635E+04  0.00000000000E+00 0. -1.
          1   -1    0    0  501    0 -0.00000000000E+00 -0.00000000000E+00 -0.11076068719E+04  0.11076068719E+04  0.00000000000E+00 0. -1.
         25    2    1    2    0    0  0.56748804459E+01  0.20142331010E+02  0.13033699751E+04  0.13095173672E+04  0.12499810088E+03 0.  0.
          2    1    1    2  501    0 -0.13671675961E+02 -0.73343308144E+02 -0.11025206525E+04  0.11050420557E+04  0.00000000000E+00 0. -1.
          1    1    1    2  502    0  0.79967955151E+01  0.53200977134E+02  0.96167466911E+03  0.96317831262E+03  0.00000000000E+00 0. -1.
         22    1    3    3    0    0  0.34525194189E+02 -0.14588684575E+02  0.11215185563E+04  0.11221446836E+04  0.00000000000E+00 0.  1.
         22    1    3    3    0    0 -0.28850313743E+02  0.34731015586E+02  0.18185141878E+03  0.18737268360E+03  0.00000000000E+00 0.  1.
</event>
<event>
 7    1  0.7118985E-006  0.2021087E+03  0.7818608E-02  0.1231282E+00
          2   -1    0    0  502    0  0.00000000000E+00  0.00000000000E+00  0.69474551171E+03  0.69474551171E+03  0.00000000000E+00 0. -1.
          1   -1    0    0  501    0 -0.00000000000E+00 -0.00000000000E+00 -0.11193682887E+04  0.11193682887E+04  0.00000000000E+00 0. -1.
         25    2    1    2    0    0 -0.25595775293E+03 -0.10979205176E+03 -0.88787404254E+03  0.93888948540E+03  0.12499793780E+03 0.  0.
          2    1    1    2  501    0  0.79007234413E+02  0.14770941679E+02 -0.18225566568E+03  0.19919199653E+03  0.00000000000E+00 0. -1.
          1    1    1    2  502    0  0.17695051851E+03  0.95021110084E+02  0.64550693123E+03  0.67603231848E+03  0.00000000000E+00 0. -1.
         22    1    3    3    0    0 -0.55727557546E+02  0.27796447135E+02 -0.18839125797E+03  0.19841741159E+03  0.00000000000E+00 0.  1.
         22    1    3    3    0    0 -0.20023019538E+03 -0.13758849890E+03 -0.69948278457E+03  0.74047207381E+03  0.00000000000E+00 0.  1.
</event>
<event>
 7    1  0.7118985E-006  0.5340790E+02  0.7818608E-02  0.1463901E+00
          2   -1    0    0  502    0  0.00000000000E+00  0.00000000000E+00  0.18782836430E+02  0.18782836430E+02  0.00000000000E+00 0. -1.
          1   -1    0    0  501    0 -0.00000000000E+00 -0.00000000000E+00 -0.19426306064E+04  0.19426306064E+04  0.00000000000E+00 0. -1.
         25    2    1    2    0    0  0.29093331283E+02  0.27138864326E+02 -0.90948238894E+03  0.91889366986E+03  0.12499768334E+03 0.  0.
          2    1    1    2  501    0  0.25709825503E+02 -0.31762434345E+02 -0.97260750573E+03  0.97346556568E+03  0.00000000000E+00 0. -1.
          1    1    1    2  502    0 -0.54803156786E+02  0.46235700187E+01 -0.41757875278E+02  0.69054207266E+02  0.00000000000E+00 0. -1.
         22    1    3    3    0    0  0.14601764131E+02  0.34323911160E+02 -0.89865608531E+03  0.89942987612E+03  0.00000000000E+00 0.  1.
         22    1    3    3    0    0  0.14491567152E+02 -0.71850468341E+01 -0.10826303628E+02  0.19463793740E+02  0.00000000000E+00 0.  1.
</event>
<event>
 7    1  0.7118985E-006  0.7911812E+02  0.7818608E-02  0.1466027E+00
          2   -1    0    0  502    0  0.00000000000E+00  0.00000000000E+00  0.18299312740E+04  0.18299312740E+04  0.00000000000E+00 0. -1.
          1   -1    0    0  501    0 -0.00000000000E+00 -0.00000000000E+00 -0.30735746409E+03  0.30735746409E+03  0.00000000000E+00 0. -1.
         25    2    1    2    0    0 -0.66002704766E+02  0.16273432842E+01  0.18482477184E+03  0.23268265494E+03  0.12498806480E+03 0.  0.
          2    1    1    2  501    0  0.74707488186E+02 -0.27359701709E+02 -0.27772887542E+03  0.28889979286E+03  0.00000000000E+00 0. -1.
          1    1    1    2  502    0 -0.87047834203E+01  0.25732358425E+02  0.16154779135E+04  0.16157062903E+04  0.00000000000E+00 0. -1.
         22    1    3    3    0    0 -0.12682640925E+02 -0.57411651000E+02  0.55525208819E+02  0.80870240916E+02  0.00000000000E+00 0.  1.
         22    1    3    3    0    0 -0.53320063840E+02  0.59038994284E+02  0.12929956302E+03  0.15181241403E+03  0.00000000000E+00 0.  1.
</event>
<event>
 7    1  0.7118985E-006  0.8186906E+02  0.7818608E-02  0.1359804E+00
          2   -1    0    0  502    0  0.00000000000E+00  0.00000000000E+00  0.78087881168E+03  0.78087881168E+03  0.00000000000E+00 0. -1.
          1   -1    0    0  501    0 -0.00000000000E+00 -0.00000000000E+00 -0.42705992197E+03  0.42705992197E+03  0.00000000000E+00 0. -1.
         25    2    1    2    0    0  0.13619869810E+02  0.39414072856E+02  0.14661562156E+03  0.19712414546E+03  0.12499127268E+03 0.  0.
          2    1    1    2  501    0  0.59172918946E+02  0.99126967250E+01 -0.39636227435E+03  0.40087747308E+03  0.00000000000E+00 0. -1.
          1    1    1    2  502    0 -0.72792788756E+02 -0.49326769581E+02  0.60356554251E+03  0.60993711512E+03  0.00000000000E+00 0. -1.
         22    1    3    3    0    0  0.65589887784E+02  0.34761915653E+02  0.11249768515E+03  0.13478187313E+03  0.00000000000E+00 0. -1.
         22    1    3    3    0    0 -0.51970017974E+02  0.46521572030E+01  0.34117936403E+02  0.62342272330E+02  0.00000000000E+00 0. -1.
</event>
<event>
 7    1  0.7118985E-006  0.5081794E+02  0.7818608E-02  0.1542324E+00
          2   -1    0    0  502    0  0.00000000000E+00  0.00000000000E+00  0.10938834553E+04  0.10938834553E+04  0.00000000000E+00 0. -1.
          1   -1    0    0  501    0 -0.00000000000E+00 -0.00000000000E+00 -0.82347948135E+03  0.82347948135E+03  0.00000000000E+00 0. -1.
         25    2    1    2    0    0 -0.48286446389E+02  0.54038390214E+02  0.23157452765E+03  0.27295684333E+03  0.12500779153E+03 0.  0.
          2    1    1    2  501    0  0.25270766539E+02 -0.44015445087E+02 -0.80179856928E+03  0.80340333379E+03  0.00000000000E+00 0. -1.
          1    1    1    2  502    0  0.23015679850E+02 -0.10022945128E+02  0.84062801560E+03  0.84100275955E+03  0.00000000000E+00 0. -1.
         22    1    3    3    0    0 -0.80348329425E+02  0.10506333163E+02  0.88427388896E+02  0.11994015251E+03  0.00000000000E+00 0. -1.
         22    1    3    3    0    0  0.32061883036E+02  0.43532057051E+02  0.14314713875E+03  0.15301669081E+03  0.00000000000E+00 0. -1.
</event>
<event>
 7    1  0.7118985E-006  0.1719252E+03  0.7818608E-02  0.1201275E+00
          2   -1    0    0  502    0  0.00000000000E+00  0.00000000000E+00  0.75710631542E+03  0.75710631542E+03  0.00000000000E+00 0. -1.
          1   -1    0    0  501    0 -0.00000000000E+00 -0.00000000000E+00 -0.78392392446E+03  0.78392392446E+03  0.00000000000E+00 0. -1.
         25    2    1    2    0    0 -0.69191141728E+02 -0.25179701405E+03 -0.95778765381E+02  0.30493802801E+03  0.12499791458E+03 0.  0.
          2    1    1    2  501    0  0.97246424807E+02  0.85876800503E+02 -0.56524423120E+03  0.57994200823E+03  0.00000000000E+00 0. -1.
          1    1    1    2  502    0 -0.28055283079E+02  0.16592021354E+03  0.63420538754E+03  0.65615020365E+03  0.00000000000E+00 0. -1.
         22    1    3    3    0    0 -0.76899802630E+01  0.37513521631E+01  0.16913015256E+02  0.18954116296E+02  0.00000000000E+00 0.  1.
         22    1    3    3    0    0 -0.61501161465E+02 -0.25554836621E+03 -0.11269178064E+03  0.28598391171E+03  0.00000000000E+00 0.  1.
</event>
<event>
 7    1  0.7118985E-006  0.1613950E+03  0.7818608E-02  0.1195334E+00
          2   -1    0    0  502    0  0.00000000000E+00  0.00000000000E+00  0.13244262126E+04  0.13244262126E+04  0.00000000000E+00 0. -1.
          1   -1    0    0  501    0 -0.00000000000E+00 -0.00000000000E+00 -0.85066369355E+03  0.85066369355E+03  0.00000000000E+00 0. -1.
         25    2    1    2    0    0 -0.26018950848E+03 -0.80148744488E+02  0.55007618501E+02  0.30458454168E+03  0.12499401334E+03 0.  0.
          2    1    1    2  501    0  0.10437078483E+03  0.10414180661E+03 -0.71286669130E+03  0.72795446023E+03  0.00000000000E+00 0. -1.
          1    1    1    2  502    0  0.15581872365E+03 -0.23993062118E+02  0.11316215919E+04  0.11425509043E+04  0.00000000000E+00 0. -1.
         22    1    3    3    0    0 -0.10821328511E+03 -0.96972111379E+02  0.12286657778E+02  0.14582409753E+03  0.00000000000E+00 0. -1.
         22    1    3    3    0    0 -0.15197622336E+03  0.16823366890E+02  0.42720960723E+02  0.15876044415E+03  0.00000000000E+00 0. -1.
</event>
<event>
 7    1  0.7118985E-006  0.4602558E+02  0.7818608E-02  0.1471321E+00
          2   -1    0    0  502    0  0.00000000000E+00  0.00000000000E+00  0.12225625258E+03  0.12225625258E+03  0.00000000000E+00 0. -1.
          1   -1    0    0  501    0 -0.00000000000E+00 -0.00000000000E+00 -0.21980756405E+03  0.21980756405E+03  0.00000000000E+00 0. -1.
         25    2    1    2    0    0  0.97658071179E+00 -0.52552375625E+02 -0.11881931116E+03  0.18029820240E+03  0.12500682858E+03 0.  0.
          2    1    1    2  501    0 -0.39328925776E+02  0.29097861958E+02 -0.54766116014E+02  0.73435532520E+02  0.00000000000E+00 0. -1.
          1    1    1    2  502    0  0.38352345064E+02  0.23454513667E+02  0.76034115712E+02  0.88330081713E+02  0.00000000000E+00 0. -1.
         22    1    3    3    0    0  0.34561601562E+02  0.13640058282E+02  0.33939727443E+01  0.37310515186E+02  0.00000000000E+00 0.  1.
         22    1    3    3    0    0 -0.33585020850E+02 -0.66192433907E+02 -0.12221328391E+03  0.14298768722E+03  0.00000000000E+00 0.  1.
</event>
<event>
 7    1  0.7118985E-006  0.1628504E+03  0.7818608E-02  0.1337409E+00
          2   -1    0    0  502    0  0.00000000000E+00  0.00000000000E+00  0.34744843512E+03  0.34744843512E+03  0.00000000000E+00 0. -1.
          1   -1    0    0  501    0 -0.00000000000E+00 -0.00000000000E+00 -0.52914179886E+03  0.52914179886E+03  0.00000000000E+00 0. -1.
         25    2    1    2    0    0  0.12575475409E+03 -0.89491921188E+02  0.14432877578E+03  0.24552126081E+03  0.12500732723E+03 0.  0.
          2    1    1    2  501    0 -0.10915147049E+03  0.12202789922E+03 -0.46206211485E+03  0.49021041368E+03  0.00000000000E+00 0. -1.
          1    1    1    2  502    0 -0.16603283604E+02 -0.32535978031E+02  0.13603997534E+03  0.14085855949E+03  0.00000000000E+00 0. -1.
         22    1    3    3    0    0  0.13918486040E+03 -0.44413790285E+02  0.82331713827E+02  0.16770068942E+03  0.00000000000E+00 0. -1.
         22    1    3    3    0    0 -0.13430106308E+02 -0.45078130903E+02  0.61997061949E+02  0.77820571390E+02  0.00000000000E+00 0. -1.
</event>
<event>
 7    1  0.7118985E-006  0.7515485E+02  0.7818608E-02  0.1362989E+00
          2   -1    0    0  502    0  0.00000000000E+00  0.00000000000E+00  0.21269613487E+03  0.21269613487E+03  0.00000000000E+00 0. -1.
          1   -1    0    0  501    0 -0.00000000000E+00 -0.00000000000E+00 -0.26992908497E+03  0.26992908497E+03  0.00000000000E+00 0. -1.
         25    2    1    2    0    0  0.14272501670E+02  0.16280735705E+02  0.25060216254E+02  0.12931008753E+03  0.12499727053E+03 0.  0.
          2    1    1    2  501    0 -0.77553625348E+02 -0.22978688539E+02 -0.20208442431E+03  0.21767108095E+03  0.00000000000E+00 0. -1.
          1    1    1    2  502    0  0.63281123677E+02  0.66979528335E+01  0.11979125795E+03  0.13564405136E+03  0.00000000000E+00 0. -1.
         22    1    3    3    0    0  0.56167748874E+02 -0.18000890342E+02 -0.16290577429E+02  0.61190121585E+02  0.00000000000E+00 0. -1.
         22    1    3    3    0    0 -0.41895247203E+02  0.34281626047E+02  0.41350793683E+02  0.68119965949E+02  0.00000000000E+00 0. -1.
</event>
<event>
 7    1  0.7118985E-006  0.2228822E+03  0.7818608E-02  0.1191331E+00
          2   -1    0    0  502    0  0.00000000000E+00  0.00000000000E+00  0.85460434922E+03  0.85460434922E+03  0.00000000000E+00 0. -1.
          1   -1    0    0  501    0 -0.00000000000E+00 -0.00000000000E+00 -0.42010483570E+03  0.42010483570E+03  0.00000000000E+00 0. -1.
         25    2    1    2    0    0  0.14274292953E+03 -0.29133834372E+03  0.27154134066E+03  0.44115092457E+03  0.12500345637E+03 0.  0.
          2    1    1    2  501    0 -0.89018729069E+02  0.19356069044E+03 -0.29405583470E+03  0.36312382039E+03  0.00000000000E+00 0. -1.
          1    1    1    2  502    0 -0.53724200462E+02  0.97777653279E+02  0.45701400756E+03  0.47043443996E+03  0.00000000000E+00 0. -1.
         22    1    3    3    0    0  0.52693022556E+02 -0.58868207056E+02  0.96837982686E+01  0.79597715903E+02  0.00000000000E+00 0.  1.
         22    1    3    3    0    0  0.90049906975E+02 -0.23247013666E+03  0.26185754239E+03  0.36155320866E+03  0.00000000000E+00 0.  1.
</event>
<event>
 7    1  0.7118985E-006  0.5433223E+02  0.7818608E-02  0.1543234E+00
          2   -1    0    0  502    0  0.00000000000E+00  0.00000000000E+00  0.16537296411E+04  0.16537296411E+04  0.00000000000E+00 0. -1.
          1   -1    0    0  501    0 -0.00000000000E+00 -0.00000000000E+00 -0.28390044414E+03  0.28390044414E+03  0.00000000000E+00 0. -1.
         25    2    1    2    0    0 -0.28180621070E+02  0.66383146440E+02  0.44417524160E+02  0.15099456193E+03  0.12500228696E+03 0.  0.
          2    1    1    2  501    0  0.19454572577E+02 -0.12897539956E+02 -0.22954805008E+03  0.23073173650E+03  0.00000000000E+00 0. -1.
          1    1    1    2  502    0  0.87260484930E+01 -0.53485606485E+02  0.15549597229E+04  0.15559037868E+04  0.00000000000E+00 0. -1.
         22    1    3    3    0    0 -0.65411954523E+02  0.72841072699E+02  0.54280148419E+02  0.11194141405E+03  0.00000000000E+00 0. -1.
         22    1    3    3    0    0  0.37231333453E+02 -0.64579262586E+01 -0.98626242587E+01  0.39053147882E+02  0.00000000000E+00 0. -1.
</event>
<event>
 7    1  0.7118985E-006  0.9947415E+02  0.7818608E-02  0.1301674E+00
          2   -1    0    0  502    0  0.00000000000E+00  0.00000000000E+00  0.16558268929E+04  0.16558268929E+04  0.00000000000E+00 0. -1.
          1   -1    0    0  501    0 -0.00000000000E+00 -0.00000000000E+00 -0.15502310936E+04  0.15502310936E+04  0.00000000000E+00 0. -1.
         25    2    1    2    0    0 -0.42060146863E+02  0.13807433538E+03 -0.50054289237E+02  0.19739204398E+03  0.12499843644E+03 0.  0.
          2    1    1    2  501    0  0.70220323189E+02 -0.42949737873E+02 -0.14237629156E+04  0.14261403906E+04  0.00000000000E+00 0. -1.
          1    1    1    2  502    0 -0.28160176326E+02 -0.95124597506E+02  0.15794130042E+04  0.15825255519E+04  0.00000000000E+00 0. -1.
         22    1    3    3    0    0 -0.78261044844E+02  0.45457712776E+02 -0.33913204268E+02  0.96650402041E+02  0.00000000000E+00 0.  1.
         22    1    3    3    0    0  0.36200897981E+02  0.92616622603E+02 -0.16141084969E+02  0.10074164194E+03  0.00000000000E+00 0.  1.
</event>
<event>
 7    1  0.7118985E-006  0.3714657E+02  0.7818608E-02  0.1544644E+00
          2   -1    0    0  502    0  0.00000000000E+00  0.00000000000E+00  0.22290284872E+03  0.22290284872E+03  0.00000000000E+00 0. -1.
          1   -1    0    0  501    0 -0.00000000000E+00 -0.00000000000E+00 -0.13324486961E+04  0.13324486961E+04  0.00000000000E+00 0. -1.
         25    2    1    2    0    0  0.50000568659E+02  0.90397284902E+01 -0.83353522885E+02  0.15860178169E+03  0.12499976729E+03 0.  0.
          2    1    1    2  501    0 -0.18335074742E+02 -0.28430782316E+02 -0.12093717978E+04  0.12098448784E+04  0.00000000000E+00 0. -1.
          1    1    1    2  502    0 -0.31665493917E+02  0.19391053826E+02  0.18317947336E+03  0.18690488473E+03  0.00000000000E+00 0. -1.
         22    1    3    3    0    0  0.80634043596E+02 -0.96450361231E+00 -0.94750248370E+02  0.12442021066E+03  0.00000000000E+00 0. -1.
         22    1    3    3    0    0 -0.30633474938E+02  0.10004232103E+02  0.11396725485E+02  0.34181571036E+02  0.00000000000E+00 0. -1.
</event>
<event>
 7    1  0.7118985E-006  0.3933146E+02  0.7818608E-02  0.1583561E+00
          2   -1    0    0  502    0  0.00000000000E+00  0.00000000000E+00  0.18020008072E+04  0.18020008072E+04  0.00000000000E+00 0. -1.
          1   -1    0    0  501    0 -0.00000000000E+00 -0.00000000000E+00 -0.30165859922E+02  0.30165859922E+02  0.00000000000E+00 0. -1.
         25    2    1    2    0    0 -0.76385066110E+01 -0.22031013910E+02  0.56002518872E+03  0.57427969605E+03  0.12500097975E+03 0.  0.
          2    1    1    2  501    0 -0.11328529412E+02  0.38315345106E+02 -0.54901330718E+01  0.40330420409E+02  0.00000000000E+00 0. -1.
          1    1    1    2  502    0  0.18967036023E+02 -0.16284331196E+02  0.12172998917E+04  0.12175565507E+04  0.00000000000E+00 0. -1.
         22    1    3    3    0    0  0.85883326078E+01  0.46389872005E+02  0.34087304757E+03  0.34412238265E+03  0.00000000000E+00 0. -1.
         22    1    3    3    0    0 -0.16226839219E+02 -0.68420885915E+02  0.21915214115E+03  0.23015731340E+03  0.00000000000E+00 0. -1.
</event>
<event>
 7    1  0.7118985E-006  0.1760965E+03  0.7818608E-02  0.1203158E+00
          2   -1    0    0  502    0  0.00000000000E+00  0.00000000000E+00  0.92548115525E+03  0.92548115525E+03  0.00000000000E+00 0. -1.
          1   -1    0    0  501    0 -0.00000000000E+00 -0.00000000000E+00 -0.12476838649E+04  0.12476838649E+04  0.00000000000E+00 0. -1.
         25    2    1    2    0    0 -0.21631424426E+03  0.19462608347E+03 -0.16694120742E+03  0.35800151126E+03  0.12499820276E+03 0.  0.
          2    1    1    2  501    0  0.13076830749E+03 -0.10470756724E+03 -0.97337698577E+03  0.98768759297E+03  0.00000000000E+00 0. -1.
          1    1    1    2  502    0  0.85545936768E+02 -0.89918516234E+02  0.81811548359E+03  0.82747591587E+03  0.00000000000E+00 0. -1.
         22    1    3    3    0    0 -0.29857339938E+02  0.10608991646E+03 -0.54427567653E+02  0.12291822991E+03  0.00000000000E+00 0. -1.
         22    1    3    3    0    0 -0.18645690432E+03  0.88536167007E+02 -0.11251363977E+03  0.23508328136E+03  0.00000000000E+00 0. -1.
</event>
<event>
 7    1  0.7118985E-006  0.3312208E+02  0.7818608E-02  0.1625385E+00
          2   -1    0    0  502    0  0.00000000000E+00  0.00000000000E+00  0.31318954969E+03  0.31318954969E+03  0.00000000000E+00 0. -1.
          1   -1    0    0  501    0 -0.00000000000E+00 -0.00000000000E+00 -0.10712859405E+03  0.10712859405E+03  0.00000000000E+00 0. -1.
         25    2    1    2    0    0 -0.30791383103E+01  0.51144923160E+02  0.25515122968E+03  0.28870945315E+03  0.12500285626E+03 0.  0.
          2    1    1    2  501    0 -0.92809933637E+01 -0.31613972421E+02 -0.83722205095E+02  0.89972149669E+02  0.00000000000E+00 0. -1.
          1    1    1    2  502    0  0.12360131674E+02 -0.19530950739E+02  0.34631931057E+02  0.41636540929E+02  0.00000000000E+00 0. -1.
         22    1    3    3    0    0  0.47120694807E+02  0.67462815311E+02  0.15792811031E+03  0.17808110331E+03  0.00000000000E+00 0. -1.
         22    1    3    3    0    0 -0.50199833118E+02 -0.16317892151E+02  0.97223119365E+02  0.11062834984E+03  0.00000000000E+00 0. -1.
</event>
<event>
 7    1  0.7118985E-006  0.1133888E+03  0.7818608E-02  0.1384163E+00
          2   -1    0    0  502    0  0.00000000000E+00  0.00000000000E+00  0.29324690302E+02  0.29324690302E+02  0.00000000000E+00 0. -1.
          1   -1    0    0  501    0 -0.00000000000E+00 -0.00000000000E+00 -0.13002381495E+04  0.13002381495E+04  0.00000000000E+00 0. -1.
         25    2    1    2    0    0  0.47216965266E+02  0.10653777633E+03 -0.47883684990E+03  0.50841813634E+03  0.12499813177E+03 0.  0.
          2    1    1    2  501    0 -0.75420179187E+02 -0.85094634685E+02 -0.77218773957E+03  0.78051470545E+03  0.00000000000E+00 0. -1.
          1    1    1    2  502    0  0.28203213921E+02 -0.21443141642E+02 -0.19888869720E+02  0.40629998003E+02  0.00000000000E+00 0. -1.
         22    1    3    3    0    0 -0.23250106090E+01  0.41311303875E+02 -0.27436273027E+02  0.49646536433E+02  0.00000000000E+00 0. -1.
         22    1    3    3    0    0  0.49541975875E+02  0.65226472453E+02 -0.45140057687E+03  0.45877159991E+03  0.00000000000E+00 0. -1.
</event>
<event>
 7    1  0.7118985E-006  0.6435452E+02  0.7818608E-02  0.1461808E+00
          2   -1    0    0  502    0  0.00000000000E+00  0.00000000000E+00  0.19000336942E+03  0.19000336942E+03  0.00000000000E+00 0. -1.
          1   -1    0    0  501    0 -0.00000000000E+00 -0.00000000000E+00 -0.57416580752E+03  0.57416580752E+03  0.00000000000E+00 0. -1.
         25    2    1    2    0    0 -0.17029221555E+02 -0.60150838367E+02 -0.93097840135E+02  0.16792686445E+03  0.12499642485E+03 0.  0.
          2    1    1    2  501    0  0.34345730247E+02 -0.24099450366E+01 -0.43604030751E+03  0.43739751576E+03  0.00000000000E+00 0. -1.
          1    1    1    2  502    0 -0.17316508693E+02  0.62560783403E+02  0.14497570954E+03  0.15884479674E+03  0.00000000000E+00 0. -1.
         22    1    3    3    0    0 -0.32070027705E+02  0.30151798561E+02 -0.11998406813E+02  0.45624329031E+02  0.00000000000E+00 0.  1.
         22    1    3    3    0    0  0.15040806151E+02 -0.90302636927E+02 -0.81099433322E+02  0.12230253542E+03  0.00000000000E+00 0.  1.
</event>
<event>
 7    1  0.7118985E-006  0.8869596E+02  0.7818608E-02  0.1340004E+00
          2   -1    0    0  502    0  0.00000000000E+00  0.00000000000E+00  0.16222900699E+04  0.16222900699E+04  0.00000000000E+00 0. -1.
          1   -1    0    0  501    0 -0.00000000000E+00 -0.00000000000E+00 -0.12426990159E+03  0.12426990159E+03  0.00000000000E+00 0. -1.
         25    2    1    2    0    0  0.60984546660E+02  0.13787254521E+03  0.29255581874E+03  0.35205088115E+03  0.12499184848E+03 0.  0.
          2    1    1    2  501    0 -0.20536934511E+02 -0.62274046802E+02 -0.81549262516E+02  0.10464274844E+03  0.00000000000E+00 0. -1.
          1    1    1    2  502    0 -0.40447612149E+02 -0.75598498411E+02  0.12870136121E+04  0.12898663419E+04  0.00000000000E+00 0. -1.
         22    1    3    3    0    0  0.62135702976E+01  0.13751982218E+03  0.23671142524E+03  0.27382952504E+03  0.00000000000E+00 0. -1.
         22    1    3    3    0    0  0.54770976362E+02  0.35272302982E+00  0.55844393499E+02  0.78221356102E+02  0.00000000000E+00 0. -1.
</event>
<event>
 7    1  0.7118985E-006  0.4996928E+02  0.7818608E-02  0.1482467E+00
          2   -1    0    0  502    0  0.00000000000E+00  0.00000000000E+00  0.69387347142E+03  0.69387347142E+03  0.00000000000E+00 0. -1.
          1   -1    0    0  501    0 -0.00000000000E+00 -0.00000000000E+00 -0.62916712984E+03  0.62916712984E+03  0.00000000000E+00 0. -1.
         25    2    1    2    0    0  0.21592762642E+02  0.17431775848E+02 -0.18108473345E+03  0.22178157215E+03  0.12500108339E+03 0.  0.
          2    1    1    2  501    0 -0.53461638674E+01 -0.52070563122E+02 -0.42558588543E+03  0.42879280648E+03  0.00000000000E+00 0. -1.
          1    1    1    2  502    0 -0.16246598775E+02  0.34638787274E+02  0.67137696045E+03  0.67246622263E+03  0.00000000000E+00 0. -1.
         22    1    3    3    0    0 -0.40952227449E+02 -0.28884163949E+02 -0.66603447236E+02  0.83351059044E+02  0.00000000000E+00 0.  1.
         22    1    3    3    0    0  0.62544990091E+02  0.46315939797E+02 -0.11448128622E+03  0.13843051310E+03  0.00000000000E+00 0.  1.
</event>
<event>
 7    1  0.7118985E-006  0.1488095E+03  0.7818608E-02  0.1264972E+00
          2   -1    0    0  502    0  0.00000000000E+00  0.00000000000E+00  0.40966738690E+03  0.40966738690E+03  0.00000000000E+00 0. -1.
          1   -1    0    0  501    0 -0.00000000000E+00 -0.00000000000E+00 -0.25860520738E+04  0.25860520738E+04  0.00000000000E+00 0. -1.
         25    2    1    2    0    0 -0.46620831721E+02  0.84485993430E+02 -0.13069558554E+03  0.20497975100E+03  0.12499590875E+03 0.  0.
          2    1    1    2  501    0  0.87747291811E+01 -0.15255665151E+03 -0.24116988599E+04  0.24165351060E+04  0.00000000000E+00 0. -1.
          1    1    1    2  502    0  0.37846102540E+02  0.68070658080E+02  0.36600975861E+03  0.37420460361E+03  0.00000000000E+00 0. -1.
         22    1    3    3    0    0 -0.39422667347E+02  0.11039012829E+03 -0.65087318510E+02  0.13407641909E+03  0.00000000000E+00 0. -1.
         22    1    3    3    0    0 -0.71981643743E+01 -0.25904134862E+02 -0.65608267035E+02  0.70903331915E+02  0.00000000000E+00 0. -1.
</event>
<event>
 7    1  0.7118985E-006  0.5578441E+02  0.7818608E-02  0.1520815E+00
          2   -1    0    0  502    0  0.00000000000E+00  0.00000000000E+00  0.79670685993E+03  0.79670685993E+03  0.00000000000E+00 0. -1.
          1   -1    0    0  501    0 -0.00000000000E+00 -0.00000000000E+00 -0.22459042361E+03  0.22459042361E+03  0.00000000000E+00 0. -1.
         25    2    1    2    0    0  0.40540911845E+00 -0.33801004486E+02  0.30290456506E+01  0.12952483528E+03  0.12499934230E+03 0.  0.
          2    1    1    2  501    0 -0.15374321587E+02  0.55482960698E+02 -0.15595945691E+03  0.16624704777E+03  0.00000000000E+00 0. -1.
          1    1    1    2  502    0  0.14968912468E+02 -0.21681956212E+02  0.72504684758E+03  0.72552540049E+03  0.00000000000E+00 0. -1.
         22    1    3    3    0    0 -0.61775184043E+02 -0.11527431732E+02 -0.47397833166E+01  0.63020001521E+02  0.00000000000E+00 0.  1.
         22    1    3    3    0    0  0.62180593161E+02 -0.22273572755E+02  0.77688289672E+01  0.66504833754E+02  0.00000000000E+00 0.  1.
</event>
<event>
 7    1  0.7118985E-006  0.5154122E+02  0.7818608E-02  0.1490236E+00
          2   -1    0    0  502    0  0.00000000000E+00  0.00000000000E+00  0.54400214242E+03  0.54400214242E+03  0.00000000000E+00 0. -1.
          1   -1    0    0  501    0 -0.00000000000E+00 -0.00000000000E+00 -0.33641676458E+03  0.33641676458E+03  0.00000000000E+00 0. -1.
         25    2    1    2    0    0  0.31088681517E+02 -0.36711313189E+02 -0.18471202863E+03  0.22816281568E+03  0.12500204121E+03 0.  0.
          2    1    1    2  501    0 -0.99984806031E+00  0.54841475781E+02 -0.12356861004E+03  0.13519537178E+03  0.00000000000E+00 0. -1.
          1    1    1    2  502    0 -0.30088833456E+02 -0.18130162592E+02  0.51586601652E+03  0.51706071954E+03  0.00000000000E+00 0. -1.
         22    1    3    3    0    0  0.52973325513E+02 -0.31422181649E+02 -0.19419813834E+03  0.20373130258E+03  0.00000000000E+00 0. -1.
         22    1    3    3    0    0 -0.21884643996E+02 -0.52891315404E+01  0.94861097109E+01  0.24431513108E+02  0.00000000000E+00 0. -1.
</event>
<event>
 7    1  0.7118985E-006  0.6075057E+03  0.7818608E-02  0.1206664E+00
          2   -1    0    0  502    0  0.00000000000E+00  0.00000000000E+00  0.75116503443E+03  0.75116503443E+03  0.00000000000E+00 0. -1.
          1   -1    0    0  501    0 -0.00000000000E+00 -0.00000000000E+00 -0.77423768526E+03  0.77423768526E+03  0.00000000000E+00 0. -1.
         25    2    1    2    0    0 -0.62528673400E+03  0.34591239620E+02  0.27124153485E+03  0.69381367191E+03  0.12500155008E+03 0.  0.
          2    1    1    2  501    0  0.59867275945E+03 -0.56768022686E+02 -0.39875549497E+03  0.72155223378E+03  0.00000000000E+00 0. -1.
          1    1    1    2  502    0  0.26613974553E+02  0.22176783066E+02  0.10444130929E+03  0.11003681400E+03  0.00000000000E+00 0. -1.
         22    1    3    3    0    0 -0.40225725338E+03  0.58350701083E+02  0.12190279598E+03  0.42435361891E+03  0.00000000000E+00 0.  1.
         22    1    3    3    0    0 -0.22302948062E+03 -0.23759461463E+02  0.14933873887E+03  0.26946005300E+03  0.00000000000E+00 0.  1.
</event>
<event>
 7    1  0.7118985E-006  0.2316561E+03  0.7818608E-02  0.1177910E+00
          2   -1    0    0  502    0  0.00000000000E+00  0.00000000000E+00  0.22706041112E+04  0.22706041112E+04  0.00000000000E+00 0. -1.
          1   -1    0    0  501    0 -0.00000000000E+00 -0.00000000000E+00 -0.27307725657E+03  0.27307725657E+03  0.00000000000E+00 0. -1.
         25    2    1    2    0    0  0.83135579564E+02 -0.85466439681E+02  0.11626742972E+02  0.17313620226E+03  0.12499970592E+03 0.  0.
          2    1    1    2  501    0  0.10948357220E+03 -0.59625342443E+02 -0.16464683386E+03  0.20651976647E+03  0.00000000000E+00 0. -1.
          1    1    1    2  502    0 -0.19261915176E+03  0.14509178212E+03  0.21505469455E+04  0.21640253991E+04  0.00000000000E+00 0. -1.
         22    1    3    3    0    0  0.68739718659E+02  0.15435928889E+02 -0.80949154512E+00  0.70456171473E+02  0.00000000000E+00 0. -1.
         22    1    3    3    0    0  0.14395860904E+02 -0.10090236857E+03  0.12436234517E+02  0.10268003079E+03  0.00000000000E+00 0. -1.
</event>
<event>
 7    1  0.7118985E-006  0.1083636E+03  0.7818608E-02  0.1321157E+00
          2   -1    0    0  502    0  0.00000000000E+00  0.00000000000E+00  0.43586403984E+03  0.43586403984E+03  0.00000000000E+00 0. -1.
          1   -1    0    0  501    0 -0.00000000000E+00 -0.00000000000E+00 -0.11568801984E+04  0.11568801984E+04  0.00000000000E+00 0. -1.
         25    2    1    2    0    0 -0.70915240764E+02 -0.62478172286E+02  0.80851393729E+02  0.17633622434E+03  0.12500009105E+03 0.  0.
          2    1    1    2  501    0 -0.42511341825E+02  0.46955981561E+02 -0.10975291879E+04  0.10993554460E+04  0.00000000000E+00 0. -1.
          1    1    1    2  502    0  0.11342658259E+03  0.15522190725E+02  0.29566163560E+03  0.31705256789E+03  0.00000000000E+00 0. -1.
         22    1    3    3    0    0 -0.76800708915E+02  0.71294809736E+01  0.72723580436E+02  0.10600895028E+03  0.00000000000E+00 0. -1.
         22    1    3    3    0    0  0.58854681508E+01 -0.69607653260E+02  0.81278132928E+01  0.70327274059E+02  0.00000000000E+00 0. -1.
</event>
<event>
 7    1  0.7118985E-006  0.1155934E+03  0.7818608E-02  0.1369709E+00
          2   -1    0    0  502    0  0.00000000000E+00  0.00000000000E+00  0.10887439879E+04  0.10887439879E+04  0.00000000000E+00 0. -1.
          1   -1    0    0  501    0 -0.00000000000E+00 -0.00000000000E+00 -0.13794022088E+03  0.13794022088E+03  0.00000000000E+00 0. -1.
         25    2    1    2    0    0 -0.77428569382E+02 -0.23319294181E+02  0.77019784997E+02  0.16761795570E+03  0.12499903581E+03 0.  0.
          2    1    1    2  501    0 -0.39069544722E+02  0.20386716912E+01 -0.84697399952E+02  0.93296490104E+02  0.00000000000E+00 0. -1.
          1    1    1    2  502    0  0.11649811410E+03  0.21280622490E+02  0.95848138194E+03  0.96576976294E+03  0.00000000000E+00 0. -1.
         22    1    3    3    0    0  0.45319200681E+01 -0.49285310722E+02 -0.37747501050E+01  0.49636971007E+02  0.00000000000E+00 0.  1.
         22    1    3    3    0    0 -0.81960489451E+02  0.25966016540E+02  0.80794535102E+02  0.11798098469E+03  0.00000000000E+00 0.  1.
</event>
<event>
 7    1  0.7118985E-006  0.7876885E+02  0.7818608E-02  0.1335997E+00
          2   -1    0    0  502    0  0.00000000000E+00  0.00000000000E+00  0.74052339570E+02  0.74052339570E+02  0.00000000000E+00 0. -1.
          1   -1    0    0  501    0 -0.00000000000E+00 -0.00000000000E+00 -0.79356852422E+03  0.79356852422E+03  0.00000000000E+00 0. -1.
         25    2    1    2    0    0 -0.62212535406E+01  0.19312490531E+02 -0.19993849168E+03  0.23666815607E+03  0.12499895742E+03 0.  0.
          2    1    1    2  501    0  0.74510555727E+02 -0.53687797555E+02 -0.54321917401E+03  0.55092764819E+03  0.00000000000E+00 0. -1.
          1    1    1    2  502    0 -0.68289302187E+02  0.34375307025E+02  0.23641481049E+02  0.80025059527E+02  0.00000000000E+00 0. -1.
         22    1    3    3    0    0 -0.29454307970E+02  0.44275213508E+02 -0.19510940090E+03  0.20222643030E+03  0.00000000000E+00 0. -1.
         22    1    3    3    0    0  0.23233054429E+02 -0.24962722977E+02 -0.48290907751E+01  0.34441725774E+02  0.00000000000E+00 0. -1.
</event>
<event>
 7    1  0.7118985E-006  0.5554219E+02  0.7818608E-02  0.1520740E+00
          2   -1    0    0  502    0  0.00000000000E+00  0.00000000000E+00  0.25754749865E+04  0.25754749865E+04  0.00000000000E+00 0. -1.
          1   -1    0    0  501    0 -0.00000000000E+00 -0.00000000000E+00 -0.74163752596E+02  0.74163752596E+02  0.00000000000E+00 0. -1.
         25    2    1    2    0    0 -0.63137192365E+02  0.46884990984E+02  0.12751067398E+04  0.12836301102E+04  0.12499821790E+03 0.  0.
          2    1    1    2  501    0  0.18500968658E+02 -0.18938312856E+02 -0.66839817652E+02  0.71892327538E+02  0.00000000000E+00 0. -1.
          1    1    1    2  502    0  0.44636223707E+02 -0.27946678128E+02  0.12930443118E+04  0.12941163014E+04  0.00000000000E+00 0. -1.
         22    1    3    3    0    0 -0.93813133302E+02  0.32463915059E+02  0.64327743276E+03  0.65089220710E+03  0.00000000000E+00 0. -1.
         22    1    3    3    0    0  0.30675940937E+02  0.14421075925E+02  0.63182930705E+03  0.63273790311E+03  0.00000000000E+00 0. -1.
</event>
<event>
 7    1  0.7118985E-006  0.7029525E+02  0.7818608E-02  0.1366132E+00
          2   -1    0    0  502    0  0.00000000000E+00  0.00000000000E+00  0.11146651020E+03  0.11146651020E+03  0.00000000000E+00 0. -1.
          1   -1    0    0  501    0 -0.00000000000E+00 -0.00000000000E+00 -0.56488461515E+03  0.56488461515E+03  0.00000000000E+00 0. -1.
         25    2    1    2    0    0  0.30080686332E+01  0.16987891000E+02 -0.78656412576E+02  0.14869234041E+03  0.12499977576E+03 0.  0.
          2    1    1    2  501    0  0.70093954852E+02  0.53159739826E+01 -0.42850068085E+03  0.43422834497E+03  0.00000000000E+00 0. -1.
          1    1    1    2  502    0 -0.73102023485E+02 -0.22303864982E+02  0.53738988472E+02  0.93430439968E+02  0.00000000000E+00 0. -1.
         22    1    3    3    0    0  0.23486135278E+02  0.67461598456E+02 -0.49526624363E+02  0.86922680224E+02  0.00000000000E+00 0.  1.
         22    1    3    3    0    0 -0.20478066645E+02 -0.50473707456E+02 -0.29129788213E+02  0.61769660184E+02  0.00000000000E+00 0.  1.
</event>
<event>
 7    1  0.7118985E-006  0.4291831E+02  0.7818608E-02  0.1492469E+00
          2   -1    0    0  502    0  0.00000000000E+00  0.00000000000E+00  0.11169225524E+04  0.11169225524E+04  0.00000000000E+00 0. -1.
          1   -1    0    0  501    0 -0.00000000000E+00 -0.00000000000E+00 -0.15626246353E+02  0.15626246353E+02  0.00000000000E+00 0. -1.
         25    2    1    2    0    0  0.12192441472E+02 -0.20824725260E+02  0.33081085443E+03  0.35446236779E+03  0.12500169583E+03 0.  0.
          2    1    1    2  501    0 -0.39886353801E+02  0.51782251507E+02  0.40380814728E+03  0.40906398351E+03  0.00000000000E+00 0. -1.
          1    1    1    2  502    0  0.27693912329E+02 -0.30957526246E+02  0.36667730435E+03  0.36902244747E+03  0.00000000000E+00 0. -1.
         22    1    3    3    0    0 -0.34389361395E+01  0.44649390988E+02  0.22231897273E+03  0.22678430288E+03  0.00000000000E+00 0. -1.
         22    1    3    3    0    0  0.15631377612E+02 -0.65474116248E+02  0.10849188170E+03  0.12767806491E+03  0.00000000000E+00 0. -1.
</event>
<event>
 7    1  0.7118985E-006  0.1104653E+03  0.7818608E-02  0.1286542E+00
          2   -1    0    0  502    0  0.00000000000E+00  0.00000000000E+00  0.40454652654E+03  0.40454652654E+03  0.00000000000E+00 0. -1.
          1   -1    0    0  501    0 -0.00000000000E+00 -0.00000000000E+00 -0.10730294503E+04  0.10730294503E+04  0.00000000000E+00 0. -1.
         25    2    1    2    0    0  0.28324355946E+02  0.18954424430E+03 -0.10365064982E+03  0.25119195905E+03  0.12499861358E+03 0.  0.
          2    1    1    2  501    0 -0.81138933151E+01 -0.10664174105E+03 -0.88683816027E+03  0.89326380130E+03  0.00000000000E+00 0. -1.
          1    1    1    2  502    0 -0.20210462631E+02 -0.82902503248E+02  0.32200588630E+03  0.33312021653E+03  0.00000000000E+00 0. -1.
         22    1    3    3    0    0  0.59074308761E+02  0.31692158833E+02 -0.20232720757E+02  0.70025208863E+02  0.00000000000E+00 0. -1.
         22    1    3    3    0    0 -0.30749952816E+02  0.15785208547E+03 -0.83417929063E+02  0.18116675019E+03  0.00000000000E+00 0. -1.
</event>
<event>
 7    1  0.7118985E-006  0.1116173E+03  0.7818608E-02  0.1333268E+00
          2   -1    0    0  502    0  0.00000000000E+00  0.00000000000E+00  0.32880430567E+04  0.32880430567E+04  0.00000000000E+00 0. -1.
          1   -1    0    0  501    0 -0.00000000000E+00 -0.00000000000E+00 -0.25394152319E+04  0.25394152319E+04  0.00000000000E+00 0. -1.
         25    2    1    2    0    0 -0.63902001651E+02  0.66766046716E+02 -0.11949737071E+04  0.12050427713E+04  0.12499899667E+03 0.  0.
          2    1    1    2  501    0 -0.43026057373E+02 -0.34667293172E+02 -0.13378874454E+04  0.13390279606E+04  0.00000000000E+00 0. -1.
          1    1    1    2  502    0  0.10692805902E+03 -0.32098753544E+02  0.32814889773E+04  0.32833875567E+04  0.00000000000E+00 0. -1.
         22    1    3    3    0    0  0.98390621437E+01  0.79728225821E+02 -0.58436011594E+03  0.58985603518E+03  0.00000000000E+00 0. -1.
         22    1    3    3    0    0 -0.73741063794E+02 -0.12962179105E+02 -0.61061359115E+03  0.61518673610E+03  0.00000000000E+00 0. -1.
</event>
<event>
 7    1  0.7118985E-006  0.7461289E+02  0.7818608E-02  0.1508705E+00
          2   -1    0    0  502    0  0.00000000000E+00  0.00000000000E+00  0.15302353033E+04  0.15302353033E+04  0.00000000000E+00 0. -1.
          1   -1    0    0  501    0 -0.00000000000E+00 -0.00000000000E+00 -0.20738106591E+02  0.20738106591E+02  0.00000000000E+00 0. -1.
         25    2    1    2    0    0  0.52499207302E+02 -0.24149396689E+02  0.52132492473E+03  0.53920625246E+03  0.12499738166E+03 0.  0.
          2    1    1    2  501    0  0.13474524817E+02 -0.16589416566E+02  0.83353870545E+00  0.21388462960E+02  0.00000000000E+00 0. -1.
          1    1    1    2  502    0 -0.65973732119E+02  0.40738813255E+02  0.98733873324E+03  0.99037869444E+03  0.00000000000E+00 0. -1.
         22    1    3    3    0    0  0.47776621694E+02  0.39571595296E+02  0.14836523716E+03  0.16081281147E+03  0.00000000000E+00 0.  1.
         22    1    3    3    0    0  0.47225856080E+01 -0.63720991986E+02  0.37295968757E+03  0.37839344099E+03  0.00000000000E+00 0.  1.
</event>
<event>
 7    1  0.7118985E-006  0.1107675E+03  0.7818608E-02  0.1431982E+00
          2   -1    0    0  502    0  0.00000000000E+00  0.00000000000E+00  0.38739323394E+02  0.38739323394E+02  0.00000000000E+00 0. -1.
          1   -1    0    0  501    0 -0.00000000000E+00 -0.00000000000E+00 -0.33813546549E+04  0.33813546549E+04  0.00000000000E+00 0. -1.
         25    2    1    2    0    0 -0.32941619296E+02  0.97270021093E+02 -0.15793253974E+04  0.15875895686E+04  0.12500127976E+03 0.  0.
          2    1    1    2  501    0  0.21009398420E+02  0.13446644550E+02 -0.17079890841E+04  0.17081712205E+04  0.00000000000E+00 0. -1.
          1    1    1    2  502    0  0.11932220876E+02 -0.11071666564E+03 -0.55300850002E+02  0.12433318928E+03  0.00000000000E+00 0. -1.
         22    1    3    3    0    0 -0.80412235574E+02  0.49492351526E+02 -0.92714859511E+03  0.93194427833E+03  0.00000000000E+00 0. -1.
         22    1    3    3    0    0  0.47470616278E+02  0.47777669567E+02 -0.65217680232E+03  0.65564529023E+03  0.00000000000E+00 0. -1.
</event>
<event>
 7    1  0.7118985E-006  0.1230740E+03  0.7818608E-02  0.1350164E+00
          2   -1    0    0  502    0  0.00000000000E+00  0.00000000000E+00  0.10033395889E+04  0.10033395889E+04  0.00000000000E+00 0. -1.
          1   -1    0    0  501    0 -0.00000000000E+00 -0.00000000000E+00 -0.26968831012E+03  0.26968831012E+03  0.00000000000E+00 0. -1.
         25    2    1    2    0    0  0.61561764954E+02  0.10171161442E+03  0.55004906029E+03  0.57646602532E+03  0.12499602479E+03 0.  0.
          2    1    1    2  501    0  0.38388686082E+02 -0.20039934597E+02 -0.24507621729E+03  0.24887274355E+03  0.00000000000E+00 0. -1.
          1    1    1    2  502    0 -0.99950451037E+02 -0.81671679818E+02  0.42867843579E+03  0.44768913016E+03  0.00000000000E+00 0. -1.
         22    1    3    3    0    0  0.45189637252E+02  0.99002786168E+02  0.54916855310E+03  0.55984797463E+03  0.00000000000E+00 0.  1.
         22    1    3    3    0    0  0.16372127703E+02  0.27088282469E+01  0.88050719301E+00  0.16618050695E+02  0.00000000000E+00 0.  1.
</event>
<event>
 7    1  0.7118985E-006  0.1009290E+03  0.7818608E-02  0.1339189E+00
          2   -1    0    0  502    0  0.00000000000E+00  0.00000000000E+00  0.11107712448E+04  0.11107712448E+04  0.00000000000E+00 0. -1.
          1   -1    0    0  501    0 -0.00000000000E+00 -0.00000000000E+00 -0.15809184424E+03  0.15809184424E+03  0.00000000000E+00 0. -1.
         25    2    1    2    0    0 -0.61768682856E+02 -0.26251969744E+02  0.11751397360E+03  0.18423315710E+03  0.12501114386E+03 0.  0.
          2    1    1    2  501    0 -0.41911179154E+02  0.40141815002E+02 -0.11495240006E+03  0.12877098481E+03  0.00000000000E+00 0. -1.
          1    1    1    2  502    0  0.10367986201E+03 -0.13889845258E+02  0.95011782706E+03  0.95585894717E+03  0.00000000000E+00 0. -1.
         22    1    3    3    0    0 -0.22973775084E+02 -0.70626414538E+02  0.33181351228E+02  0.81344248976E+02  0.00000000000E+00 0. -1.
         22    1    3    3    0    0 -0.38794907772E+02  0.44374444794E+02  0.84332622370E+02  0.10288890813E+03  0.00000000000E+00 0. -1.
</event>
<event>
 7    1  0.7118985E-006  0.1888206E+03  0.7818608E-02  0.1184638E+00
          2   -1    0    0  502    0  0.00000000000E+00  0.00000000000E+00  0.22753282132E+04  0.22753282132E+04  0.00000000000E+00 0. -1.
          1   -1    0    0  501    0 -0.00000000000E+00 -0.00000000000E+00 -0.34535776792E+03  0.34535776792E+03  0.00000000000E+00 0. -1.
         25    2    1    2    0    0  0.35619674686E+02 -0.21870029062E+03  0.30719558112E+03  0.39886460956E+03  0.12500109343E+03 0.  0.
          2    1    1    2  501    0  0.10705640378E+03  0.93034543576E+02 -0.27771936173E+03  0.31184057428E+03  0.00000000000E+00 0. -1.
          1    1    1    2  502    0 -0.14267607847E+03  0.12566574705E+03  0.19004942259E+04  0.19099807972E+04  0.00000000000E+00 0. -1.
         22    1    3    3    0    0 -0.41847799934E+02 -0.12905498883E+03  0.17293542136E+03  0.21980238502E+03  0.00000000000E+00 0.  1.
         22    1    3    3    0    0  0.77467474620E+02 -0.89645301796E+02  0.13426015976E+03  0.17906222454E+03  0.00000000000E+00 0.  1.
</event>
<event>
 7    1  0.7118985E-006  0.1004695E+03  0.7818608E-02  0.1433817E+00
          2   -1    0    0  502    0  0.00000000000E+00  0.00000000000E+00  0.24312450966E+04  0.24312450966E+04  0.00000000000E+00 0. -1.
          1   -1    0    0  501    0 -0.00000000000E+00 -0.00000000000E+00 -0.74263204625E+02  0.74263204625E+02  0.00000000000E+00 0. -1.
         25    2    1    2    0    0  0.22839604794E+02  0.94144212141E+02  0.57197375494E+03  0.59343410552E+03  0.12500112410E+03 0.  0.
          2    1    1    2  501    0  0.26529837301E+02 -0.56389520949E+01 -0.59182316535E+02  0.65101279852E+02  0.00000000000E+00 0. -1.
          1    1    1    2  502    0 -0.49369442095E+02 -0.88505260046E+02  0.18441904535E+04  0.18469729158E+04  0.00000000000E+00 0. -1.
         22    1    3    3    0    0  0.11728147976E+02  0.68636214152E+01 -0.11112879803E+01  0.13634284538E+02  0.00000000000E+00 0.  1.
         22    1    3    3    0    0  0.11111456818E+02  0.87280590726E+02  0.57308504292E+03  0.57979982098E+03  0.00000000000E+00 0.  1.
</event>
<event>
 7    1  0.7118985E-006  0.1874967E+03  0.7818608E-02  0.1372278E+00
          2   -1    0    0  502    0  0.00000000000E+00  0.00000000000E+00  0.81405857369E+03  0.81405857369E+03  0.00000000000E+00 0. -1.
          1   -1    0    0  501    0 -0.00000000000E+00 -0.00000000000E+00 -0.79496985358E+03  0.79496985358E+03  0.00000000000E+00 0. -1.
         25    2    1    2    0    0 -0.19912692462E+03 -0.25516041169E+02  0.24611676212E+03  0.34132388309E+03  0.12500372837E+03 0.  0.
          2    1    1    2  501    0  0.18693110194E+03  0.52967495605E+01 -0.73538977939E+03  0.75879471536E+03  0.00000000000E+00 0. -1.
          1    1    1    2  502    0  0.12195822673E+02  0.20219291609E+02  0.50836173738E+03  0.50890982882E+03  0.00000000000E+00 0. -1.
         22    1    3    3    0    0 -0.24916295276E+02 -0.17402899047E+02  0.12587188230E+03  0.12948904749E+03  0.00000000000E+00 0.  1.
         22    1    3    3    0    0 -0.17421062934E+03 -0.81131421219E+01  0.12024487982E+03  0.21183483560E+03  0.00000000000E+00 0.  1.
</event>
<event>
 7    1  0.7118985E-006  0.5135880E+02  0.7818608E-02  0.1497194E+00
          2   -1    0    0  502    0  0.00000000000E+00  0.00000000000E+00  0.82383677770E+03  0.82383677770E+03  0.00000000000E+00 0. -1.
          1   -1    0    0  501    0 -0.00000000000E+00 -0.00000000000E+00 -0.38291752898E+02  0.38291752898E+02  0.00000000000E+00 0. -1.
         25    2    1    2    0    0 -0.75399343095E+02  0.32292231729E+01  0.38264581056E+03  0.40955596077E+03  0.12499111904E+03 0.  0.
          2    1    1    2  501    0  0.46068047775E+02 -0.19607206047E+02  0.18316584783E+01  0.50100524224E+02  0.00000000000E+00 0. -1.
          1    1    1    2  502    0  0.29331295320E+02  0.16377982874E+02  0.40106755576E+03  0.40247204561E+03  0.00000000000E+00 0. -1.
         22    1    3    3    0    0 -0.10662468206E+03 -0.14311032329E+02  0.31726386255E+03  0.33500744312E+03  0.00000000000E+00 0. -1.
         22    1    3    3    0    0  0.31225338967E+02  0.17540255502E+02  0.65381948012E+02  0.74548517641E+02  0.00000000000E+00 0. -1.
</event>
<event>
 7    1  0.7118985E-006  0.1010256E+03  0.7818608E-02  0.1339128E+00
          2   -1    0    0  502    0  0.00000000000E+00  0.00000000000E+00  0.27445397203E+02  0.27445397203E+02  0.00000000000E+00 0. -1.
          1   -1    0    0  501    0 -0.00000000000E+00 -0.00000000000E+00 -0.22623116417E+04  0.22623116417E+04  0.00000000000E+00 0. -1.
         25    2    1    2    0    0  0.59111874319E+02 -0.51551197063E+02 -0.14258542929E+04  0.14334710634E+04  0.12500834197E+03 0.  0.
          2    1    1    2  501    0 -0.10757707037E+03  0.83428250375E+02 -0.77931729761E+03  0.79111854319E+03  0.00000000000E+00 0. -1.
          1    1    1    2  502    0  0.48465196054E+02 -0.31877053312E+02 -0.29694654052E+02  0.65167432324E+02  0.00000000000E+00 0. -1.
         22    1    3    3    0    0 -0.24186361358E+02 -0.69935028017E+00 -0.77146805574E+03  0.77184741380E+03  0.00000000000E+00 0.  1.
         22    1    3    3    0    0  0.83298235677E+02 -0.50851846782E+02 -0.65438623713E+03  0.66162364962E+03  0.00000000000E+00 0.  1.
</event>
<event>
 7    1  0.7118985E-006  0.1116586E+03  0.7818608E-02  0.1414007E+00
          2   -1    0    0  502    0  0.00000000000E+00  0.00000000000E+00  0.34384093057E+03  0.34384093057E+03  0.00000000000E+00 0. -1.
          1   -1    0    0  501    0 -0.00000000000E+00 -0.00000000000E+00 -0.24882795717E+04  0.24882795717E+04  0.00000000000E+00 0. -1.
         25    2    1    2    0    0  0.32281785205E+02 -0.11117291987E+03 -0.79724100807E+03  0.81524250130E+03  0.12500231682E+03 0.  0.
          2    1    1    2  501    0 -0.56355235753E+02  0.96111674181E+02 -0.16795867690E+04  0.16832780760E+04  0.00000000000E+00 0. -1.
          1    1    1    2  502    0  0.24073450549E+02  0.15061245686E+02  0.33238913602E+03  0.33359992489E+03  0.00000000000E+00 0. -1.
         22    1    3    3    0    0 -0.43431451058E+02 -0.64596745717E+02 -0.28966559866E+03  0.29994197696E+03  0.00000000000E+00 0. -1.
         22    1    3    3    0    0  0.75713236263E+02 -0.46576174150E+02 -0.50757540941E+03  0.51530052434E+03  0.00000000000E+00 0. -1.
</event>
<event>
 7    1  0.7118985E-006  0.7997268E+02  0.7818608E-02  0.1382406E+00
          2   -1    0    0  502    0  0.00000000000E+00  0.00000000000E+00  0.22945868441E+04  0.22945868441E+04  0.00000000000E+00 0. -1.
          1   -1    0    0  501    0 -0.00000000000E+00 -0.00000000000E+00 -0.45097907978E+03  0.45097907978E+03  0.00000000000E+00 0. -1.
         25    2    1    2    0    0 -0.82825777553E+02 -0.18509379886E+02  0.25114408011E+03  0.29308947412E+03  0.12500153716E+03 0.  0.
          2    1    1    2  501    0  0.53166261198E+02  0.59942102519E+02 -0.42594972477E+03  0.43341997533E+03  0.00000000000E+00 0. -1.
          1    1    1    2  502    0  0.29659516355E+02 -0.41432722633E+02  0.20184134090E+04  0.20190564744E+04  0.00000000000E+00 0. -1.
         22    1    3    3    0    0 -0.85718638332E+01  0.47935727860E+02  0.57793039268E+02  0.75573449325E+02  0.00000000000E+00 0. -1.
         22    1    3    3    0    0 -0.74253913720E+02 -0.66445107747E+02  0.19335104085E+03  0.21751602479E+03  0.00000000000E+00 0. -1.
</event>
<event>
 7    1  0.7118985E-006  0.2401226E+02  0.7818608E-02  0.1688678E+00
          2   -1    0    0  502    0  0.00000000000E+00  0.00000000000E+00  0.13408239827E+04  0.13408239827E+04  0.00000000000E+00 0. -1.
          1   -1    0    0  501    0 -0.00000000000E+00 -0.00000000000E+00 -0.63127499664E+02  0.63127499664E+02  0.00000000000E+00 0. -1.
         25    2    1    2    0    0  0.35447907482E+02  0.85714127974E+01  0.91350043799E+02  0.15905893077E+03  0.12499955877E+03 0.  0.
          2    1    1    2  501    0 -0.15276890287E+02 -0.18239384490E+02 -0.24318327769E+02  0.34021163838E+02  0.00000000000E+00 0. -1.
          1    1    1    2  502    0 -0.20171017195E+02  0.96679716931E+01  0.12106647670E+04  0.12108713877E+04  0.00000000000E+00 0. -1.
         22    1    3    3    0    0  0.40282922090E+02 -0.48927406922E+02  0.18294506705E+02  0.65964338364E+02  0.00000000000E+00 0.  1.
         22    1    3    3    0    0 -0.48350146076E+01  0.57498819720E+02  0.73055537094E+02  0.93094592407E+02  0.00000000000E+00 0.  1.
</event>
<event>
 7    1  0.7118985E-006  0.6319755E+02  0.7818608E-02  0.1447552E+00
          2   -1    0    0  502    0  0.00000000000E+00  0.00000000000E+00  0.40302092868E+04  0.40302092868E+04  0.00000000000E+00 0. -1.
          1   -1    0    0  501    0 -0.00000000000E+00 -0.00000000000E+00 -0.22924796477E+04  0.22924796477E+04  0.00000000000E+00 0. -1.
         25    2    1    2    0    0 -0.48745297207E+02 -0.88963580463E+02 -0.27376314313E+03  0.31758420050E+03  0.12499137261E+03 0.  0.
          2    1    1    2  501    0  0.13652802753E+02  0.36442905482E+02 -0.19963674744E+04  0.19967467484E+04  0.00000000000E+00 0. -1.
          1    1    1    2  502    0  0.35092494454E+02  0.52520674981E+02  0.40078602566E+04  0.40083579856E+04  0.00000000000E+00 0. -1.
         22    1    3    3    0    0  0.48602015132E+01 -0.64779449851E+02 -0.24236295485E+03  0.25091791600E+03  0.00000000000E+00 0.  1.
         22    1    3    3    0    0 -0.53605498720E+02 -0.24184130612E+02 -0.31400188272E+02  0.66666284507E+02  0.00000000000E+00 0.  1.
</event>
<event>
 7    1  0.7118985E-006  0.1776117E+03  0.7818608E-02  0.1282065E+00
          2   -1    0    0  502    0  0.00000000000E+00  0.00000000000E+00  0.19256904916E+04  0.19256904916E+04  0.00000000000E+00 0. -1.
          1   -1    0    0  501    0 -0.00000000000E+00 -0.00000000000E+00 -0.23351873046E+04  0.23351873046E+04  0.00000000000E+00 0. -1.
         25    2    1    2    0    0  0.64362132985E+02  0.11825169909E+03  0.17336462562E+02  0.18452925878E+03  0.12499818363E+03 0.  0.
          2    1    1    2  501    0 -0.11682970630E+03 -0.13592543886E+03 -0.22476025581E+04  0.22547377152E+04  0.00000000000E+00 0. -1.
          1    1    1    2  502    0  0.52467573320E+02  0.17673739773E+02  0.18207692825E+04  0.18216108222E+04  0.00000000000E+00 0. -1.
         22    1    3    3    0    0  0.12325291550E+02  0.55529928171E+02 -0.52346701202E+02  0.77302411743E+02  0.00000000000E+00 0.  1.
         22    1    3    3    0    0  0.52036841435E+02  0.62721770917E+02  0.69683163763E+02  0.10722684704E+03  0.00000000000E+00 0.  1.
</event>
<event>
 7    1  0.7118985E-006  0.1266226E+03  0.7818608E-02  0.1313124E+00
          2   -1    0    0  502    0  0.00000000000E+00  0.00000000000E+00  0.18537831326E+03  0.18537831326E+03  0.00000000000E+00 0. -1.
          1   -1    0    0  501    0 -0.00000000000E+00 -0.00000000000E+00 -0.19777287414E+04  0.19777287414E+04  0.00000000000E+00 0. -1.
         25    2    1    2    0    0 -0.40438053446E+02  0.17787299792E+03 -0.58385767106E+02  0.22868162094E+03  0.12494937534E+03 0.  0.
          2    1    1    2  501    0  0.18692412881E+02 -0.12382456447E+03 -0.18233963550E+04  0.18276914938E+04  0.00000000000E+00 0. -1.
          1    1    1    2  502    0  0.21745640565E+02 -0.54048433449E+02  0.89431693977E+02  0.10673393991E+03  0.00000000000E+00 0. -1.
         22    1    3    3    0    0 -0.20236608949E+02  0.24160624069E+02 -0.66337872635E+02  0.73443648077E+02  0.00000000000E+00 0. -1.
         22    1    3    3    0    0 -0.20201444497E+02  0.15371237385E+03  0.79521055295E+01  0.15523797286E+03  0.00000000000E+00 0. -1.
</event>
<event>
 7    1  0.7118985E-006  0.8937339E+02  0.7818608E-02  0.1308131E+00
          2   -1    0    0  502    0  0.00000000000E+00  0.00000000000E+00  0.36598518878E+04  0.36598518878E+04  0.00000000000E+00 0. -1.
          1   -1    0    0  501    0 -0.00000000000E+00 -0.00000000000E+00 -0.16387504340E+02  0.16387504340E+02  0.00000000000E+00 0. -1.
         25    2    1    2    0    0  0.49539250985E+02  0.63599476732E+02  0.89454247509E+03  0.90682353362E+03  0.12499460212E+03 0.  0.
          2    1    1    2  501    0 -0.82261883124E+02  0.26296131330E+02  0.19000470306E+03  0.20871102300E+03  0.00000000000E+00 0. -1.
          1    1    1    2  502    0  0.32722632139E+02 -0.89895608063E+02  0.25589172053E+04  0.25607048355E+04  0.00000000000E+00 0. -1.
         22    1    3    3    0    0  0.34042705185E+02 -0.29279628479E+02  0.46052588469E+03  0.46270972855E+03  0.00000000000E+00 0. -1.
         22    1    3    3    0    0  0.15496545800E+02  0.92879105211E+02  0.43401659040E+03  0.44411380507E+03  0.00000000000E+00 0. -1.
</event>
<event>
 7    1  0.7118985E-006  0.1597117E+03  0.7818608E-02  0.1236887E+00
          2   -1    0    0  502    0  0.00000000000E+00  0.00000000000E+00  0.42434114073E+03  0.42434114073E+03  0.00000000000E+00 0. -1.
          1   -1    0    0  501    0 -0.00000000000E+00 -0.00000000000E+00 -0.13108894869E+04  0.13108894869E+04  0.00000000000E+00 0. -1.
         25    2    1    2    0    0 -0.17802082475E+03  0.87821209812E+02 -0.17586621736E+03  0.29318656875E+03  0.12500183499E+03 0.  0.
          2    1    1    2  501    0  0.91251706434E+02 -0.12897027712E+03 -0.10641240879E+04  0.10757882137E+04  0.00000000000E+00 0. -1.
          1    1    1    2  502    0  0.86769118314E+02  0.41149067309E+02  0.35344195912E+03  0.36625584514E+03  0.00000000000E+00 0. -1.
         22    1    3    3    0    0 -0.90166610854E+02 -0.11373876643E+02 -0.29037928357E+02  0.95407463367E+02  0.00000000000E+00 0. -1.
         22    1    3    3    0    0 -0.87854213893E+02  0.99195086455E+02 -0.14682828900E+03  0.19777910539E+03  0.00000000000E+00 0. -1.
</event>
<event>
 7    1  0.7118985E-006  0.7387936E+02  0.7818608E-02  0.1438943E+00
          2   -1    0    0  502    0  0.00000000000E+00  0.00000000000E+00  0.22378418345E+04  0.22378418345E+04  0.00000000000E+00 0. -1.
          1   -1    0    0  501    0 -0.00000000000E+00 -0.00000000000E+00 -0.20565558388E+03  0.20565558388E+03  0.00000000000E+00 0. -1.
         25    2    1    2    0    0  0.73136603026E+02  0.77607809342E+02  0.85923888591E+02  0.18541686002E+03  0.12499825030E+03 0.  0.
          2    1    1    2  501    0 -0.44811665144E+02 -0.56222940392E+02 -0.14746205134E+03  0.16405535939E+03  0.00000000000E+00 0. -1.
          1    1    1    2  502    0 -0.28324937882E+02 -0.21384868949E+02  0.20937244134E+04  0.20940251990E+04  0.00000000000E+00 0. -1.
         22    1    3    3    0    0  0.42389152103E+02 -0.24257875130E+02  0.57178356846E+02  0.75197401640E+02  0.00000000000E+00 0.  1.
         22    1    3    3    0    0  0.30747450923E+02  0.10186568447E+03  0.28745531744E+02  0.11021945838E+03  0.00000000000E+00 0.  1.
</event>
<event>
 7    1  0.7118985E-006  0.4045167E+02  0.7818608E-02  0.1527901E+00
          2   -1    0    0  502    0  0.00000000000E+00  0.00000000000E+00  0.63190687275E+03  0.63190687275E+03  0.00000000000E+00 0. -1.
          1   -1    0    0  501    0 -0.00000000000E+00 -0.00000000000E+00 -0.37766846244E+02  0.37766846244E+02  0.00000000000E+00 0. -1.
         25    2    1    2    0    0  0.17519400162E+02  0.31684501259E+01  0.20375797454E+03  0.23970721002E+03  0.12500106355E+03 0.  0.
          2    1    1    2  501    0 -0.34131528613E+02  0.27253455823E+02  0.60730676873E+01  0.44097553798E+02  0.00000000000E+00 0. -1.
          1    1    1    2  502    0  0.16612128451E+02 -0.30421905949E+02  0.38430898428E+03  0.38586895518E+03  0.00000000000E+00 0. -1.
         22    1    3    3    0    0 -0.22734786190E+01  0.50312146588E+01  0.21618952127E+03  0.21626000770E+03  0.00000000000E+00 0. -1.
         22    1    3    3    0    0  0.19792878781E+02 -0.18627645330E+01 -0.12431546730E+02  0.23447202312E+02  0.00000000000E+00 0. -1.
</event>
<event>
 7    1  0.7118985E-006  0.7345803E+02  0.7818608E-02  0.1378038E+00
          2   -1    0    0  502    0  0.00000000000E+00  0.00000000000E+00  0.22142858745E+04  0.22142858745E+04  0.00000000000E+00 0. -1.
          1   -1    0    0  501    0 -0.00000000000E+00 -0.00000000000E+00 -0.30058724560E+02  0.30058724560E+02  0.00000000000E+00 0. -1.
         25    2    1    2    0    0  0.65372130549E+01 -0.18897367666E+02  0.32017071882E+03  0.34429253082E+03  0.12501284705E+03 0.  0.
          2    1    1    2  501    0  0.30989273066E+02 -0.48416047198E+02  0.30874549828E+02  0.65250950173E+02  0.00000000000E+00 0. -1.
          1    1    1    2  502    0 -0.37526486121E+02  0.67313414863E+02  0.18331818813E+04  0.18348011180E+04  0.00000000000E+00 0. -1.
         22    1    3    3    0    0 -0.28187676681E+02 -0.61323312868E+02  0.13137165518E+03  0.14769429780E+03  0.00000000000E+00 0. -1.
         22    1    3    3    0    0  0.34724889736E+02  0.42425945202E+02  0.18879906365E+03  0.19659823302E+03  0.00000000000E+00 0. -1.
</event>
<event>
 7    1  0.7118985E-006  0.6915282E+02  0.7818608E-02  0.1396006E+00
          2   -1    0    0  502    0  0.00000000000E+00  0.00000000000E+00  0.18802502685E+04  0.18802502685E+04  0.00000000000E+00 0. -1.
          1   -1    0    0  501    0 -0.00000000000E+00 -0.00000000000E+00 -0.20478235210E+04  0.20478235210E+04  0.00000000000E+00 0. -1.
         25    2    1    2    0    0  0.92287939869E+01  0.37127544886E+02  0.12824888155E+04  0.12891338888E+04  0.12499998417E+03 0.  0.
          2    1    1    2  501    0 -0.61719275214E+02 -0.31234981158E+02 -0.20427410343E+04  0.20439118930E+04  0.00000000000E+00 0. -1.
          1    1    1    2  502    0  0.52490481227E+02 -0.58925637285E+01  0.59267896628E+03  0.59502800775E+03  0.00000000000E+00 0. -1.
         22    1    3    3    0    0 -0.55106926293E+01  0.82537788913E+02  0.85159785656E+03  0.85560607970E+03  0.00000000000E+00 0. -1.
         22    1    3    3    0    0  0.14739486616E+02 -0.45410244027E+02  0.43089095898E+03  0.43352780910E+03  0.00000000000E+00 0. -1.
</event>
<event>
 7    1  0.7118985E-006  0.1060476E+03  0.7818608E-02  0.1341205E+00
          2   -1    0    0  502    0  0.00000000000E+00  0.00000000000E+00  0.36054479464E+03  0.36054479464E+03  0.00000000000E+00 0. -1.
          1   -1    0    0  501    0 -0.00000000000E+00 -0.00000000000E+00 -0.77602191062E+03  0.77602191062E+03  0.00000000000E+00 0. -1.
         25    2    1    2    0    0 -0.30641211678E+02 -0.91744806270E+02  0.43677179019E+02  0.16397819675E+03  0.12500063885E+03 0.  0.
          2    1    1    2  501    0 -0.51144788611E+02  0.18169726647E+02 -0.70299151519E+03  0.70508368213E+03  0.00000000000E+00 0. -1.
          1    1    1    2  502    0  0.81786000289E+02  0.73575079623E+02  0.24383722019E+03  0.26750482638E+03  0.00000000000E+00 0. -1.
         22    1    3    3    0    0 -0.72720472129E+02 -0.34519106610E+02 -0.18122907064E+00  0.80497631218E+02  0.00000000000E+00 0.  1.
         22    1    3    3    0    0  0.42079260451E+02 -0.57225699660E+02  0.43858408089E+02  0.83480565533E+02  0.00000000000E+00 0.  1.
</event>
<event>
 7    1  0.7118985E-006  0.1350862E+03  0.7818608E-02  0.1430235E+00
          2   -1    0    0  502    0  0.00000000000E+00  0.00000000000E+00  0.12328277330E+03  0.12328277330E+03  0.00000000000E+00 0. -1.
          1   -1    0    0  501    0 -0.00000000000E+00 -0.00000000000E+00 -0.90874914969E+03  0.90874914969E+03  0.00000000000E+00 0. -1.
         25    2    1    2    0    0 -0.11516908949E+03 -0.18513730220E+02 -0.95042657618E+02  0.19561383752E+03  0.12499995713E+03 0.  0.
          2    1    1    2  501    0  0.13575625749E+03  0.20907178064E+02 -0.75562197083E+03  0.76800484005E+03  0.00000000000E+00 0. -1.
          1    1    1    2  502    0 -0.20587168006E+02 -0.23934478443E+01  0.65198252047E+02  0.68413245421E+02  0.00000000000E+00 0. -1.
         22    1    3    3    0    0 -0.13791542357E+01 -0.48866907786E+02 -0.48849785575E+02  0.69109900113E+02  0.00000000000E+00 0. -1.
         22    1    3    3    0    0 -0.11378993525E+03  0.30353177566E+02 -0.46192872043E+02  0.12650393741E+03  0.00000000000E+00 0. -1.
</event>
<event>
 7    1  0.7118985E-006  0.1087784E+03  0.7818608E-02  0.1379238E+00
          2   -1    0    0  502    0  0.00000000000E+00  0.00000000000E+00  0.24522016345E+04  0.24522016345E+04  0.00000000000E+00 0. -1.
          1   -1    0    0  501    0 -0.00000000000E+00 -0.00000000000E+00 -0.15735523691E+03  0.15735523691E+03  0.00000000000E+00 0. -1.
         25    2    1    2    0    0 -0.30014025696E+02 -0.12533196594E+03  0.47853442038E+03  0.51110708325E+03  0.12500526242E+03 0.  0.
          2    1    1    2  501    0 -0.22074470807E+02  0.31470602270E+02 -0.13694878573E+03  0.14224152340E+03  0.00000000000E+00 0. -1.
          1    1    1    2  502    0  0.52088496503E+02  0.93861363670E+02  0.19532607629E+04  0.19562082647E+04  0.00000000000E+00 0. -1.
         22    1    3    3    0    0 -0.75476623588E+02 -0.56397083750E+02  0.21011834749E+03  0.23027607716E+03  0.00000000000E+00 0.  1.
         22    1    3    3    0    0  0.45462597892E+02 -0.68934882191E+02  0.26841607290E+03  0.28083100608E+03  0.00000000000E+00 0.  1.
</event>
<event>
 7    1  0.7118985E-006  0.1431807E+03  0.7818608E-02  0.1277444E+00
          2   -1    0    0  502    0  0.00000000000E+00  0.00000000000E+00  0.16054665268E+04  0.16054665268E+04  0.00000000000E+00 0. -1.
          1   -1    0    0  501    0 -0.00000000000E+00 -0.00000000000E+00 -0.52811079427E+03  0.52811079427E+03  0.00000000000E+00 0. -1.
         25    2    1    2    0    0 -0.40543469561E+02  0.14617352701E+03  0.11867930785E+04  0.12029601974E+04  0.12499980981E+03 0.  0.
          2    1    1    2  501    0  0.71229039564E+02 -0.87662745134E+01 -0.50534756702E+03  0.51041805134E+03  0.00000000000E+00 0. -1.
          1    1    1    2  502    0 -0.30685570003E+02 -0.13740725249E+03  0.39591022109E+03  0.42019907236E+03  0.00000000000E+00 0. -1.
         22    1    3    3    0    0 -0.52851842881E+00  0.19110600401E+02  0.16929409301E+02  0.25536234623E+02  0.00000000000E+00 0. -1.
         22    1    3    3    0    0 -0.40014951132E+02  0.12706292661E+03  0.11698636692E+04  0.11774239628E+04  0.00000000000E+00 0. -1.
</event>
<event>
 7    1  0.7118985E-006  0.1008545E+03  0.7818608E-02  0.1474713E+00
          2   -1    0    0  502    0  0.00000000000E+00  0.00000000000E+00  0.55867381458E+03  0.55867381458E+03  0.00000000000E+00 0. -1.
          1   -1    0    0  501    0 -0.00000000000E+00 -0.00000000000E+00 -0.59751186380E+02  0.59751186380E+02  0.00000000000E+00 0. -1.
         25    2    1    2    0    0  0.60017908750E+02  0.64542780825E+02  0.19957671480E+03  0.25144210936E+03  0.12499739734E+03 0.  0.
          2    1    1    2  501    0 -0.79330166385E+02 -0.69839617645E+02  0.50155241436E+02  0.11698887013E+03  0.00000000000E+00 0. -1.
          1    1    1    2  502    0  0.19312257635E+02  0.52968368205E+01  0.24919067196E+03  0.24999402147E+03  0.00000000000E+00 0. -1.
         22    1    3    3    0    0  0.30576167707E+01 -0.20165422581E+02 -0.65520638302E+01  0.21422484184E+02  0.00000000000E+00 0.  1.
         22    1    3    3    0    0  0.56960291979E+02  0.84708203406E+02  0.20612877863E+03  0.23001962518E+03  0.00000000000E+00 0.  1.
</event>
<event>
 7    1  0.7118985E-006  0.9046040E+02  0.7818608E-02  0.1317845E+00
          2   -1    0    0  502    0  0.00000000000E+00  0.00000000000E+00  0.31201365403E+04  0.31201365403E+04  0.00000000000E+00 0. -1.
          1   -1    0    0  501    0 -0.00000000000E+00 -0.00000000000E+00 -0.18146226229E+03  0.18146226229E+03  0.00000000000E+00 0. -1.
         25    2    1    2    0    0  0.43163201817E+02 -0.12481712560E+02  0.50222510723E+03  0.51949314052E+03  0.12499683827E+03 0.  0.
          2    1    1    2  501    0  0.35037694508E+02  0.69863794052E+02 -0.16304105803E+03  0.18080646106E+03  0.00000000000E+00 0. -1.
          1    1    1    2  502    0 -0.78200896326E+02 -0.57382081492E+02  0.25994902289E+04  0.26012992010E+04  0.00000000000E+00 0. -1.
         22    1    3    3    0    0 -0.42551384798E+02 -0.15120085665E+02  0.21730336917E+03  0.22194592042E+03  0.00000000000E+00 0. -1.
         22    1    3    3    0    0  0.85714586615E+02  0.26383731046E+01  0.28492173806E+03  0.29754722010E+03  0.00000000000E+00 0. -1.
</event>
<event>
 7    1  0.7118985E-006  0.1053929E+03  0.7818608E-02  0.1434106E+00
          2   -1    0    0  502    0  0.00000000000E+00  0.00000000000E+00  0.18559249673E+04  0.18559249673E+04  0.00000000000E+00 0. -1.
          1   -1    0    0  501    0 -0.00000000000E+00 -0.00000000000E+00 -0.12548848189E+02  0.12548848189E+02  0.00000000000E+00 0. -1.
         25    2    1    2    0    0 -0.10605329702E+02 -0.87839282017E+02  0.73096539073E+03  0.74683563598E+03  0.12499940898E+03 0.  0.
          2    1    1    2  501    0  0.85222401140E+01 -0.24350986304E+02  0.11091542093E+03  0.11387637908E+03  0.00000000000E+00 0. -1.
          1    1    1    2  502    0  0.20830895876E+01  0.11219026832E+03  0.10014953074E+04  0.10077618004E+04  0.00000000000E+00 0. -1.
         22    1    3    3    0    0 -0.19316451879E+02 -0.44654155852E+02  0.66921279381E+03  0.67097904762E+03  0.00000000000E+00 0. -1.
         22    1    3    3    0    0  0.87111221769E+01 -0.43185126166E+02  0.61752596920E+02  0.75856588362E+02  0.00000000000E+00 0. -1.
</event>
<event>
 7    1  0.7118985E-006  0.5931281E+02  0.7818608E-02  0.1468069E+00
          2   -1    0    0  502    0  0.00000000000E+00  0.00000000000E+00  0.20638860418E+04  0.20638860418E+04  0.00000000000E+00 0. -1.
          1   -1    0    0  501    0 -0.00000000000E+00 -0.00000000000E+00 -0.20995995483E+03  0.20995995483E+03  0.00000000000E+00 0. -1.
         25    2    1    2    0    0  0.20676966518E+02 -0.33146033279E+02  0.68611938732E+03  0.69850389455E+03  0.12498672161E+03 0.  0.
          2    1    1    2  501    0  0.35238574385E+02  0.57654184683E+01 -0.20149063268E+03  0.20463008634E+03  0.00000000000E+00 0. -1.
          1    1    1    2  502    0 -0.55915540903E+02  0.27380614811E+02  0.13692973323E+04  0.13707120157E+04  0.00000000000E+00 0. -1.
         22    1    3    3    0    0  0.68445997450E+02 -0.40022295437E+02  0.34541390493E+03  0.35439724098E+03  0.00000000000E+00 0.  1.
         22    1    3    3    0    0 -0.47769030931E+02  0.68762621573E+01  0.34070548240E+03  0.34410665357E+03  0.00000000000E+00 0.  1.
</event>
<event>
 7    1  0.7118985E-006  0.2318235E+03  0.7818608E-02  0.1257694E+00
          2   -1    0    0  502    0  0.00000000000E+00  0.00000000000E+00  0.67230530751E+03  0.67230530751E+03  0.00000000000E+00 0. -1.
          1   -1    0    0  501    0 -0.00000000000E+00 -0.00000000000E+00 -0.10256264414E+04  0.10256264414E+04  0.00000000000E+00 0. -1.
         25    2    1    2    0    0  0.54295834911E+02  0.25424547722E+03 -0.14559711268E+03  0.32312867481E+03  0.12499928354E+03 0.  0.
          2    1    1    2  501    0 -0.47589274742E+02 -0.24864557753E+02 -0.76772873216E+03  0.76960404852E+03  0.00000000000E+00 0. -1.
          1    1    1    2  502    0 -0.67065601686E+01 -0.22938091946E+03  0.56000471101E+03  0.60519902554E+03  0.00000000000E+00 0. -1.
         22    1    3    3    0    0  0.90760591553E+02  0.13215831364E+03 -0.92483892720E+02  0.18508531886E+03  0.00000000000E+00 0. -1.
         22    1    3    3    0    0 -0.36464756642E+02  0.12208716357E+03 -0.53113219964E+02  0.13804335595E+03  0.00000000000E+00 0. -1.
</event>
<event>
 7    1  0.7118985E-006  0.7970770E+02  0.7818608E-02  0.1464656E+00
          2   -1    0    0  502    0  0.00000000000E+00  0.00000000000E+00  0.25371301091E+04  0.25371301091E+04  0.00000000000E+00 0. -1.
          1   -1    0    0  501    0 -0.00000000000E+00 -0.00000000000E+00 -0.49063940611E+03  0.49063940611E+03  0.00000000000E+00 0. -1.
         25    2    1    2    0    0  0.22443967573E+02 -0.53291725604E+02  0.53330582072E+03  0.55080307245E+03  0.12500074604E+03 0.  0.
          2    1    1    2  501    0 -0.50991122878E+01 -0.26750018487E+02 -0.48066471942E+03  0.48143549613E+03  0.00000000000E+00 0. -1.
          1    1    1    2  502    0 -0.17344855285E+02  0.80041744091E+02  0.19938496017E+04  0.19955309467E+04  0.00000000000E+00 0. -1.
         22    1    3    3    0    0  0.36173115951E+02 -0.73081545248E+02  0.19135640855E+03  0.20800644622E+03  0.00000000000E+00 0.  1.
         22    1    3    3    0    0 -0.13729148378E+02  0.19789819644E+02  0.34194941216E+03  0.34279662623E+03  0.00000000000E+00 0.  1.
</event>
<event>
 7    1  0.7118985E-006  0.2728221E+02  0.7818608E-02  0.1672226E+00
          2   -1    0    0  502    0  0.00000000000E+00  0.00000000000E+00  0.27065930201E+03  0.27065930201E+03  0.00000000000E+00 0. -1.
          1   -1    0    0  501    0 -0.00000000000E+00 -0.00000000000E+00 -0.23464716847E+03  0.23464716847E+03  0.00000000000E+00 0. -1.
         25    2    1    2    0    0  0.46299376543E+02 -0.10895465467E+02  0.13692958265E+03  0.19140927126E+03  0.12500182033E+03 0.  0.
          2    1    1    2  501    0 -0.21187403585E+02  0.38242499418E+01 -0.20523791326E+03  0.20636407633E+03  0.00000000000E+00 0. -1.
          1    1    1    2  502    0 -0.25111972959E+02  0.70712155254E+01  0.10432046415E+03  0.10753312288E+03  0.00000000000E+00 0. -1.
         22    1    3    3    0    0 -0.32099991950E+02 -0.17859121013E+02  0.40335489768E+01  0.36954393567E+02  0.00000000000E+00 0. -1.
         22    1    3    3    0    0  0.78399368493E+02  0.69636555457E+01  0.13289603367E+03  0.15445487770E+03  0.00000000000E+00 0. -1.
</event>
<event>
 7    1  0.7118985E-006  0.1563423E+03  0.7818608E-02  0.1403377E+00
          2   -1    0    0  502    0  0.00000000000E+00  0.00000000000E+00  0.61645783312E+03  0.61645783312E+03  0.00000000000E+00 0. -1.
          1   -1    0    0  501    0 -0.00000000000E+00 -0.00000000000E+00 -0.24933787750E+03  0.24933787750E+03  0.00000000000E+00 0. -1.
         25    2    1    2    0    0  0.15427458684E+03  0.61664021239E+02 -0.12066634116E+03  0.24039104556E+03  0.12499755691E+03 0.  0.
          2    1    1    2  501    0 -0.36608727621E+01 -0.21732009406E+02 -0.55764329116E+02  0.59961175972E+02  0.00000000000E+00 0. -1.
          1    1    1    2  502    0 -0.15061371408E+03 -0.39932011833E+02  0.54355062590E+03  0.56544348909E+03  0.00000000000E+00 0. -1.
         22    1    3    3    0    0  0.47334318564E+02 -0.18521223447E+02  0.11828418384E+02  0.52187018629E+02  0.00000000000E+00 0. -1.
         22    1    3    3    0    0  0.10694026828E+03  0.80185244686E+02 -0.13249475955E+03  0.18820402693E+03  0.00000000000E+00 0. -1.
</event>
<event>
 7    1  0.7118985E-006  0.5823787E+02  0.7818608E-02  0.1486693E+00
          2   -1    0    0  502    0  0.00000000000E+00  0.00000000000E+00  0.13698406238E+03  0.13698406238E+03  0.00000000000E+00 0. -1.
          1   -1    0    0  501    0 -0.00000000000E+00 -0.00000000000E+00 -0.13316053352E+04  0.13316053352E+04  0.00000000000E+00 0. -1.
         25    2    1    2    0    0 -0.15607806441E+02 -0.81324892394E+02 -0.52003149450E+03  0.54121676280E+03  0.12500194923E+03 0.  0.
          2    1    1    2  501    0  0.21370854850E+02  0.23640347396E+02 -0.79399727016E+03  0.79463654867E+03  0.00000000000E+00 0. -1.
          1    1    1    2  502    0 -0.57630484087E+01  0.57684544998E+02  0.11940749182E+03  0.13273608613E+03  0.00000000000E+00 0. -1.
         22    1    3    3    0    0 -0.47647533265E+02 -0.50588249527E+02 -0.11954577427E+03  0.13827744054E+03  0.00000000000E+00 0.  1.
         22    1    3    3    0    0  0.32039726824E+02 -0.30736642867E+02 -0.40048572023E+03  0.40293932226E+03  0.00000000000E+00 0.  1.
</event>
<event>
 7    1  0.7118985E-006  0.6143226E+02  0.7818608E-02  0.1513113E+00
          2   -1    0    0  502    0  0.00000000000E+00  0.00000000000E+00  0.10062463396E+04  0.10062463396E+04  0.00000000000E+00 0. -1.
          1   -1    0    0  501    0 -0.00000000000E+00 -0.00000000000E+00 -0.24749301114E+03  0.24749301114E+03  0.00000000000E+00 0. -1.
         25    2    1    2    0    0 -0.42251956764E+02  0.25848450522E+02  0.12916864526E+03  0.18644696825E+03  0.12499825122E+03 0.  0.
          2    1    1    2  501    0  0.61177672648E+02 -0.92175180940E+01 -0.21428967508E+03  0.22304200304E+03  0.00000000000E+00 0. -1.
          1    1    1    2  502    0 -0.18925715884E+02 -0.16630932428E+02  0.84387435829E+03  0.84425037945E+03  0.00000000000E+00 0. -1.
         22    1    3    3    0    0 -0.54915686564E+01 -0.43985501159E+02  0.13344160763E+02  0.46291989209E+02  0.00000000000E+00 0.  1.
         22    1    3    3    0    0 -0.36760388108E+02  0.69833951681E+02  0.11582448450E+03  0.14015497905E+03  0.00000000000E+00 0.  1.
</event>
<event>
 7    1  0.7118985E-006  0.1456334E+03  0.7818608E-02  0.1416312E+00
          2   -1    0    0  502    0  0.00000000000E+00  0.00000000000E+00  0.95113837203E+03  0.95113837203E+03  0.00000000000E+00 0. -1.
          1   -1    0    0  501    0 -0.00000000000E+00 -0.00000000000E+00 -0.22222143202E+03  0.22222143202E+03  0.00000000000E+00 0. -1.
         25    2    1    2    0    0  0.10180207610E+03 -0.11979357345E+03  0.11295456761E+03  0.23043028179E+03  0.12500086993E+03 0.  0.
          2    1    1    2  501    0 -0.80429143879E+02  0.11902318291E+03 -0.13174541645E+03  0.19491593063E+03  0.00000000000E+00 0. -1.
          1    1    1    2  502    0 -0.21372932223E+02  0.77039054398E+00  0.74770778886E+03  0.74801359163E+03  0.00000000000E+00 0. -1.
         22    1    3    3    0    0  0.11386061326E+03 -0.98064600103E+02  0.13129249327E+03  0.19954604440E+03  0.00000000000E+00 0. -1.
         22    1    3    3    0    0 -0.12058537163E+02 -0.21728973352E+02 -0.18337925666E+02  0.30884237391E+02  0.00000000000E+00 0. -1.
</event>
<event>
 7    1  0.7118985E-006  0.1718718E+03  0.7818608E-02  0.1179765E+00
          2   -1    0    0  502    0  0.00000000000E+00  0.00000000000E+00  0.11955199405E+04  0.11955199405E+04  0.00000000000E+00 0. -1.
          1   -1    0    0  501    0 -0.00000000000E+00 -0.00000000000E+00 -0.24671318221E+03  0.24671318221E+03  0.00000000000E+00 0. -1.
         25    2    1    2    0    0  0.11698892194E+03 -0.28639110551E+03  0.60044498182E+03  0.68692583443E+03  0.12500661036E+03 0.  0.
          2    1    1    2  501    0 -0.11143705169E+03  0.12192705871E+03 -0.15451899404E+03  0.22618696614E+03  0.00000000000E+00 0. -1.
          1    1    1    2  502    0 -0.55518702534E+01  0.16446404680E+03  0.50288077053E+03  0.52912032216E+03  0.00000000000E+00 0. -1.
         22    1    3    3    0    0  0.13592172878E+03 -0.17986437405E+03  0.40955093778E+03  0.46750174336E+03  0.00000000000E+00 0.  1.
         22    1    3    3    0    0 -0.18932806835E+02 -0.10652673146E+03  0.19089404404E+03  0.21942409107E+03  0.00000000000E+00 0.  1.
</event>
<event>
 7    1  0.7118985E-006  0.8406252E+02  0.7818608E-02  0.1439457E+00
          2   -1    0    0  502    0  0.00000000000E+00  0.00000000000E+00  0.19721277462E+04  0.19721277462E+04  0.00000000000E+00 0. -1.
          1   -1    0    0  501    0 -0.00000000000E+00 -0.00000000000E+00 -0.21581330198E+04  0.21581330198E+04  0.00000000000E+00 0. -1.
         25    2    1    2    0    0  0.79979840788E+02  0.82507902821E+02  0.21960661519E+03  0.27759143698E+03  0.12500244594E+03 0.  0.
          2    1    1    2  501    0 -0.56726995516E+02 -0.61897680560E+02 -0.21281727300E+04  0.21298282663E+04  0.00000000000E+00 0. -1.
          1    1    1    2  502    0 -0.23252845271E+02 -0.20610222261E+02  0.17225608412E+04  0.17228410628E+04  0.00000000000E+00 0. -1.
         22    1    3    3    0    0 -0.16592748086E+00 -0.30634794735E+02  0.31898922232E+02  0.44227360535E+02  0.00000000000E+00 0. -1.
         22    1    3    3    0    0  0.80145768269E+02  0.11314269756E+03  0.18770769296E+03  0.23336407645E+03  0.00000000000E+00 0. -1.
</event>
<event>
 7    1  0.7118985E-006  0.1952419E+03  0.7818608E-02  0.1166257E+00
          2   -1    0    0  502    0  0.00000000000E+00  0.00000000000E+00  0.56161344853E+02  0.56161344853E+02  0.00000000000E+00 0. -1.
          1   -1    0    0  501    0 -0.00000000000E+00 -0.00000000000E+00 -0.30043159744E+04  0.30043159744E+04  0.00000000000E+00 0. -1.
         25    2    1    2    0    0  0.88345771294E+02  0.28145124815E+02 -0.98505951378E+03  0.99728503632E+03  0.12505228758E+03 0.  0.
          2    1    1    2  501    0  0.38556386166E+02  0.16446563716E+03 -0.17192854861E+04  0.17275642169E+04  0.00000000000E+00 0. -1.
          1    1    1    2  502    0 -0.12690215746E+03 -0.19261076198E+03 -0.24380962963E+03  0.33562806602E+03  0.00000000000E+00 0. -1.
         22    1    3    3    0    0  0.47350588683E+02 -0.28003739133E+02 -0.75372148236E+03  0.75572637947E+03  0.00000000000E+00 0.  1.
         22    1    3    3    0    0  0.40995182610E+02  0.56148863948E+02 -0.23133803141E+03  0.24155865685E+03  0.00000000000E+00 0.  1.
</event>
<event>
 7    1  0.7118985E-006  0.2160325E+03  0.7818608E-02  0.1172905E+00
          2   -1    0    0  502    0  0.00000000000E+00  0.00000000000E+00  0.96337399234E+03  0.96337399234E+03  0.00000000000E+00 0. -1.
          1   -1    0    0  501    0 -0.00000000000E+00 -0.00000000000E+00 -0.41621854947E+03  0.41621854947E+03  0.00000000000E+00 0. -1.
         25    2    1    2    0    0  0.60662704164E+02 -0.26774613630E+03 -0.21480735920E+02  0.30241442839E+03  0.12500042921E+03 0.  0.
          2    1    1    2  501    0 -0.14062021306E+03  0.15102433934E+03 -0.20490390260E+03  0.29080578518E+03  0.00000000000E+00 0. -1.
          1    1    1    2  502    0  0.79957508893E+02  0.11672179696E+03  0.77354008139E+03  0.78637232824E+03  0.00000000000E+00 0. -1.
         22    1    3    3    0    0 -0.13451743712E+02 -0.12568502823E+02 -0.31519646184E+02  0.36502120043E+02  0.00000000000E+00 0.  1.
         22    1    3    3    0    0  0.74114447875E+02 -0.25517763347E+03  0.10038910264E+02  0.26591230834E+03  0.00000000000E+00 0.  1.
</event>
<event>
 7    1  0.7118985E-006  0.9245801E+02  0.7818608E-02  0.1320407E+00
          2   -1    0    0  502    0  0.00000000000E+00  0.00000000000E+00  0.11790564400E+04  0.11790564400E+04  0.00000000000E+00 0. -1.
          1   -1    0    0  501    0 -0.00000000000E+00 -0.00000000000E+00 -0.43145570127E+03  0.43145570127E+03  0.00000000000E+00 0. -1.
         25    2    1    2    0    0 -0.54827904770E+02 -0.41188085278E+02  0.13901383381E+03  0.19912615811E+03  0.12499529328E+03 0.  0.
          2    1    1    2  501    0  0.20073707845E+01  0.94059847296E+02 -0.39447745051E+03  0.40554129675E+03  0.00000000000E+00 0. -1.
          1    1    1    2  502    0  0.52820533986E+02 -0.52871762018E+02  0.10030643555E+04  0.10058446864E+04  0.00000000000E+00 0. -1.
         22    1    3    3    0    0 -0.24283175772E+02 -0.36627059051E+02 -0.11541515450E+02  0.45435896153E+02  0.00000000000E+00 0.  1.
         22    1    3    3    0    0 -0.30544728998E+02 -0.45610262267E+01  0.15055534926E+03  0.15369026196E+03  0.00000000000E+00 0.  1.
</event>
<event>
 7    1  0.7118985E-006  0.1059276E+03  0.7818608E-02  0.1359890E+00
          2   -1    0    0  502    0  0.00000000000E+00  0.00000000000E+00  0.21602679588E+04  0.21602679588E+04  0.00000000000E+00 0. -1.
          1   -1    0    0  501    0 -0.00000000000E+00 -0.00000000000E+00 -0.13289678778E+03  0.13289678778E+03  0.00000000000E+00 0. -1.
         25    2    1    2    0    0  0.10785198354E+03 -0.83211114300E+02  0.27893866485E+03  0.33464346901E+03  0.12499333064E+03 0.  0.
          2    1    1    2  501    0 -0.10433153104E+02  0.45147345429E+02 -0.98381669427E+02  0.10874781084E+03  0.00000000000E+00 0. -1.
          1    1    1    2  502    0 -0.97418830437E+02  0.38063768871E+02  0.18468141756E+04  0.18497734667E+04  0.00000000000E+00 0. -1.
         22    1    3    3    0    0 -0.84239697692E+01 -0.13685110345E+02 -0.75362770043E+01  0.17749393875E+02  0.00000000000E+00 0.  1.
         22    1    3    3    0    0  0.11627595331E+03 -0.69526003955E+02  0.28647494186E+03  0.31689407513E+03  0.00000000000E+00 0.  1.
</event>
<event>
 7    1  0.7118985E-006  0.5060019E+02  0.7818608E-02  0.1572618E+00
          2   -1    0    0  502    0  0.00000000000E+00  0.00000000000E+00  0.63393600824E+03  0.63393600824E+03  0.00000000000E+00 0. -1.
          1   -1    0    0  501    0 -0.00000000000E+00 -0.00000000000E+00 -0.11196738499E+03  0.11196738499E+03  0.00000000000E+00 0. -1.
         25    2    1    2    0    0 -0.27682904633E+02 -0.64772012972E+02  0.15275350717E+03  0.20957767915E+03  0.12500965071E+03 0.  0.
          2    1    1    2  501    0  0.80660450407E+01  0.19164861845E+02 -0.80875264909E+02  0.83505457823E+02  0.00000000000E+00 0. -1.
          1    1    1    2  502    0  0.19616859593E+02  0.45607151127E+02  0.45009038099E+03  0.45282025626E+03  0.00000000000E+00 0. -1.
         22    1    3    3    0    0 -0.77852250953E+02 -0.39327104039E+02  0.91395246153E+02  0.12633560508E+03  0.00000000000E+00 0.  1.
         22    1    3    3    0    0  0.50169346320E+02 -0.25444908933E+02  0.61358261013E+02  0.83242074069E+02  0.00000000000E+00 0.  1.
</event>
<event>
 7    1  0.7118985E-006  0.9761548E+02  0.7818608E-02  0.1441226E+00
          2   -1    0    0  502    0  0.00000000000E+00  0.00000000000E+00  0.36161898284E+03  0.36161898284E+03  0.00000000000E+00 0. -1.
          1   -1    0    0  501    0 -0.00000000000E+00 -0.00000000000E+00 -0.75049807768E+03  0.75049807768E+03  0.00000000000E+00 0. -1.
         25    2    1    2    0    0  0.72516910176E+02 -0.10081317752E+01 -0.62163234963E+01  0.14464994555E+03  0.12500098191E+03 0.  0.
          2    1    1    2  501    0 -0.98919380303E+02  0.14892695169E+01 -0.67083344490E+03  0.67808905943E+03  0.00000000000E+00 0. -1.
          1    1    1    2  502    0  0.26402470127E+02 -0.48113774173E+00  0.28817067357E+03  0.28937805554E+03  0.00000000000E+00 0. -1.
         22    1    3    3    0    0  0.11552614635E+02 -0.55303253637E+02  0.18340649727E+02  0.59399429291E+02  0.00000000000E+00 0.  1.
         22    1    3    3    0    0  0.60964295541E+02  0.54295121862E+02 -0.24556973223E+02  0.85250516260E+02  0.00000000000E+00 0.  1.
</event>
<event>
 7    1  0.7118985E-006  0.2812221E+02  0.7818608E-02  0.1628529E+00
          2   -1    0    0  502    0  0.00000000000E+00  0.00000000000E+00  0.56803037731E+03  0.56803037731E+03  0.00000000000E+00 0. -1.
          1   -1    0    0  501    0 -0.00000000000E+00 -0.00000000000E+00 -0.80524052966E+03  0.80524052966E+03  0.00000000000E+00 0. -1.
         25    2    1    2    0    0 -0.28793928707E+02  0.10199001367E+00 -0.65628446933E+02  0.14408949052E+03  0.12500234998E+03 0.  0.
          2    1    1    2  501    0  0.13111509293E+02  0.23293115275E+02 -0.69975117760E+03  0.70026151647E+03  0.00000000000E+00 0. -1.
          1    1    1    2  502    0  0.15682419414E+02 -0.23395105288E+02  0.52816947219E+03  0.52891989997E+03  0.00000000000E+00 0. -1.
         22    1    3    3    0    0  0.26421292060E+01 -0.55701246675E+02 -0.56516411128E+02  0.79395934749E+02  0.00000000000E+00 0.  1.
         22    1    3    3    0    0 -0.31436057913E+02  0.55803236689E+02 -0.91120358050E+01  0.64693555773E+02  0.00000000000E+00 0.  1.
</event>
<event>
 7    1  0.7118985E-006  0.9455850E+02  0.7818608E-02  0.1331948E+00
          2   -1    0    0  502    0  0.00000000000E+00  0.00000000000E+00  0.18267688149E+03  0.18267688149E+03  0.00000000000E+00 0. -1.
          1   -1    0    0  501    0 -0.00000000000E+00 -0.00000000000E+00 -0.29534441367E+03  0.29534441367E+03  0.00000000000E+00 0. -1.
         25    2    1    2    0    0  0.20021539427E+02  0.42054921092E+02 -0.16929142242E+02  0.13447011055E+03  0.12500454529E+03 0.  0.
          2    1    1    2  501    0  0.99428819950E+01  0.65227792857E+02 -0.18779286904E+03  0.19904694805E+03  0.00000000000E+00 0. -1.
          1    1    1    2  502    0 -0.29964421422E+02 -0.10728271395E+03  0.92054479100E+02  0.14450423657E+03  0.00000000000E+00 0. -1.
         22    1    3    3    0    0 -0.93153283766E+01 -0.40956038293E+02 -0.19681566041E+02  0.46384657563E+02  0.00000000000E+00 0. -1.
         22    1    3    3    0    0  0.29336867804E+02  0.83010959385E+02  0.27524237989E+01  0.88085452984E+02  0.00000000000E+00 0. -1.
</event>
<event>
 7    1  0.7118985E-006  0.2061353E+03  0.7818608E-02  0.1248912E+00
          2   -1    0    0  502    0  0.00000000000E+00  0.00000000000E+00  0.11496247137E+04  0.11496247137E+04  0.00000000000E+00 0. -1.
          1   -1    0    0  501    0 -0.00000000000E+00 -0.00000000000E+00 -0.99715955411E+03  0.99715955411E+03  0.00000000000E+00 0. -1.
         25    2    1    2    0    0 -0.14948041867E+03  0.63034055364E+02  0.11346184180E+03  0.23412838856E+03  0.12499930034E+03 0.  0.
          2    1    1    2  501    0 -0.27368728581E+02  0.59936739211E+02 -0.92375184238E+03  0.92609876704E+03  0.00000000000E+00 0. -1.
          1    1    1    2  502    0  0.17684914725E+03 -0.12297079458E+03  0.96275516014E+03  0.98655711217E+03  0.00000000000E+00 0. -1.
         22    1    3    3    0    0 -0.98175565176E+01  0.16553472829E+02 -0.25334232946E+02  0.31815487386E+02  0.00000000000E+00 0. -1.
         22    1    3    3    0    0 -0.13966286215E+03  0.46480582536E+02  0.13879607474E+03  0.20231290117E+03  0.00000000000E+00 0. -1.
</event>
<event>
 7    1  0.7118985E-006  0.4580457E+02  0.7818608E-02  0.1541670E+00
          2   -1    0    0  502    0  0.00000000000E+00  0.00000000000E+00  0.22139488051E+04  0.22139488051E+04  0.00000000000E+00 0. -1.
          1   -1    0    0  501    0 -0.00000000000E+00 -0.00000000000E+00 -0.67055702678E+03  0.67055702678E+03  0.00000000000E+00 0. -1.
         25    2    1    2    0    0  0.15104096061E+02  0.13475567137E+02  0.10516056439E+04  0.10592021755E+04  0.12500037489E+03 0.  0.
          2    1    1    2  501    0 -0.20711198727E+02 -0.40877236331E+02 -0.66580228308E+03  0.66737739125E+03  0.00000000000E+00 0. -1.
          1    1    1    2  502    0  0.56071026659E+01  0.27401669194E+02  0.11575884175E+04  0.11579262651E+04  0.00000000000E+00 0. -1.
         22    1    3    3    0    0 -0.73276113767E+01 -0.48583695376E+02  0.68079355199E+03  0.68256423125E+03  0.00000000000E+00 0. -1.
         22    1    3    3    0    0  0.22431707438E+02  0.62059262513E+02  0.37081209190E+03  0.37663794427E+03  0.00000000000E+00 0. -1.
</event>
<event>
 7    1  0.7118985E-006  0.5939538E+02  0.7818608E-02  0.1514809E+00
          2   -1    0    0  502    0  0.00000000000E+00  0.00000000000E+00  0.20306857981E+04  0.20306857981E+04  0.00000000000E+00 0. -1.
          1   -1    0    0  501    0 -0.00000000000E+00 -0.00000000000E+00 -0.22845237498E+03  0.22845237498E+03  0.00000000000E+00 0. -1.
         25    2    1    2    0    0 -0.26208354295E+02 -0.75902676189E+02  0.69711333857E+03  0.71276965895E+03  0.12500194325E+03 0.  0.
          2    1    1    2  501    0 -0.23748379736E+01  0.25652776113E+02 -0.21923940254E+03  0.22074786613E+03  0.00000000000E+00 0. -1.
          1    1    1    2  502    0  0.28583192268E+02  0.50249900077E+02  0.13243594871E+04  0.13256206480E+04  0.00000000000E+00 0. -1.
         22    1    3    3    0    0 -0.44685287877E+02 -0.72277926480E+02  0.22867628250E+03  0.24395433135E+03  0.00000000000E+00 0. -1.
         22    1    3    3    0    0  0.18476933583E+02 -0.36247497095E+01  0.46843705607E+03  0.46881532760E+03  0.00000000000E+00 0. -1.
</event>
<event>
 7    1  0.7118985E-006  0.1164186E+03  0.7818608E-02  0.1251416E+00
          2   -1    0    0  502    0  0.00000000000E+00  0.00000000000E+00  0.26196919870E+04  0.26196919870E+04  0.00000000000E+00 0. -1.
          1   -1    0    0  501    0 -0.00000000000E+00 -0.00000000000E+00 -0.26369245497E+03  0.26369245497E+03  0.00000000000E+00 0. -1.
         25    2    1    2    0    0  0.11415822698E+02  0.34164148691E+02  0.47300885614E+03  0.49057105930E+03  0.12500030471E+03 0.  0.
          2    1    1    2  501    0  0.11539437800E+03  0.15408543738E+02 -0.23932297122E+03  0.26613675103E+03  0.00000000000E+00 0. -1.
          1    1    1    2  502    0 -0.12681020070E+03 -0.49572692429E+02  0.21223136471E+04  0.21266766316E+04  0.00000000000E+00 0. -1.
         22    1    3    3    0    0 -0.34500265799E+02  0.18011413417E+02  0.43725991798E+02  0.58537523967E+02  0.00000000000E+00 0.  1.
         22    1    3    3    0    0  0.45916088498E+02  0.16152735274E+02  0.42928286434E+03  0.43203353534E+03  0.00000000000E+00 0.  1.
</event>
<event>
 7    1  0.7118985E-006  0.1260139E+03  0.7818608E-02  0.1258658E+00
          2   -1    0    0  502    0  0.00000000000E+00  0.00000000000E+00  0.35875042178E+03  0.35875042178E+03  0.00000000000E+00 0. -1.
          1   -1    0    0  501    0 -0.00000000000E+00 -0.00000000000E+00 -0.21770065200E+03  0.21770065200E+03  0.00000000000E+00 0. -1.
         25    2    1    2    0    0 -0.37388554105E+02 -0.13849251476E+02 -0.12046753430E+02  0.13175297674E+03  0.12499606741E+03 0.  0.
          2    1    1    2  501    0  0.45872473586E+02  0.13957723326E+03 -0.88994906518E+02  0.17177363378E+03  0.00000000000E+00 0. -1.
          1    1    1    2  502    0 -0.84839194811E+01 -0.12572798178E+03  0.24209142973E+03  0.27292446325E+03  0.00000000000E+00 0. -1.
         22    1    3    3    0    0  0.13964726116E+02  0.19559112950E+02  0.43085087322E+02  0.49334543926E+02  0.00000000000E+00 0.  1.
         22    1    3    3    0    0 -0.51353280221E+02 -0.33408364425E+02 -0.55131840752E+02  0.82418432815E+02  0.00000000000E+00 0.  1.
</event>
<event>
 7    1  0.7118985E-006  0.2724908E+03  0.7818608E-02  0.1189520E+00
          2   -1    0    0  502    0  0.00000000000E+00  0.00000000000E+00  0.10112697154E+04  0.10112697154E+04  0.00000000000E+00 0. -1.
          1   -1    0    0  501    0 -0.00000000000E+00 -0.00000000000E+00 -0.79862369961E+03  0.79862369961E+03  0.00000000000E+00 0. -1.
         25    2    1    2    0    0 -0.26319093344E+03 -0.15399213628E+03  0.84617882482E+02  0.34024737235E+03  0.12500017151E+03 0.  0.
          2    1    1    2  501    0  0.18189896150E+03  0.19936418707E+03 -0.64074280513E+03  0.69525869546E+03  0.00000000000E+00 0. -1.
          1    1    1    2  502    0  0.81291971932E+02 -0.45372050799E+02  0.76877093847E+03  0.77438734722E+03  0.00000000000E+00 0. -1.
         22    1    3    3    0    0 -0.17899182164E+03 -0.32777087789E+02  0.46800811176E+02  0.18789019566E+03  0.00000000000E+00 0.  1.
         22    1    3    3    0    0 -0.84199111792E+02 -0.12121504849E+03  0.37817071306E+02  0.15235717669E+03  0.00000000000E+00 0.  1.
</event>
<event>
 7    1  0.7118985E-006  0.4525665E+02  0.7818608E-02  0.1484183E+00
          2   -1    0    0  502    0  0.00000000000E+00  0.00000000000E+00  0.17856154424E+04  0.17856154424E+04  0.00000000000E+00 0. -1.
          1   -1    0    0  501    0 -0.00000000000E+00 -0.00000000000E+00 -0.10605856789E+04  0.10605856789E+04  0.00000000000E+00 0. -1.
         25    2    1    2    0    0 -0.55423642612E+02  0.45306961462E+02  0.38508968739E+02  0.14910826597E+03  0.12500333351E+03 0.  0.
          2    1    1    2  501    0  0.13748659442E+02 -0.43033320053E+02 -0.10045208696E+04  0.10055362100E+04  0.00000000000E+00 0. -1.
          1    1    1    2  502    0  0.41674983170E+02 -0.22736414084E+01  0.16910416643E+04  0.16915566453E+04  0.00000000000E+00 0. -1.
         22    1    3    3    0    0 -0.54501465488E+02  0.22442233002E+02 -0.37413061134E+02  0.69812611367E+02  0.00000000000E+00 0. -1.
         22    1    3    3    0    0 -0.92217712364E+00  0.22864728460E+02  0.75922029873E+02  0.79295654599E+02  0.00000000000E+00 0. -1.
</event>
<event>
 7    1  0.7118985E-006  0.8241927E+02  0.7818608E-02  0.1325156E+00
          2   -1    0    0  502    0  0.00000000000E+00  0.00000000000E+00  0.99265502598E+02  0.99265502598E+02  0.00000000000E+00 0. -1.
          1   -1    0    0  501    0 -0.00000000000E+00 -0.00000000000E+00 -0.54071028725E+03  0.54071028725E+03  0.00000000000E+00 0. -1.
         25    2    1    2    0    0 -0.10155010367E+03 -0.12845289147E+02 -0.11168980376E+03  0.19641147896E+03  0.12500172717E+03 0.  0.
          2    1    1    2  501    0  0.55543950273E+02 -0.58089329505E+02 -0.34792424668E+03  0.35708651898E+03  0.00000000000E+00 0. -1.
          1    1    1    2  502    0  0.46006153397E+02  0.70934618652E+02  0.18169265782E+02  0.86477791905E+02  0.00000000000E+00 0. -1.
         22    1    3    3    0    0 -0.18942638656E+02  0.12679171924E+02  0.25529256062E+02  0.34224667639E+02  0.00000000000E+00 0. -1.
         22    1    3    3    0    0 -0.82607465014E+02 -0.25524461071E+02 -0.13721905982E+03  0.16218681132E+03  0.00000000000E+00 0. -1.
</event>
<event>
 7    1  0.7118985E-006  0.1118398E+03  0.7818608E-02  0.1378714E+00
          2   -1    0    0  502    0  0.00000000000E+00  0.00000000000E+00  0.60967984724E+03  0.60967984724E+03  0.00000000000E+00 0. -1.
          1   -1    0    0  501    0 -0.00000000000E+00 -0.00000000000E+00 -0.12696557634E+04  0.12696557634E+04  0.00000000000E+00 0. -1.
         25    2    1    2    0    0  0.92581359639E+02  0.25540501983E+02 -0.12737863942E+03  0.20266811583E+03  0.12500168798E+03 0.  0.
          2    1    1    2  501    0  0.60945044345E+00  0.37543736923E+02 -0.10987738944E+04  0.10994152876E+04  0.00000000000E+00 0. -1.
          1    1    1    2  502    0 -0.93190810082E+02 -0.63084238906E+02  0.56617661768E+03  0.57725220718E+03  0.00000000000E+00 0. -1.
         22    1    3    3    0    0  0.11942925446E+03  0.26484139583E+02 -0.74161949498E+02  0.14305506361E+03  0.00000000000E+00 0. -1.
         22    1    3    3    0    0 -0.26847894823E+02 -0.94363759999E+00 -0.53216689923E+02  0.59613052217E+02  0.00000000000E+00 0. -1.
</event>
<event>
 7    1  0.7118985E-006  0.1339345E+03  0.7818608E-02  0.1345385E+00
          2   -1    0    0  502    0  0.00000000000E+00  0.00000000000E+00  0.20571088095E+03  0.20571088095E+03  0.00000000000E+00 0. -1.
          1   -1    0    0  501    0 -0.00000000000E+00 -0.00000000000E+00 -0.11024284768E+04  0.11024284768E+04  0.00000000000E+00 0. -1.
         25    2    1    2    0    0  0.11607191823E+03  0.10491608032E+03 -0.32271480785E+03  0.37980238208E+03  0.12499971249E+03 0.  0.
          2    1    1    2  501    0 -0.11353371823E+03 -0.63538929769E+02 -0.74301254946E+03  0.75431740628E+03  0.00000000000E+00 0. -1.
          1    1    1    2  502    0 -0.25381999939E+01 -0.41377150548E+02  0.16900976148E+03  0.17401956936E+03  0.00000000000E+00 0. -1.
         22    1    3    3    0    0  0.92623231561E+02  0.81577132778E+02 -0.11251057227E+03  0.16701054005E+03  0.00000000000E+00 0. -1.
         22    1    3    3    0    0  0.23448686666E+02  0.23338947539E+02 -0.21020423558E+03  0.21279184203E+03  0.00000000000E+00 0. -1.
</event>
<event>
 7    1  0.7118985E-006  0.1317096E+03  0.7818608E-02  0.1263832E+00
          2   -1    0    0  502    0  0.00000000000E+00  0.00000000000E+00  0.64680407047E+03  0.64680407047E+03  0.00000000000E+00 0. -1.
          1   -1    0    0  501    0 -0.00000000000E+00 -0.00000000000E+00 -0.47146614382E+03  0.47146614382E+03  0.00000000000E+00 0. -1.
         25    2    1    2    0    0 -0.76311781560E+02 -0.89468772269E+02 -0.11109647052E+03  0.20444006724E+03  0.12500066445E+03 0.  0.
          2    1    1    2  501    0  0.14100508849E+03  0.28376062796E+02 -0.29363825152E+03  0.32697256564E+03  0.00000000000E+00 0. -1.
          1    1    1    2  502    0 -0.64693306932E+02  0.61092709473E+02  0.58007264869E+03  0.58685758142E+03  0.00000000000E+00 0. -1.
         22    1    3    3    0    0  0.58915676107E+01 -0.33143373638E+02 -0.98383624295E+02  0.10398332229E+03  0.00000000000E+00 0.  1.
         22    1    3    3    0    0 -0.82203349171E+02 -0.56325398632E+02 -0.12712846222E+02  0.10045674495E+03  0.00000000000E+00 0.  1.
</event>
<event>
 7    1  0.7118985E-006  0.5249859E+02  0.7818608E-02  0.1464301E+00
          2   -1    0    0  502    0  0.00000000000E+00  0.00000000000E+00  0.16982743021E+04  0.16982743021E+04  0.00000000000E+00 0. -1.
          1   -1    0    0  501    0 -0.00000000000E+00 -0.00000000000E+00 -0.18311355139E+03  0.18311355139E+03  0.00000000000E+00 0. -1.
         25    2    1    2    0    0  0.80003523885E+01  0.30322801209E+02  0.72808946912E+02  0.14802670437E+03  0.12500913784E+03 0.  0.
          2    1    1    2  501    0  0.31097434280E+02 -0.44091871437E+02 -0.14022213989E+03  0.15024444103E+03  0.00000000000E+00 0. -1.
          1    1    1    2  502    0 -0.39097786669E+02  0.13769070228E+02  0.15825739437E+04  0.15831167081E+04  0.00000000000E+00 0. -1.
         22    1    3    3    0    0  0.48839477170E+02 -0.21341883955E+02  0.50513176560E+01  0.53537709617E+02  0.00000000000E+00 0. -1.
         22    1    3    3    0    0 -0.40839124782E+02  0.51664685164E+02  0.67757629256E+02  0.94488994748E+02  0.00000000000E+00 0. -1.
</event>
<event>
 7    1  0.7989804E-006  0.1105862E+03  0.7818608E-02  0.1264778E+00
          2   -1    0    0  502    0  0.00000000000E+00  0.00000000000E+00  0.15192253766E+04  0.15192253766E+04  0.00000000000E+00 0. -1.
          1   -1    0    0  501    0 -0.00000000000E+00 -0.00000000000E+00 -0.12188287885E+04  0.12188287885E+04  0.00000000000E+00 0. -1.
         25    2    1    2    0    0 -0.30684212184E+02  0.59644388368E+02 -0.34442897546E+03  0.37249842734E+03  0.12499914118E+03 0.  0.
          2    1    1    2  501    0  0.12764101379E+03 -0.64590501922E+01 -0.85356996551E+03  0.86308495165E+03  0.00000000000E+00 0. -1.
          1    1    1    2  502    0 -0.96956801608E+02 -0.53185338175E+02  0.14983955290E+04  0.15024707861E+04  0.00000000000E+00 0. -1.
         22    1    3    3    0    0 -0.21203414928E+01  0.78712332293E+02 -0.10837911526E+03  0.13396327753E+03  0.00000000000E+00 0. -1.
         22    1    3    3    0    0 -0.28563870691E+02 -0.19067943925E+02 -0.23604986020E+03  0.23853514981E+03  0.00000000000E+00 0. -1.
</event>
<event>
 7    1  0.7118985E-006  0.1101156E+03  0.7818608E-02  0.1285750E+00
          2   -1    0    0  502    0  0.00000000000E+00  0.00000000000E+00  0.27859963252E+04  0.27859963252E+04  0.00000000000E+00 0. -1.
          1   -1    0    0  501    0 -0.00000000000E+00 -0.00000000000E+00 -0.19768112844E+03  0.19768112844E+03  0.00000000000E+00 0. -1.
         25    2    1    2    0    0  0.70153853589E+02 -0.39771893020E+02  0.29353840795E+03  0.32907906022E+03  0.12499945713E+03 0.  0.
          2    1    1    2  501    0 -0.47196745213E+02 -0.72182213588E+02 -0.16817370407E+03  0.18899788215E+03  0.00000000000E+00 0. -1.
          1    1    1    2  502    0 -0.22957108376E+02  0.11195410661E+03  0.24629504929E+04  0.24656005113E+04  0.00000000000E+00 0. -1.
         22    1    3    3    0    0  0.23493590870E+02  0.42900292971E+02  0.62984810364E+02  0.79746286970E+02  0.00000000000E+00 0.  1.
         22    1    3    3    0    0  0.46660262720E+02 -0.82672185991E+02  0.23055359759E+03  0.24933277325E+03  0.00000000000E+00 0.  1.
</event>
<event>
 7    1  0.7118985E-006  0.2184059E+03  0.7818608E-02  0.1174199E+00
          2   -1    0    0  502    0  0.00000000000E+00  0.00000000000E+00  0.29694023551E+03  0.29694023551E+03  0.00000000000E+00 0. -1.
          1   -1    0    0  501    0 -0.00000000000E+00 -0.00000000000E+00 -0.12612224217E+04  0.12612224217E+04  0.00000000000E+00 0. -1.
         25    2    1    2    0    0  0.55756180610E+02 -0.99921281214E+02  0.77428309094E+02  0.18631469048E+03  0.12500002690E+03 0.  0.
          2    1    1    2  501    0 -0.19184459953E+03 -0.10438776200E+03 -0.10984001673E+04  0.11199036042E+04  0.00000000000E+00 0. -1.
          1    1    1    2  502    0  0.13608841892E+03  0.20430904321E+03  0.56689671982E+02  0.25194436253E+03  0.00000000000E+00 0. -1.
         22    1    3    3    0    0 -0.45923307309E+01 -0.21864211180E+02 -0.31965590138E+02  0.38999130567E+02  0.00000000000E+00 0.  1.
         22    1    3    3    0    0  0.60348511341E+02 -0.78057070033E+02  0.10939389923E+03  0.14731555991E+03  0.00000000000E+00 0.  1.
</event>
<event>
 7    1  0.7118985E-006  0.3240051E+02  0.7818608E-02  0.1650262E+00
          2   -1    0    0  502    0  0.00000000000E+00  0.00000000000E+00  0.11284493572E+04  0.11284493572E+04  0.00000000000E+00 0. -1.
          1   -1    0    0  501    0 -0.00000000000E+00 -0.00000000000E+00 -0.32899389307E+03  0.32899389307E+03  0.00000000000E+00 0. -1.
         25    2    1    2    0    0  0.48628251305E+02  0.31271259258E+01  0.83182460777E+03  0.84257467648E+03  0.12500168644E+03 0.  0.
          2    1    1    2  501    0 -0.18854932206E+02 -0.80132733777E+01 -0.32251156424E+03  0.32316161605E+03  0.00000000000E+00 0. -1.
          1    1    1    2  502    0 -0.29773319098E+02  0.48861474519E+01  0.29014242064E+03  0.29170695779E+03  0.00000000000E+00 0. -1.
         22    1    3    3    0    0  0.17704751997E+02 -0.46925624494E+02  0.14889092503E+03  0.15711136189E+03  0.00000000000E+00 0. -1.
         22    1    3    3    0    0  0.30923499307E+02  0.50052750419E+02  0.68293368274E+03  0.68546331459E+03  0.00000000000E+00 0. -1.
</event>
<event>
 7    1  0.7118985E-006  0.2394160E+03  0.7818608E-02  0.1208723E+00
          2   -1    0    0  502    0  0.00000000000E+00  0.00000000000E+00  0.37846617275E+04  0.37846617275E+04  0.00000000000E+00 0. -1.
          1   -1    0    0  501    0 -0.00000000000E+00 -0.00000000000E+00 -0.66106201602E+03  0.66106201602E+03  0.00000000000E+00 0. -1.
         25    2    1    2    0    0  0.16909154492E+03 -0.55692275680E+02  0.13171214779E+03  0.25429771958E+03  0.12500264067E+03 0.  0.
          2    1    1    2  501    0 -0.21092210460E+03  0.13081621317E+03 -0.57355172255E+03  0.62495007343E+03  0.00000000000E+00 0. -1.
          1    1    1    2  502    0  0.41830559681E+02 -0.75123937489E+02  0.35654392863E+04  0.35664759505E+04  0.00000000000E+00 0. -1.
         22    1    3    3    0    0  0.30190530701E+02  0.35411955782E+02  0.52844036987E+02  0.70412832647E+02  0.00000000000E+00 0. -1.
         22    1    3    3    0    0  0.13890101422E+03 -0.91104231461E+02  0.78868110802E+02  0.18388488693E+03  0.00000000000E+00 0. -1.
</event>
<event>
 7    1  0.7118985E-006  0.4088002E+02  0.7818608E-02  0.1522178E+00
          2   -1    0    0  502    0  0.00000000000E+00  0.00000000000E+00  0.23703943964E+02  0.23703943964E+02  0.00000000000E+00 0. -1.
          1   -1    0    0  501    0 -0.00000000000E+00 -0.00000000000E+00 -0.14448044903E+04  0.14448044903E+04  0.00000000000E+00 0. -1.
         25    2    1    2    0    0  0.78129448563E+01  0.11914315407E+02 -0.87049032539E+03  0.87953483587E+03  0.12500051155E+03 0.  0.
          2    1    1    2  501    0  0.29388306949E+02 -0.28862553544E+02 -0.54631822182E+03  0.54786888858E+03  0.00000000000E+00 0. -1.
          1    1    1    2  502    0 -0.37201251805E+02  0.16948238137E+02 -0.42919991168E+01  0.41104709806E+02  0.00000000000E+00 0. -1.
         22    1    3    3    0    0 -0.34380438578E+02  0.18926221984E+02 -0.76063197970E+03  0.76164376514E+03  0.00000000000E+00 0.  1.
         22    1    3    3    0    0  0.42193383434E+02 -0.70119065767E+01 -0.10985834569E+03  0.11789107073E+03  0.00000000000E+00 0.  1.
</event>
<event>
 7    1  0.7118985E-006  0.7489664E+02  0.7818608E-02  0.1367058E+00
          2   -1    0    0  502    0  0.00000000000E+00  0.00000000000E+00  0.21007655610E+04  0.21007655610E+04  0.00000000000E+00 0. -1.
          1   -1    0    0  501    0 -0.00000000000E+00 -0.00000000000E+00 -0.60018283588E+02  0.60018283588E+02  0.00000000000E+00 0. -1.
         25    2    1    2    0    0 -0.22183923636E+02  0.82029013880E+00  0.49604513968E+03  0.51203219070E+03  0.12499353727E+03 0.  0.
          2    1    1    2  501    0 -0.55951498654E+02 -0.26062720186E+02 -0.32265037926E+02  0.69648174832E+02  0.00000000000E+00 0. -1.
          1    1    1    2  502    0  0.78135422290E+02  0.25242430047E+02  0.15769671756E+04  0.15791034790E+04  0.00000000000E+00 0. -1.
         22    1    3    3    0    0 -0.52317290670E+02  0.16392911911E+02  0.96005772600E+02  0.11055738255E+03  0.00000000000E+00 0.  1.
         22    1    3    3    0    0  0.30133367034E+02 -0.15572621772E+02  0.40003936708E+03  0.40147480815E+03  0.00000000000E+00 0.  1.
</event>
<event>
 7    1  0.7118985E-006  0.1469865E+03  0.7818608E-02  0.1235322E+00
          2   -1    0    0  502    0  0.00000000000E+00  0.00000000000E+00  0.17750256313E+04  0.17750256313E+04  0.00000000000E+00 0. -1.
          1   -1    0    0  501    0 -0.00000000000E+00 -0.00000000000E+00 -0.28447840450E+03  0.28447840450E+03  0.00000000000E+00 0. -1.
         25    2    1    2    0    0 -0.56286841712E+02 -0.32853643810E+02  0.55820209581E+03  0.57572743321E+03  0.12499970848E+03 0.  0.
          2    1    1    2  501    0  0.57878978200E+02  0.13886981006E+03 -0.25264733139E+03  0.29405012213E+03  0.00000000000E+00 0. -1.
          1    1    1    2  502    0 -0.15921364881E+01 -0.10601616625E+03  0.11849924624E+04  0.11897264804E+04  0.00000000000E+00 0. -1.
         22    1    3    3    0    0  0.22633396015E+01 -0.70936252783E+02  0.26797058535E+03  0.27720986504E+03  0.00000000000E+00 0.  1.
         22    1    3    3    0    0 -0.58550181314E+02  0.38082608973E+02  0.29023151047E+03  0.29851756817E+03  0.00000000000E+00 0.  1.
</event>
<event>
 7    1  0.7118985E-006  0.9150183E+02  0.7818608E-02  0.1325510E+00
          2   -1    0    0  502    0  0.00000000000E+00  0.00000000000E+00  0.70163668578E+03  0.70163668578E+03  0.00000000000E+00 0. -1.
          1   -1    0    0  501    0 -0.00000000000E+00 -0.00000000000E+00 -0.31423074385E+04  0.31423074385E+04  0.00000000000E+00 0. -1.
         25    2    1    2    0    0 -0.67358534396E+02 -0.64880587214E+02 -0.93252199329E+03  0.94549842700E+03  0.12499337879E+03 0.  0.
          2    1    1    2  501    0  0.17671487788E+01  0.94977696881E+02 -0.22003966789E+04  0.22024462377E+04  0.00000000000E+00 0. -1.
          1    1    1    2  502    0  0.65591385617E+02 -0.30097109666E+02  0.69224791938E+03  0.69599945960E+03  0.00000000000E+00 0. -1.
         22    1    3    3    0    0 -0.70371546765E+02 -0.21072729707E+02 -0.83867918785E+03  0.84189013218E+03  0.00000000000E+00 0.  1.
         22    1    3    3    0    0  0.30130123690E+01 -0.43807857508E+02 -0.93842805438E+02  0.10360829482E+03  0.00000000000E+00 0.  1.
</event>
<event>
 7    1  0.7118985E-006  0.1022384E+03  0.7818608E-02  0.1304564E+00
          2   -1    0    0  502    0  0.00000000000E+00  0.00000000000E+00  0.15940196060E+04  0.15940196060E+04  0.00000000000E+00 0. -1.
          1   -1    0    0  501    0 -0.00000000000E+00 -0.00000000000E+00 -0.11630664437E+04  0.11630664437E+04  0.00000000000E+00 0. -1.
         25    2    1    2    0    0 -0.81920282012E+02  0.10973905171E+03  0.21835356011E+02  0.18670389018E+03  0.12501187048E+03 0.  0.
          2    1    1    2  501    0  0.96446907999E+02 -0.33110483470E+02 -0.10772018354E+04  0.10820176082E+04  0.00000000000E+00 0. -1.
          1    1    1    2  502    0 -0.14526625987E+02 -0.76628568244E+02  0.14863196417E+04  0.14883645513E+04  0.00000000000E+00 0. -1.
         22    1    3    3    0    0 -0.92769520186E+01  0.86121977034E+02 -0.32978740357E+02  0.92685781447E+02  0.00000000000E+00 0. -1.
         22    1    3    3    0    0 -0.72643329994E+02  0.23617074680E+02  0.54814096368E+02  0.94018108733E+02  0.00000000000E+00 0. -1.
</event>
<event>
 7    1  0.7118985E-006  0.1270510E+03  0.7818608E-02  0.1249194E+00
          2   -1    0    0  502    0  0.00000000000E+00  0.00000000000E+00  0.36036267916E+03  0.36036267916E+03  0.00000000000E+00 0. -1.
          1   -1    0    0  501    0 -0.00000000000E+00 -0.00000000000E+00 -0.27019523076E+03  0.27019523076E+03  0.00000000000E+00 0. -1.
         25    2    1    2    0    0  0.10766451632E+03  0.83667820598E+02 -0.10569794394E+02  0.18527914878E+03  0.12499876056E+03 0.  0.
          2    1    1    2  501    0  0.22651226576E+02 -0.10416823028E+03 -0.13688270042E+03  0.17349631679E+03  0.00000000000E+00 0. -1.
          1    1    1    2  502    0 -0.13031574290E+03  0.20500409683E+02  0.23761994321E+03  0.27178244435E+03  0.00000000000E+00 0. -1.
         22    1    3    3    0    0  0.11821550269E+03  0.10427234221E+03 -0.22513141161E+02  0.15923086369E+03  0.00000000000E+00 0.  1.
         22    1    3    3    0    0 -0.10550986361E+02 -0.20604521616E+02  0.11943346767E+02  0.26048285092E+02  0.00000000000E+00 0.  1.
</event>
<event>
 7    1  0.7118985E-006  0.2166076E+03  0.7818608E-02  0.1332792E+00
          2   -1    0    0  502    0  0.00000000000E+00  0.00000000000E+00  0.14187889249E+04  0.14187889249E+04  0.00000000000E+00 0. -1.
          1   -1    0    0  501    0 -0.00000000000E+00 -0.00000000000E+00 -0.53183804812E+03  0.53183804812E+03  0.00000000000E+00 0. -1.
         25    2    1    2    0    0 -0.75224627651E+02 -0.22560308267E+03  0.13768105944E+03  0.30188728089E+03  0.12499744285E+03 0.  0.
          2    1    1    2  501    0 -0.68587139609E+01  0.27756559965E+02 -0.43970047511E+03  0.44062906894E+03  0.00000000000E+00 0. -1.
          1    1    1    2  502    0  0.82083341612E+02  0.19784652271E+03  0.11889702924E+04  0.12081106232E+04  0.00000000000E+00 0. -1.
         22    1    3    3    0    0  0.15842562785E+02 -0.19304506736E+01  0.36896006360E+02  0.40199859711E+02  0.00000000000E+00 0. -1.
         22    1    3    3    0    0 -0.91067190436E+02 -0.22367263200E+03  0.10078505308E+03  0.26168742118E+03  0.00000000000E+00 0. -1.
</event>
<event>
 7    1  0.7118985E-006  0.7014371E+02  0.7818608E-02  0.1389182E+00
          2   -1    0    0  502    0  0.00000000000E+00  0.00000000000E+00  0.18882960882E+04  0.18882960882E+04  0.00000000000E+00 0. -1.
          1   -1    0    0  501    0 -0.00000000000E+00 -0.00000000000E+00 -0.16974144204E+03  0.16974144204E+03  0.00000000000E+00 0. -1.
         25    2    1    2    0    0  0.26727551216E+02  0.11109868124E+03  0.27745864747E+03  0.32505977090E+03  0.12499309833E+03 0.  0.
          2    1    1    2  501    0 -0.38542150013E+02 -0.57385383805E+02 -0.13724916497E+03  0.15367469827E+03  0.00000000000E+00 0. -1.
          1    1    1    2  502    0  0.11814598797E+02 -0.53713297435E+02  0.15783451637E+04  0.15793030611E+04  0.00000000000E+00 0. -1.
         22    1    3    3    0    0  0.26079499620E+02  0.80393116596E+02  0.28165458702E+03  0.29406206808E+03  0.00000000000E+00 0.  1.
         22    1    3    3    0    0  0.64805159620E+00  0.30705564644E+02 -0.41959395478E+01  0.30997702813E+02  0.00000000000E+00 0.  1.
</event>
<event>
 7    1  0.8904110E-006  0.9813410E+02  0.7818608E-02  0.1297096E+00
          2   -1    0    0  502    0  0.00000000000E+00  0.00000000000E+00  0.95195190298E+03  0.95195190298E+03  0.00000000000E+00 0. -1.
          1   -1    0    0  501    0 -0.00000000000E+00 -0.00000000000E+00 -0.15725364769E+04  0.15725364769E+04  0.00000000000E+00 0. -1.
         25    2    1    2    0    0 -0.77625667799E+02 -0.45967665771E+01 -0.64472115054E+03  0.66131575298E+03  0.12500515438E+03 0.  0.
          2    1    1    2  501    0  0.50471480234E+02 -0.89705678356E+02 -0.91407037796E+03  0.91984734326E+03  0.00000000000E+00 0. -1.
          1    1    1    2  502    0  0.27154187566E+02  0.94302444933E+02  0.93820695461E+03  0.94332528361E+03  0.00000000000E+00 0. -1.
         22    1    3    3    0    0  0.40781329547E+01 -0.26165276627E+02 -0.26917707161E+02  0.37759976538E+02  0.00000000000E+00 0. -1.
         22    1    3    3    0    0 -0.81703800754E+02  0.21568510050E+02 -0.61780344338E+03  0.62355577644E+03  0.00000000000E+00 0. -1.
</event>
<event>
 7    1  0.7118985E-006  0.6410210E+02  0.7818608E-02  0.1467905E+00
          2   -1    0    0  502    0  0.00000000000E+00  0.00000000000E+00  0.21034960248E+03  0.21034960248E+03  0.00000000000E+00 0. -1.
          1   -1    0    0  501    0 -0.00000000000E+00 -0.00000000000E+00 -0.13149335040E+04  0.13149335040E+04  0.00000000000E+00 0. -1.
         25    2    1    2    0    0 -0.53554281502E+02  0.48681752808E+02 -0.16651738751E+02  0.14539635386E+03  0.12499938075E+03 0.  0.
          2    1    1    2  501    0 -0.82616565527E+01 -0.32030062647E+02 -0.12266567087E+04  0.12271026285E+04  0.00000000000E+00 0. -1.
          1    1    1    2  502    0  0.61815938055E+02 -0.16651690161E+02  0.13872454586E+03  0.15278412419E+03  0.00000000000E+00 0. -1.
         22    1    3    3    0    0 -0.93702421897E+02  0.44404057591E+02 -0.16659507168E+02  0.10502096638E+03  0.00000000000E+00 0.  1.
         22    1    3    3    0    0  0.40148140395E+02  0.42776952166E+01  0.77684168681E-02  0.40375387477E+02  0.00000000000E+00 0.  1.
</event>
<event>
 7    1  0.7118985E-006  0.8677270E+02  0.7818608E-02  0.1395120E+00
          2   -1    0    0  502    0  0.00000000000E+00  0.00000000000E+00  0.64455966954E+03  0.64455966954E+03  0.00000000000E+00 0. -1.
          1   -1    0    0  501    0 -0.00000000000E+00 -0.00000000000E+00 -0.16355142806E+03  0.16355142806E+03  0.00000000000E+00 0. -1.
         25    2    1    2    0    0 -0.91479975501E+02  0.83054601690E+02  0.54779956312E+02  0.18409919544E+03  0.12500006948E+03 0.  0.
          2    1    1    2  501    0  0.57100238412E+02 -0.58251369472E+02 -0.81035334728E+02  0.11497993193E+03  0.00000000000E+00 0. -1.
          1    1    1    2  502    0  0.34379737089E+02 -0.24803232218E+02  0.50726361989E+03  0.50903197023E+03  0.00000000000E+00 0. -1.
         22    1    3    3    0    0 -0.66185627775E+02  0.10453827045E+03  0.75528970297E+02  0.14496003817E+03  0.00000000000E+00 0.  1.
         22    1    3    3    0    0 -0.25294347726E+02 -0.21483668763E+02 -0.20749013985E+02  0.39139157269E+02  0.00000000000E+00 0.  1.
</event>
<event>
 7    1  0.7118985E-006  0.1764469E+03  0.7818608E-02  0.1277356E+00
          2   -1    0    0  502    0  0.00000000000E+00  0.00000000000E+00  0.23257452859E+03  0.23257452859E+03  0.00000000000E+00 0. -1.
          1   -1    0    0  501    0 -0.00000000000E+00 -0.00000000000E+00 -0.19036270308E+04  0.19036270308E+04  0.00000000000E+00 0. -1.
         25    2    1    2    0    0 -0.13623381858E+02 -0.13042080673E+03 -0.14142677076E+03  0.22982547524E+03  0.12499213664E+03 0.  0.
          2    1    1    2  501    0  0.92190278445E+01 -0.57551304995E+02 -0.16704474880E+04  0.16714640150E+04  0.00000000000E+00 0. -1.
          1    1    1    2  502    0  0.44043540131E+01  0.18797211173E+03  0.14082175656E+03  0.23491206917E+03  0.00000000000E+00 0. -1.
         22    1    3    3    0    0  0.50058265860E+01 -0.20500865991E+02  0.22968980653E+02  0.31191631545E+02  0.00000000000E+00 0. -1.
         22    1    3    3    0    0 -0.18629208444E+02 -0.10991994074E+03 -0.16439575141E+03  0.19863384370E+03  0.00000000000E+00 0. -1.
</event>
<event>
 7    1  0.7118985E-006  0.1016641E+03  0.7818608E-02  0.1397918E+00
          2   -1    0    0  502    0  0.00000000000E+00  0.00000000000E+00  0.15617284284E+03  0.15617284284E+03  0.00000000000E+00 0. -1.
          1   -1    0    0  501    0 -0.00000000000E+00 -0.00000000000E+00 -0.88947662905E+03  0.88947662905E+03  0.00000000000E+00 0. -1.
         25    2    1    2    0    0 -0.91513654815E+02 -0.42070839469E+01 -0.57115367260E+03  0.59180551678E+03  0.12499921358E+03 0.  0.
          2    1    1    2  501    0  0.11101464712E+03 -0.25321205587E+02 -0.29507863175E+03  0.31628596909E+03  0.00000000000E+00 0. -1.
          1    1    1    2  502    0 -0.19500992308E+02  0.29528289534E+02  0.13292851813E+03  0.13755798602E+03  0.00000000000E+00 0. -1.
         22    1    3    3    0    0 -0.48050065423E+01 -0.54003933840E+02 -0.17355257247E+03  0.18182411383E+03  0.00000000000E+00 0.  1.
         22    1    3    3    0    0 -0.86708648273E+02  0.49796849893E+02 -0.39760110013E+03  0.40998140296E+03  0.00000000000E+00 0.  1.
</event>
<event>
 7    1  0.7118985E-006  0.8211289E+02  0.7818608E-02  0.1376141E+00
          2   -1    0    0  502    0  0.00000000000E+00  0.00000000000E+00  0.10215946352E+04  0.10215946352E+04  0.00000000000E+00 0. -1.
          1   -1    0    0  501    0 -0.00000000000E+00 -0.00000000000E+00 -0.10060813347E+04  0.10060813347E+04  0.00000000000E+00 0. -1.
         25    2    1    2    0    0  0.48578994967E+02  0.11559788701E+03  0.47941954057E+02  0.18343039325E+03  0.12500195188E+03 0.  0.
          2    1    1    2  501    0 -0.38648041466E+02 -0.35133929273E+02 -0.93579346706E+03  0.93724995444E+03  0.00000000000E+00 0. -1.
          1    1    1    2  502    0 -0.99309535005E+01 -0.80463957742E+02  0.90336481350E+03  0.90699562216E+03  0.00000000000E+00 0. -1.
         22    1    3    3    0    0  0.73441206583E+02  0.59332870236E+02  0.70584677226E+02  0.11788213170E+03  0.00000000000E+00 0.  1.
         22    1    3    3    0    0 -0.24862211616E+02  0.56265016779E+02 -0.22642723169E+02  0.65548261549E+02  0.00000000000E+00 0.  1.
</event>
<event>
 7    1  0.7118985E-006  0.1012767E+03  0.7818608E-02  0.1318507E+00
          2   -1    0    0  502    0  0.00000000000E+00  0.00000000000E+00  0.17809857266E+04  0.17809857266E+04  0.00000000000E+00 0. -1.
          1   -1    0    0  501    0 -0.00000000000E+00 -0.00000000000E+00 -0.20882293945E+03  0.20882293945E+03  0.00000000000E+00 0. -1.
         25    2    1    2    0    0  0.38376869096E+02 -0.14530042078E+03  0.16644660155E+03  0.25673824038E+03  0.12500022620E+03 0.  0.
          2    1    1    2  501    0 -0.51721931106E+02  0.46269525002E+02 -0.15465041833E+03  0.16950745998E+03  0.00000000000E+00 0. -1.
          1    1    1    2  502    0  0.13345062011E+02  0.99030895774E+02  0.15603666039E+04  0.15635629657E+04  0.00000000000E+00 0. -1.
         22    1    3    3    0    0  0.22633563991E+02 -0.95083387836E+02  0.18190287663E+02  0.99418385757E+02  0.00000000000E+00 0. -1.
         22    1    3    3    0    0  0.15743305104E+02 -0.50217032941E+02  0.14825631388E+03  0.15731985463E+03  0.00000000000E+00 0. -1.
</event>
<event>
 7    1  0.7118985E-006  0.4774821E+02  0.7818608E-02  0.1527974E+00
          2   -1    0    0  502    0  0.00000000000E+00  0.00000000000E+00  0.18002249505E+03  0.18002249505E+03  0.00000000000E+00 0. -1.
          1   -1    0    0  501    0 -0.00000000000E+00 -0.00000000000E+00 -0.54259377401E+03  0.54259377401E+03  0.00000000000E+00 0. -1.
         25    2    1    2    0    0 -0.12769141040E+02  0.69378429690E+02  0.72170493171E+02  0.16064602416E+03  0.12498858958E+03 0.  0.
          2    1    1    2  501    0  0.14736463882E+02 -0.25383397892E+02 -0.49024228192E+03  0.49112012303E+03  0.00000000000E+00 0. -1.
          1    1    1    2  502    0 -0.19673228417E+01 -0.43995031798E+02  0.55500509797E+02  0.70850121876E+02  0.00000000000E+00 0. -1.
         22    1    3    3    0    0 -0.22246874471E+02  0.97595007408E+02  0.22275869162E+02  0.10254717569E+03  0.00000000000E+00 0.  1.
         22    1    3    3    0    0  0.94777334310E+01 -0.28216577718E+02  0.49894624008E+02  0.58098848474E+02  0.00000000000E+00 0.  1.
</event>
<event>
 7    1  0.7118985E-006  0.9461278E+02  0.7818608E-02  0.1314400E+00
          2   -1    0    0  502    0  0.00000000000E+00  0.00000000000E+00  0.14578636910E+04  0.14578636910E+04  0.00000000000E+00 0. -1.
          1   -1    0    0  501    0 -0.00000000000E+00 -0.00000000000E+00 -0.16477928444E+03  0.16477928444E+03  0.00000000000E+00 0. -1.
         25    2    1    2    0    0  0.99015259867E+02  0.13699136376E+03  0.45818845818E+03  0.50411478503E+03  0.12499759137E+03 0.  0.
          2    1    1    2  501    0 -0.49752104247E+02 -0.77712184253E+02 -0.12509653290E+03  0.15544644738E+03  0.00000000000E+00 0. -1.
          1    1    1    2  502    0 -0.49263155620E+02 -0.59279179507E+02  0.95999248125E+03  0.96308174299E+03  0.00000000000E+00 0. -1.
         22    1    3    3    0    0  0.44503324224E+02  0.77388523966E+02  0.38467561565E+03  0.39489854240E+03  0.00000000000E+00 0. -1.
         22    1    3    3    0    0  0.54511935643E+02  0.59602839794E+02  0.73512842522E+02  0.10921624263E+03  0.00000000000E+00 0. -1.
</event>
<event>
 7    1  0.7118985E-006  0.1691983E+03  0.7818608E-02  0.1277038E+00
          2   -1    0    0  502    0  0.00000000000E+00  0.00000000000E+00  0.48919753853E+03  0.48919753853E+03  0.00000000000E+00 0. -1.
          1   -1    0    0  501    0 -0.00000000000E+00 -0.00000000000E+00 -0.63812667460E+03  0.63812667460E+03  0.00000000000E+00 0. -1.
         25    2    1    2    0    0  0.57767986391E+02 -0.11260265888E+03  0.17162493496E+02  0.17870874319E+03  0.12500305865E+03 0.  0.
          2    1    1    2  501    0  0.52911646284E+02 -0.30287587894E+02 -0.53465507102E+03  0.53811989859E+03  0.00000000000E+00 0. -1.
          1    1    1    2  502    0 -0.11067963268E+03  0.14289024677E+03  0.36856344146E+03  0.41049557135E+03  0.00000000000E+00 0. -1.
         22    1    3    3    0    0  0.77352328436E+02 -0.86130273402E+02 -0.31478563622E+02  0.11996960731E+03  0.00000000000E+00 0. -1.
         22    1    3    3    0    0 -0.19584342044E+02 -0.26472385477E+02  0.48641057118E+02  0.58739135878E+02  0.00000000000E+00 0. -1.
</event>
<event>
 7    1  0.7118985E-006  0.9606123E+02  0.7818608E-02  0.1436261E+00
          2   -1    0    0  502    0  0.00000000000E+00  0.00000000000E+00  0.18297696358E+04  0.18297696358E+04  0.00000000000E+00 0. -1.
          1   -1    0    0  501    0 -0.00000000000E+00 -0.00000000000E+00 -0.32129264132E+03  0.32129264132E+03  0.00000000000E+00 0. -1.
         25    2    1    2    0    0 -0.25904684894E+02  0.10345841939E+03  0.56233708269E+02  0.17366995758E+03  0.12499730789E+03 0.  0.
          2    1    1    2  501    0  0.26802622292E+02 -0.75666346455E+01 -0.26049098140E+03  0.26197554449E+03  0.00000000000E+00 0. -1.
          1    1    1    2  502    0 -0.89793739837E+00 -0.95891784743E+02  0.17127342676E+04  0.17154167751E+04  0.00000000000E+00 0. -1.
         22    1    3    3    0    0  0.12164339645E+01 -0.12393705045E+02 -0.26139448962E+02  0.28954350768E+02  0.00000000000E+00 0.  1.
         22    1    3    3    0    0 -0.27121118859E+02  0.11585212443E+03  0.82373157230E+02  0.14471560682E+03  0.00000000000E+00 0.  1.
</event>
<event>
 7    1  0.7118985E-006  0.1188366E+03  0.7818608E-02  0.1354409E+00
          2   -1    0    0  502    0  0.00000000000E+00  0.00000000000E+00  0.79655094409E+03  0.79655094409E+03  0.00000000000E+00 0. -1.
          1   -1    0    0  501    0 -0.00000000000E+00 -0.00000000000E+00 -0.84095026443E+03  0.84095026443E+03  0.00000000000E+00 0. -1.
         25    2    1    2    0    0 -0.11958949863E+03 -0.48560081413E+02  0.66121411246E+02  0.19146164187E+03  0.12500315834E+03 0.  0.
          2    1    1    2  501    0  0.11860956001E+03  0.53121540566E+01 -0.77304257232E+03  0.78210693983E+03  0.00000000000E+00 0. -1.
          1    1    1    2  502    0  0.97993861574E+00  0.43247927356E+02  0.66252184074E+03  0.66393262682E+03  0.00000000000E+00 0. -1.
         22    1    3    3    0    0 -0.70396543760E+01  0.13582278332E+02 -0.28149015338E+02  0.32037510561E+02  0.00000000000E+00 0. -1.
         22    1    3    3    0    0 -0.11254984425E+03 -0.62142359744E+02  0.94270426585E+02  0.15942413131E+03  0.00000000000E+00 0. -1.
</event>
<event>
 7    1  0.7118985E-006  0.3990907E+02  0.7818608E-02  0.1538015E+00
          2   -1    0    0  502    0  0.00000000000E+00  0.00000000000E+00  0.51040057670E+03  0.51040057670E+03  0.00000000000E+00 0. -1.
          1   -1    0    0  501    0 -0.00000000000E+00 -0.00000000000E+00 -0.80148483870E+03  0.80148483870E+03  0.00000000000E+00 0. -1.
         25    2    1    2    0    0 -0.20901578263E+02 -0.29659242725E+02 -0.57660806134E+02  0.14236138040E+03  0.12500178963E+03 0.  0.
          2    1    1    2  501    0  0.40030035834E+02  0.29230053075E+01 -0.70032118480E+03  0.70147039111E+03  0.00000000000E+00 0. -1.
          1    1    1    2  502    0 -0.19128457571E+02  0.26736237417E+02  0.46689772893E+03  0.46805364389E+03  0.00000000000E+00 0. -1.
         22    1    3    3    0    0 -0.39008594849E+02 -0.67056681967E+02 -0.85737258179E+01  0.78049842043E+02  0.00000000000E+00 0.  1.
         22    1    3    3    0    0  0.18107016586E+02  0.37397439242E+02 -0.49087080317E+02  0.64311538354E+02  0.00000000000E+00 0.  1.
</event>
<event>
 7    1  0.7118985E-006  0.1423905E+03  0.7818608E-02  0.1314438E+00
          2   -1    0    0  502    0  0.00000000000E+00  0.00000000000E+00  0.24388799303E+04  0.24388799303E+04  0.00000000000E+00 0. -1.
          1   -1    0    0  501    0 -0.00000000000E+00 -0.00000000000E+00 -0.12304537879E+03  0.12304537879E+03  0.00000000000E+00 0. -1.
         25    2    1    2    0    0  0.14306728452E+03  0.31136545532E+02  0.44861843972E+02  0.19767553272E+03  0.12500119529E+03 0.  0.
          2    1    1    2  501    0 -0.19500525889E+01 -0.51160117545E+02 -0.29685343573E+02  0.59180908707E+02  0.00000000000E+00 0. -1.
          1    1    1    2  502    0 -0.14111723193E+03  0.20023572013E+02  0.23006580511E+04  0.23050688677E+04  0.00000000000E+00 0. -1.
         22    1    3    3    0    0  0.71426339208E+02  0.75436746623E+02  0.37690746095E+01  0.10395494503E+03  0.00000000000E+00 0.  1.
         22    1    3    3    0    0  0.71640945311E+02 -0.44300201091E+02  0.41092769363E+02  0.93720587683E+02  0.00000000000E+00 0.  1.
</event>
<event>
 7    1  0.7118985E-006  0.2321917E+03  0.7818608E-02  0.1291829E+00
          2   -1    0    0  502    0  0.00000000000E+00  0.00000000000E+00  0.44437248534E+04  0.44437248534E+04  0.00000000000E+00 0. -1.
          1   -1    0    0  501    0 -0.00000000000E+00 -0.00000000000E+00 -0.10390029027E+04  0.10390029027E+04  0.00000000000E+00 0. -1.
         25    2    1    2    0    0  0.23184537178E+03 -0.11797026512E+03  0.24403776407E+04  0.24573829738E+04  0.12497516018E+03 0.  0.
          2    1    1    2  501    0 -0.19426429978E+03  0.12692080285E+03 -0.10172461385E+04  0.10433777910E+04  0.00000000000E+00 0. -1.
          1    1    1    2  502    0 -0.37581072006E+02 -0.89505377299E+01  0.19815904485E+04  0.19819669913E+04  0.00000000000E+00 0. -1.
         22    1    3    3    0    0  0.18905041947E+03 -0.40117490991E+02  0.18934219488E+04  0.19032593492E+04  0.00000000000E+00 0.  1.
         22    1    3    3    0    0  0.42794952317E+02 -0.77852774129E+02  0.54695569199E+03  0.55412362464E+03  0.00000000000E+00 0.  1.
</event>
<event>
 7    1  0.7118985E-006  0.7079817E+02  0.7818608E-02  0.1422474E+00
          2   -1    0    0  502    0  0.00000000000E+00  0.00000000000E+00  0.11198200480E+04  0.11198200480E+04  0.00000000000E+00 0. -1.
          1   -1    0    0  501    0 -0.00000000000E+00 -0.00000000000E+00 -0.10757115940E+03  0.10757115940E+03  0.00000000000E+00 0. -1.
         25    2    1    2    0    0  0.52903957563E+02 -0.65198036045E+02  0.15495521859E+03  0.21606844159E+03  0.12499935622E+03 0.  0.
          2    1    1    2  501    0 -0.11185234567E+02  0.69646106185E+02 -0.60282266333E+02  0.92788152333E+02  0.00000000000E+00 0. -1.
          1    1    1    2  502    0 -0.41718722995E+02 -0.44480701403E+01  0.91757593637E+03  0.91853461350E+03  0.00000000000E+00 0. -1.
         22    1    3    3    0    0  0.31393210724E+02 -0.87651485448E+02  0.48127431108E+02  0.10480728126E+03  0.00000000000E+00 0. -1.
         22    1    3    3    0    0  0.21510746839E+02  0.22453449403E+02  0.10682778748E+03  0.11126116033E+03  0.00000000000E+00 0. -1.
</event>
<event>
 7    1  0.7118985E-006  0.5080998E+02  0.7818608E-02  0.1460024E+00
          2   -1    0    0  502    0  0.00000000000E+00  0.00000000000E+00  0.18624412719E+02  0.18624412719E+02  0.00000000000E+00 0. -1.
          1   -1    0    0  501    0 -0.00000000000E+00 -0.00000000000E+00 -0.22890371423E+04  0.22890371423E+04  0.00000000000E+00 0. -1.
         25    2    1    2    0    0  0.51287166116E+01 -0.95515256359E+01 -0.12072425297E+04  0.12137448899E+04  0.12499838725E+03 0.  0.
          2    1    1    2  501    0 -0.12704015177E+02 -0.42310506835E+02 -0.10319814315E+04  0.10329265443E+04  0.00000000000E+00 0. -1.
          1    1    1    2  502    0  0.75752985656E+01  0.51862032471E+02 -0.31188768302E+02  0.60990120745E+02  0.00000000000E+00 0. -1.
         22    1    3    3    0    0 -0.51574436933E+02 -0.35623079312E+02 -0.55792674264E+03  0.56143670746E+03  0.00000000000E+00 0. -1.
         22    1    3    3    0    0  0.56703153545E+02  0.26071553676E+02 -0.64931578709E+03  0.65230818246E+03  0.00000000000E+00 0. -1.
</event>
<event>
 7    1  0.7118985E-006  0.1041967E+03  0.7818608E-02  0.1356079E+00
          2   -1    0    0  502    0  0.00000000000E+00  0.00000000000E+00  0.93858732368E+03  0.93858732368E+03  0.00000000000E+00 0. -1.
          1   -1    0    0  501    0 -0.00000000000E+00 -0.00000000000E+00 -0.86180582947E+03  0.86180582947E+03  0.00000000000E+00 0. -1.
         25    2    1    2    0    0 -0.14735520716E+03 -0.16818771140E+02 -0.43608106820E+02  0.19881709204E+03  0.12502056218E+03 0.  0.
          2    1    1    2  501    0  0.44296866147E+02  0.20101906172E+02 -0.73670110785E+03  0.73830537130E+03  0.00000000000E+00 0. -1.
          1    1    1    2  502    0  0.10305834101E+03 -0.32831350320E+01  0.85709070888E+03  0.86327068981E+03  0.00000000000E+00 0. -1.
         22    1    3    3    0    0 -0.92868742771E+02  0.40155522585E+02  0.12652117292E+02  0.10196639373E+03  0.00000000000E+00 0.  1.
         22    1    3    3    0    0 -0.54486464390E+02 -0.56974293724E+02 -0.56260224112E+02  0.96850698316E+02  0.00000000000E+00 0.  1.
</event>
<event>
 7    1  0.7118985E-006  0.2707605E+02  0.7818608E-02  0.1647748E+00
          2   -1    0    0  502    0  0.00000000000E+00  0.00000000000E+00  0.11531412807E+04  0.11531412807E+04  0.00000000000E+00 0. -1.
          1   -1    0    0  501    0 -0.00000000000E+00 -0.00000000000E+00 -0.42194007736E+03  0.42194007736E+03  0.00000000000E+00 0. -1.
         25    2    1    2    0    0  0.10689450150E+02  0.20664908299E+02  0.48088119501E+03  0.49740636601E+03  0.12500026583E+03 0.  0.
          2    1    1    2  501    0 -0.27021930678E+02 -0.19136642693E+01 -0.41300077975E+03  0.41388825899E+03  0.00000000000E+00 0. -1.
          1    1    1    2  502    0  0.16332480528E+02 -0.18751244030E+02  0.66332078810E+03  0.66378673307E+03  0.00000000000E+00 0. -1.
         22    1    3    3    0    0 -0.48245288746E+02  0.14699317195E+02  0.35161970218E+03  0.35521837336E+03  0.00000000000E+00 0.  1.
         22    1    3    3    0    0  0.58934738896E+02  0.59655911043E+01  0.12926149283E+03  0.14218799265E+03  0.00000000000E+00 0.  1.
</event>
<event>
 7    1  0.7118985E-006  0.7220982E+02  0.7818608E-02  0.1444144E+00
          2   -1    0    0  502    0  0.00000000000E+00  0.00000000000E+00  0.42150999528E+02  0.42150999528E+02  0.00000000000E+00 0. -1.
          1   -1    0    0  501    0 -0.00000000000E+00 -0.00000000000E+00 -0.13524350805E+04  0.13524350805E+04  0.00000000000E+00 0. -1.
         25    2    1    2    0    0  0.36381239688E+02 -0.77397363728E+02 -0.40847510833E+03  0.43564942232E+03  0.12499823410E+03 0.  0.
          2    1    1    2  501    0 -0.53787069097E+02  0.47112583954E+02 -0.91775674301E+03  0.92053793170E+03  0.00000000000E+00 0. -1.
          1    1    1    2  502    0  0.17405829409E+02  0.30284779774E+02  0.15947770327E+02  0.38398726043E+02  0.00000000000E+00 0. -1.
         22    1    3    3    0    0 -0.12885874910E+02  0.30349031466E+02 -0.90717812889E+02  0.96523733136E+02  0.00000000000E+00 0.  1.
         22    1    3    3    0    0  0.49267114598E+02 -0.10774639519E+03 -0.31775729544E+03  0.33912568918E+03  0.00000000000E+00 0.  1.
</event>
<event>
 7    1  0.7118985E-006  0.1554091E+03  0.7818608E-02  0.1265308E+00
          2   -1    0    0  502    0  0.00000000000E+00  0.00000000000E+00  0.16070858735E+04  0.16070858735E+04  0.00000000000E+00 0. -1.
          1   -1    0    0  501    0 -0.00000000000E+00 -0.00000000000E+00 -0.17330201774E+03  0.17330201774E+03  0.00000000000E+00 0. -1.
         25    2    1    2    0    0  0.39597901405E+01 -0.19730156052E+03  0.11976704187E+04  0.12202381466E+04  0.12499246756E+03 0.  0.
          2    1    1    2  501    0 -0.55799739004E+02  0.14402835893E+03 -0.12048023920E+03  0.19589095713E+03  0.00000000000E+00 0. -1.
          1    1    1    2  502    0  0.51839948863E+02  0.53273201588E+02  0.35659367624E+03  0.36425878746E+03  0.00000000000E+00 0. -1.
         22    1    3    3    0    0  0.45823847077E+01  0.14761910828E+02  0.33281548803E+02  0.36695691186E+02  0.00000000000E+00 0.  1.
         22    1    3    3    0    0 -0.62259456718E+00 -0.21206347135E+03  0.11643888699E+04  0.11835424555E+04  0.00000000000E+00 0.  1.
</event>
<event>
 7    1  0.7118985E-006  0.1247276E+03  0.7818608E-02  0.1332387E+00
          2   -1    0    0  502    0  0.00000000000E+00  0.00000000000E+00  0.25949389748E+03  0.25949389748E+03  0.00000000000E+00 0. -1.
          1   -1    0    0  501    0 -0.00000000000E+00 -0.00000000000E+00 -0.46333900201E+03  0.46333900201E+03  0.00000000000E+00 0. -1.
         25    2    1    2    0    0  0.21624711434E+02 -0.14255650189E+03 -0.13426835358E+02  0.19129809794E+03  0.12499879197E+03 0.  0.
          2    1    1    2  501    0 -0.44335592343E+02  0.22745771370E+02 -0.33711185640E+03  0.34077473291E+03  0.00000000000E+00 0. -1.
          1    1    1    2  502    0  0.22710880909E+02  0.11981073052E+03  0.14669358722E+03  0.19076006865E+03  0.00000000000E+00 0. -1.
         22    1    3    3    0    0 -0.25610380092E+02 -0.79383519281E+02 -0.57148573930E+02  0.10111179063E+03  0.00000000000E+00 0.  1.
         22    1    3    3    0    0  0.47235091526E+02 -0.63172982606E+02  0.43721738572E+02  0.90186307312E+02  0.00000000000E+00 0.  1.
</event>
<event>
 7    1  0.7118985E-006  0.7221862E+03  0.7818608E-02  0.1048409E+00
          2   -1    0    0  502    0  0.00000000000E+00  0.00000000000E+00  0.38638631525E+04  0.38638631525E+04  0.00000000000E+00 0. -1.
          1   -1    0    0  501    0 -0.00000000000E+00 -0.00000000000E+00 -0.12947253792E+04  0.12947253792E+04  0.00000000000E+00 0. -1.
         25    2    1    2    0    0 -0.41170286162E+03 -0.47451804662E+03 -0.33425185079E+03  0.72250564676E+03  0.12499394785E+03 0.  0.
          2    1    1    2  501    0  0.51452059858E+03  0.65450597793E+03 -0.53619375201E+03  0.99025918890E+03  0.00000000000E+00 0. -1.
          1    1    1    2  502    0 -0.10281773696E+03 -0.17998793130E+03  0.34395833762E+04  0.34458236960E+04  0.00000000000E+00 0. -1.
         22    1    3    3    0    0 -0.13246792250E+02 -0.27704705625E+02  0.95215114134E+01  0.32151009288E+02  0.00000000000E+00 0.  1.
         22    1    3    3    0    0 -0.39845606937E+03 -0.44681334100E+03 -0.34377336220E+03  0.69035463747E+03  0.00000000000E+00 0.  1.
</event>
<event>
 7    1  0.7118985E-006  0.1036187E+03  0.7818608E-02  0.1382553E+00
          2   -1    0    0  502    0  0.00000000000E+00  0.00000000000E+00  0.27558986961E+04  0.27558986961E+04  0.00000000000E+00 0. -1.
          1   -1    0    0  501    0 -0.00000000000E+00 -0.00000000000E+00 -0.67698977838E+03  0.67698977838E+03  0.00000000000E+00 0. -1.
         25    2    1    2    0    0 -0.77744403718E+02 -0.36814987776E+02 -0.89935178345E+02  0.17638557545E+03  0.12499599708E+03 0.  0.
          2    1    1    2  501    0 -0.25799634325E+02  0.29618653303E+02 -0.54212572055E+03  0.54354685413E+03  0.00000000000E+00 0. -1.
          1    1    1    2  502    0  0.10354403804E+03  0.71963344738E+01  0.27109698166E+04  0.27129560449E+04  0.00000000000E+00 0. -1.
         22    1    3    3    0    0  0.51517869980E+01 -0.46348015683E+02 -0.79669159121E+02  0.92313890515E+02  0.00000000000E+00 0. -1.
         22    1    3    3    0    0 -0.82896190716E+02  0.95330279071E+01 -0.10266019225E+02  0.84071684930E+02  0.00000000000E+00 0. -1.
</event>
<event>
 7    1  0.7118985E-006  0.1541045E+03  0.7818608E-02  0.1287963E+00
          2   -1    0    0  502    0  0.00000000000E+00  0.00000000000E+00  0.15139624375E+03  0.15139624375E+03  0.00000000000E+00 0. -1.
          1   -1    0    0  501    0 -0.00000000000E+00 -0.00000000000E+00 -0.87653234100E+03  0.87653234100E+03  0.00000000000E+00 0. -1.
         25    2    1    2    0    0  0.71405872448E+02 -0.74934113508E+02 -0.89689657190E+02  0.18542678448E+03  0.12499975124E+03 0.  0.
          2    1    1    2  501    0 -0.11476503911E+03  0.11691746600E+03 -0.72011930117E+03  0.73852049123E+03  0.00000000000E+00 0. -1.
          1    1    1    2  502    0  0.43359166660E+02 -0.41983352491E+02  0.84672861113E+02  0.10398130904E+03  0.00000000000E+00 0. -1.
         22    1    3    3    0    0  0.78239815164E+02 -0.68552792341E+02 -0.92375465346E+01  0.10443316657E+03  0.00000000000E+00 0. -1.
         22    1    3    3    0    0 -0.68339427162E+01 -0.63813211668E+01 -0.80452110655E+02  0.80993617907E+02  0.00000000000E+00 0. -1.
</event>
<event>
 7    1  0.7118985E-006  0.5158060E+02  0.7818608E-02  0.1466029E+00
          2   -1    0    0  502    0  0.00000000000E+00  0.00000000000E+00  0.10110716278E+04  0.10110716278E+04  0.00000000000E+00 0. -1.
          1   -1    0    0  501    0 -0.00000000000E+00 -0.00000000000E+00 -0.98427041132E+03  0.98427041132E+03  0.00000000000E+00 0. -1.
         25    2    1    2    0    0 -0.37629769526E+02  0.15491732617E+02  0.24606739361E+03  0.27898039503E+03  0.12499962112E+03 0.  0.
          2    1    1    2  501    0  0.44895671341E+02  0.25536706344E+02 -0.96654401492E+03  0.96792307414E+03  0.00000000000E+00 0. -1.
          1    1    1    2  502    0 -0.72659018147E+01 -0.41028438961E+02  0.74727783781E+03  0.74843856996E+03  0.00000000000E+00 0. -1.
         22    1    3    3    0    0  0.39845491094E+01  0.45590918018E+02  0.25248388760E+02  0.52267481022E+02  0.00000000000E+00 0.  1.
         22    1    3    3    0    0 -0.41614318636E+02 -0.30099185401E+02  0.22081900485E+03  0.22671291401E+03  0.00000000000E+00 0.  1.
</event>
<event>
 7    1  0.7118985E-006  0.1444704E+03  0.7818608E-02  0.1244888E+00
          2   -1    0    0  502    0  0.00000000000E+00  0.00000000000E+00  0.92349327564E+02  0.92349327564E+02  0.00000000000E+00 0. -1.
          1   -1    0    0  501    0 -0.00000000000E+00 -0.00000000000E+00 -0.12668196129E+04  0.12668196129E+04  0.00000000000E+00 0. -1.
         25    2    1    2    0    0  0.42883373449E+02  0.69801310003E+02 -0.29308861885E+03  0.32899455510E+03  0.12500108875E+03 0.  0.
          2    1    1    2  501    0  0.95466180178E+02  0.21646593498E+02 -0.85697396459E+03  0.86254666109E+03  0.00000000000E+00 0. -1.
          1    1    1    2  502    0 -0.13834955363E+03 -0.91447903501E+02 -0.24407701926E+02  0.16762772431E+03  0.00000000000E+00 0. -1.
         22    1    3    3    0    0 -0.39611855706E+02  0.50856094481E+02 -0.13792824613E+03  0.15224862081E+03  0.00000000000E+00 0. -1.
         22    1    3    3    0    0  0.82495229156E+02  0.18945215522E+02 -0.15516037272E+03  0.17674593429E+03  0.00000000000E+00 0. -1.
</event>
<event>
 7    1  0.7118985E-006  0.7002821E+02  0.7818608E-02  0.1409357E+00
          2   -1    0    0  502    0  0.00000000000E+00  0.00000000000E+00  0.31150376671E+04  0.31150376671E+04  0.00000000000E+00 0. -1.
          1   -1    0    0  501    0 -0.00000000000E+00 -0.00000000000E+00 -0.83481145648E+03  0.83481145648E+03  0.00000000000E+00 0. -1.
         25    2    1    2    0    0  0.40166471492E+02  0.37277362306E+01  0.11536227180E+03  0.17481580014E+03  0.12499947509E+03 0.  0.
          2    1    1    2  501    0  0.18321967063E+02 -0.43223799262E+02 -0.80398057202E+03  0.80535008008E+03  0.00000000000E+00 0. -1.
          1    1    1    2  502    0 -0.58488438555E+02  0.39496063031E+02  0.29688445108E+04  0.29696832433E+04  0.00000000000E+00 0. -1.
         22    1    3    3    0    0 -0.37208740815E+02  0.17448401933E+02  0.77199622701E+02  0.87456954373E+02  0.00000000000E+00 0. -1.
         22    1    3    3    0    0  0.77375212307E+02 -0.13720665703E+02  0.38162649100E+02  0.87358845764E+02  0.00000000000E+00 0. -1.
</event>
<event>
 7    1  0.7118985E-006  0.4475676E+02  0.7818608E-02  0.1504278E+00
          2   -1    0    0  502    0  0.00000000000E+00  0.00000000000E+00  0.12721407406E+04  0.12721407406E+04  0.00000000000E+00 0. -1.
          1   -1    0    0  501    0 -0.00000000000E+00 -0.00000000000E+00 -0.94841404012E+03  0.94841404012E+03  0.00000000000E+00 0. -1.
         25    2    1    2    0    0 -0.53383407316E+02  0.55449215657E+02  0.77158865746E+01  0.14700290419E+03  0.12500366091E+03 0.  0.
          2    1    1    2  501    0  0.14426647465E+02 -0.33766961029E+02 -0.87797070688E+03  0.87873824200E+03  0.00000000000E+00 0. -1.
          1    1    1    2  502    0  0.38956759851E+02 -0.21682254628E+02  0.11939815208E+04  0.11948136346E+04  0.00000000000E+00 0. -1.
         22    1    3    3    0    0 -0.31954281696E+01  0.35659836450E+02  0.61284528072E+02  0.70976250097E+02  0.00000000000E+00 0.  1.
         22    1    3    3    0    0 -0.50187979147E+02  0.19789379207E+02 -0.53568641498E+02  0.76026654090E+02  0.00000000000E+00 0.  1.
</event>
<event>
 7    1  0.7118985E-006  0.2730793E+02  0.7818608E-02  0.1683153E+00
          2   -1    0    0  502    0  0.00000000000E+00  0.00000000000E+00  0.35304911544E+04  0.35304911544E+04  0.00000000000E+00 0. -1.
          1   -1    0    0  501    0 -0.00000000000E+00 -0.00000000000E+00 -0.78512127827E+02  0.78512127827E+02  0.00000000000E+00 0. -1.
         25    2    1    2    0    0 -0.29417748060E+02 -0.34093765748E+02  0.22320371431E+04  0.22359888553E+04  0.12501425702E+03 0.  0.
          2    1    1    2  501    0  0.22848707987E+02  0.14923438662E+02 -0.74021668409E+02  0.78892204128E+02  0.00000000000E+00 0. -1.
          1    1    1    2  502    0  0.65690400733E+01  0.19170327087E+02  0.12939635519E+04  0.12941222228E+04  0.00000000000E+00 0. -1.
         22    1    3    3    0    0 -0.22755040129E+02  0.85005095583E+01  0.19895986185E+04  0.19897468968E+04  0.00000000000E+00 0.  1.
         22    1    3    3    0    0 -0.66627079313E+01 -0.42594275307E+02  0.24243852456E+03  0.24624195856E+03  0.00000000000E+00 0.  1.
</event>
<event>
 7    1  0.7118985E-006  0.6250388E+02  0.7818608E-02  0.1486399E+00
          2   -1    0    0  502    0  0.00000000000E+00  0.00000000000E+00  0.94797621722E+03  0.94797621722E+03  0.00000000000E+00 0. -1.
          1   -1    0    0  501    0 -0.00000000000E+00 -0.00000000000E+00 -0.89256975199E+02  0.89256975199E+02  0.00000000000E+00 0. -1.
         25    2    1    2    0    0 -0.29892042353E+02  0.36575008899E+02  0.22175860823E+03  0.25890130449E+03  0.12498695800E+03 0.  0.
          2    1    1    2  501    0  0.14483495525E+02 -0.62028661607E+02 -0.55951348710E+02  0.84781365440E+02  0.00000000000E+00 0. -1.
          1    1    1    2  502    0  0.15408546828E+02  0.25453652708E+02  0.69291198250E+03  0.69355052249E+03  0.00000000000E+00 0. -1.
         22    1    3    3    0    0  0.46680311978E+02  0.15383536753E+02  0.52461722668E+02  0.71888365364E+02  0.00000000000E+00 0. -1.
         22    1    3    3    0    0 -0.76572354331E+02  0.21191472145E+02  0.16929688556E+03  0.18701293913E+03  0.00000000000E+00 0. -1.
</event>
<event>
 7    1  0.7118985E-006  0.6870211E+02  0.7818608E-02  0.1450788E+00
          2   -1    0    0  502    0  0.00000000000E+00  0.00000000000E+00  0.15169692277E+04  0.15169692277E+04  0.00000000000E+00 0. -1.
          1   -1    0    0  501    0 -0.00000000000E+00 -0.00000000000E+00 -0.13710992764E+03  0.13710992764E+03  0.00000000000E+00 0. -1.
         25    2    1    2    0    0  0.78010584160E+02 -0.27378827858E+02  0.20253901546E+03  0.25195664605E+03  0.12499938900E+03 0.  0.
          2    1    1    2  501    0 -0.49330986716E+02  0.47360245584E+02 -0.10173875964E+03  0.12258594669E+03  0.00000000000E+00 0. -1.
          1    1    1    2  502    0 -0.28679597444E+02 -0.19981417726E+02  0.12790590442E+04  0.12795365626E+04  0.00000000000E+00 0. -1.
         22    1    3    3    0    0  0.68736236356E+02  0.20196975352E+02  0.18825223060E+03  0.20142365881E+03  0.00000000000E+00 0. -1.
         22    1    3    3    0    0  0.92743478035E+01 -0.47575803209E+02  0.14286784861E+02  0.50532987244E+02  0.00000000000E+00 0. -1.
</event>
<event>
 7    1  0.7118985E-006  0.8532395E+02  0.7818608E-02  0.1327058E+00
          2   -1    0    0  502    0  0.00000000000E+00  0.00000000000E+00  0.88813654077E+03  0.88813654077E+03  0.00000000000E+00 0. -1.
          1   -1    0    0  501    0 -0.00000000000E+00 -0.00000000000E+00 -0.45210219049E+03  0.45210219049E+03  0.00000000000E+00 0. -1.
         25    2    1    2    0    0  0.92779354198E+02  0.93865247006E+02 -0.12852976823E+03  0.22263225783E+03  0.12500611082E+03 0.  0.
          2    1    1    2  501    0 -0.75597947394E+02 -0.10612419890E+02 -0.26904939072E+03  0.27966989068E+03  0.00000000000E+00 0. -1.
          1    1    1    2  502    0 -0.17181406804E+02 -0.83252827116E+02  0.83361350922E+03  0.83793658276E+03  0.00000000000E+00 0. -1.
         22    1    3    3    0    0  0.90350209965E+02  0.99186132198E+02 -0.48920634962E+02  0.14280853541E+03  0.00000000000E+00 0. -1.
         22    1    3    3    0    0  0.24291442331E+01 -0.53208851918E+01 -0.79609133265E+02  0.79823722414E+02  0.00000000000E+00 0. -1.
</event>
<event>
 7    1  0.7118985E-006  0.1758947E+03  0.7818608E-02  0.1328445E+00
          2   -1    0    0  502    0  0.00000000000E+00  0.00000000000E+00  0.10690283019E+04  0.10690283019E+04  0.00000000000E+00 0. -1.
          1   -1    0    0  501    0 -0.00000000000E+00 -0.00000000000E+00 -0.69502995332E+03  0.69502995332E+03  0.00000000000E+00 0. -1.
         25    2    1    2    0    0 -0.92087080233E+02  0.16273144278E+03 -0.34344180188E+03  0.41053731301E+03  0.12500824483E+03 0.  0.
          2    1    1    2  501    0 -0.22105870750E+02 -0.29145366880E+02 -0.30949875357E+03  0.31165301281E+03  0.00000000000E+00 0. -1.
          1    1    1    2  502    0  0.11419295098E+03 -0.13358607590E+03  0.10269389040E+04  0.10418679294E+04  0.00000000000E+00 0. -1.
         22    1    3    3    0    0 -0.59873511993E+02  0.20241321957E+02 -0.42944438264E+02  0.76411866426E+02  0.00000000000E+00 0. -1.
         22    1    3    3    0    0 -0.32213568240E+02  0.14249012082E+03 -0.30049736362E+03  0.33412544658E+03  0.00000000000E+00 0. -1.
</event>
<event>
 7    1  0.7118985E-006  0.6758790E+02  0.7818608E-02  0.1425294E+00
          2   -1    0    0  502    0  0.00000000000E+00  0.00000000000E+00  0.42284413863E+03  0.42284413863E+03  0.00000000000E+00 0. -1.
          1   -1    0    0  501    0 -0.00000000000E+00 -0.00000000000E+00 -0.21683110840E+03  0.21683110840E+03  0.00000000000E+00 0. -1.
         25    2    1    2    0    0 -0.19377346067E+02  0.27543968092E+02 -0.16977498704E+02  0.13057064297E+03  0.12500522239E+03 0.  0.
          2    1    1    2  501    0  0.11865472327E+02  0.41341077849E+02 -0.13643847099E+03  0.14305708831E+03  0.00000000000E+00 0. -1.
          1    1    1    2  502    0  0.75118737396E+01 -0.68885045941E+02  0.35942899992E+03  0.36604751575E+03  0.00000000000E+00 0. -1.
         22    1    3    3    0    0 -0.41604691722E+01 -0.49263398042E+02 -0.16970708329E+02  0.52270420235E+02  0.00000000000E+00 0.  1.
         22    1    3    3    0    0 -0.15216876894E+02  0.76807366133E+02 -0.67903754883E-02  0.78300222738E+02  0.00000000000E+00 0.  1.
</event>
<event>
 7    1  0.7118985E-006  0.7110283E+02  0.7818608E-02  0.1437844E+00
          2   -1    0    0  502    0  0.00000000000E+00  0.00000000000E+00  0.17027325952E+04  0.17027325952E+04  0.00000000000E+00 0. -1.
          1   -1    0    0  501    0 -0.00000000000E+00 -0.00000000000E+00 -0.77066500461E+03  0.77066500461E+03  0.00000000000E+00 0. -1.
         25    2    1    2    0    0 -0.40055226243E+02 -0.47173832330E+02 -0.50512533739E+03  0.52402885876E+03  0.12499938693E+03 0.  0.
          2    1    1    2  501    0  0.73722764115E+02  0.31394970595E+02 -0.24960996426E+03  0.26215610690E+03  0.00000000000E+00 0. -1.
          1    1    1    2  502    0 -0.33667537873E+02  0.15778861735E+02  0.16868028922E+04  0.16872126341E+04  0.00000000000E+00 0. -1.
         22    1    3    3    0    0  0.21628069850E+01 -0.12403764069E+02  0.30204853642E+01  0.12948143842E+02  0.00000000000E+00 0. -1.
         22    1    3    3    0    0 -0.42218033228E+02 -0.34770068261E+02 -0.50814582276E+03  0.51108071492E+03  0.00000000000E+00 0. -1.
</event>
<event>
 7    1  0.7118985E-006  0.9200576E+02  0.7818608E-02  0.1299441E+00
          2   -1    0    0  502    0  0.00000000000E+00  0.00000000000E+00  0.11735439152E+04  0.11735439152E+04  0.00000000000E+00 0. -1.
          1   -1    0    0  501    0 -0.00000000000E+00 -0.00000000000E+00 -0.14050200120E+04  0.14050200120E+04  0.00000000000E+00 0. -1.
         25    2    1    2    0    0  0.41146690432E+02 -0.33659429174E+02  0.10241913934E+03  0.17011871254E+03  0.12499875579E+03 0.  0.
          2    1    1    2  501    0 -0.78912226525E+02 -0.48962913663E+02 -0.13676034107E+04  0.13707529301E+04  0.00000000000E+00 0. -1.
          1    1    1    2  502    0  0.37765536093E+02  0.82622342837E+02  0.10337081746E+04  0.10376922846E+04  0.00000000000E+00 0. -1.
         22    1    3    3    0    0  0.64490792708E+02  0.24944126793E+02  0.72881596916E+02  0.10046391877E+03  0.00000000000E+00 0. -1.
         22    1    3    3    0    0 -0.23344102276E+02 -0.58603555967E+02  0.29537542428E+02  0.69654793774E+02  0.00000000000E+00 0. -1.
</event>
<event>
 7    1  0.7118985E-006  0.2239830E+03  0.7818608E-02  0.1229160E+00
          2   -1    0    0  502    0  0.00000000000E+00  0.00000000000E+00  0.62098454002E+03  0.62098454002E+03  0.00000000000E+00 0. -1.
          1   -1    0    0  501    0 -0.00000000000E+00 -0.00000000000E+00 -0.44806648257E+03  0.44806648257E+03  0.00000000000E+00 0. -1.
         25    2    1    2    0    0 -0.60149242633E+02  0.25341083930E+03  0.19501407430E+02  0.28955993096E+03  0.12501865407E+03 0.  0.
          2    1    1    2  501    0 -0.42529608864E+02 -0.60719607535E+02 -0.28243835970E+03  0.29200524892E+03  0.00000000000E+00 0. -1.
          1    1    1    2  502    0  0.10267885150E+03 -0.19269123177E+03  0.43585500972E+03  0.48748584271E+03  0.00000000000E+00 0. -1.
         22    1    3    3    0    0  0.13547414281E+02 -0.14183489501E+01 -0.17005022132E+02  0.21787953670E+02  0.00000000000E+00 0.  1.
         22    1    3    3    0    0 -0.73696656914E+02  0.25482918825E+03  0.36506429562E+02  0.26777197729E+03  0.00000000000E+00 0.  1.
</event>
<event>
 7    1  0.7118985E-006  0.4756064E+02  0.7818608E-02  0.1522852E+00
          2   -1    0    0  502    0  0.00000000000E+00  0.00000000000E+00  0.10617560186E+04  0.10617560186E+04  0.00000000000E+00 0. -1.
          1   -1    0    0  501    0 -0.00000000000E+00 -0.00000000000E+00 -0.10619467811E+03  0.10619467811E+03  0.00000000000E+00 0. -1.
         25    2    1    2    0    0 -0.32955380313E+02 -0.66626969153E+02  0.45967448645E+02  0.15252356977E+03  0.12500089156E+03 0.  0.
          2    1    1    2  501    0  0.13898058551E+02  0.42831925153E+02 -0.43048601035E+02  0.62296965374E+02  0.00000000000E+00 0. -1.
          1    1    1    2  502    0  0.19057321762E+02  0.23795044000E+02  0.95264249284E+03  0.95313016152E+03  0.00000000000E+00 0. -1.
         22    1    3    3    0    0 -0.47726937627E+02  0.22625875543E+02  0.29730718285E+02  0.60611108132E+02  0.00000000000E+00 0. -1.
         22    1    3    3    0    0  0.14771557314E+02 -0.89252844695E+02  0.16236730360E+02  0.91912461639E+02  0.00000000000E+00 0. -1.
</event>
<event>
 7    1  0.7118985E-006  0.4138324E+02  0.7818608E-02  0.1528563E+00
          2   -1    0    0  502    0  0.00000000000E+00  0.00000000000E+00  0.10437227835E+04  0.10437227835E+04  0.00000000000E+00 0. -1.
          1   -1    0    0  501    0 -0.00000000000E+00 -0.00000000000E+00 -0.14604335875E+04  0.14604335875E+04  0.00000000000E+00 0. -1.
         25    2    1    2    0    0 -0.24500452074E+01  0.29160481938E+02  0.59757890367E+03  0.61121255683E+03  0.12499562825E+03 0.  0.
          2    1    1    2  501    0 -0.31225361109E+02 -0.27175752195E+02 -0.14526739255E+04  0.14532635956E+04  0.00000000000E+00 0. -1.
          1    1    1    2  502    0  0.33675406316E+02 -0.19847297430E+01  0.43838421782E+03  0.43968021854E+03  0.00000000000E+00 0. -1.
         22    1    3    3    0    0  0.16966479801E+02 -0.18336862836E+02  0.50292200108E+03  0.50354209472E+03  0.00000000000E+00 0. -1.
         22    1    3    3    0    0 -0.19416525008E+02  0.47497344775E+02  0.94656902584E+02  0.10767046211E+03  0.00000000000E+00 0. -1.
</event>
<event>
 7    1  0.7118985E-006  0.3001475E+02  0.7818608E-02  0.1615616E+00
          2   -1    0    0  502    0  0.00000000000E+00  0.00000000000E+00  0.39660024183E+02  0.39660024183E+02  0.00000000000E+00 0. -1.
          1   -1    0    0  501    0 -0.00000000000E+00 -0.00000000000E+00 -0.19204948758E+04  0.19204948758E+04  0.00000000000E+00 0. -1.
         25    2    1    2    0    0 -0.50692721262E+01  0.28431493750E+01 -0.20210684467E+03  0.23770877675E+03  0.12499801943E+03 0.  0.
          2    1    1    2  501    0 -0.25852403177E+02 -0.78197363161E+01 -0.16892047769E+04  0.16894206916E+04  0.00000000000E+00 0. -1.
          1    1    1    2  502    0  0.30921675303E+02  0.49765869411E+01  0.10476769983E+02  0.33025431571E+02  0.00000000000E+00 0. -1.
         22    1    3    3    0    0 -0.52244671354E+02 -0.36288299542E+02 -0.95727847595E+02  0.11493549136E+03  0.00000000000E+00 0.  1.
         22    1    3    3    0    0  0.47175399227E+02  0.39131448917E+02 -0.10637899708E+03  0.12277328539E+03  0.00000000000E+00 0.  1.
</event>
<event>
 7    1  0.7118985E-006  0.7704786E+02  0.7818608E-02  0.1509104E+00
          2   -1    0    0  502    0  0.00000000000E+00  0.00000000000E+00  0.26359571737E+04  0.26359571737E+04  0.00000000000E+00 0. -1.
          1   -1    0    0  501    0 -0.00000000000E+00 -0.00000000000E+00 -0.25414720239E+02  0.25414720239E+02  0.00000000000E+00 0. -1.
         25    2    1    2    0    0  0.56185597875E+02  0.59603023922E+02  0.13410721704E+04  0.13493738448E+04  0.12500345997E+03 0.  0.
          2    1    1    2  501    0 -0.37074074885E+02 -0.67400137106E+02  0.48679401599E+02  0.91032684518E+02  0.00000000000E+00 0. -1.
          1    1    1    2  502    0 -0.19111522991E+02  0.77971131841E+01  0.12207908815E+04  0.12209653646E+04  0.00000000000E+00 0. -1.
         22    1    3    3    0    0  0.22207017095E+02  0.36078063206E+02  0.11418433720E+03  0.12179015196E+03  0.00000000000E+00 0.  1.
         22    1    3    3    0    0  0.33978580780E+02  0.23524960717E+02  0.12268878332E+04  0.12275836928E+04  0.00000000000E+00 0.  1.
</event>
<event>
 7    1  0.7118985E-006  0.7993686E+02  0.7818608E-02  0.1459669E+00
          2   -1    0    0  502    0  0.00000000000E+00  0.00000000000E+00  0.15398388417E+04  0.15398388417E+04  0.00000000000E+00 0. -1.
          1   -1    0    0  501    0 -0.00000000000E+00 -0.00000000000E+00 -0.23496150076E+04  0.23496150076E+04  0.00000000000E+00 0. -1.
         25    2    1    2    0    0 -0.10205061358E+03  0.31945298643E+02  0.97501583698E+02  0.19121678435E+03  0.12498987941E+03 0.  0.
          2    1    1    2  501    0  0.73967630583E+02 -0.29971685034E+02 -0.23019237999E+04  0.23033069038E+04  0.00000000000E+00 0. -1.
          1    1    1    2  502    0  0.28082982997E+02 -0.19736136096E+01  0.13946460503E+04  0.13949301612E+04  0.00000000000E+00 0. -1.
         22    1    3    3    0    0  0.20653311122E+02  0.28148054860E+02  0.46820334766E+02  0.58403903982E+02  0.00000000000E+00 0. -1.
         22    1    3    3    0    0 -0.12270392470E+03  0.37972437831E+01  0.50681248933E+02  0.13281288037E+03  0.00000000000E+00 0. -1.
</event>
<event>
 7    1  0.7118985E-006  0.3327497E+02  0.7818608E-02  0.1585186E+00
          2   -1    0    0  502    0  0.00000000000E+00  0.00000000000E+00  0.77017411136E+03  0.77017411136E+03  0.00000000000E+00 0. -1.
          1   -1    0    0  501    0 -0.00000000000E+00 -0.00000000000E+00 -0.26757428379E+03  0.26757428379E+03  0.00000000000E+00 0. -1.
         25    2    1    2    0    0  0.31092186751E+01 -0.23215484260E+02  0.51177222687E+03  0.52733771633E+03  0.12500251564E+03 0.  0.
          2    1    1    2  501    0  0.26044539233E+02  0.20780271847E+02 -0.25786228043E+03  0.26000594876E+03  0.00000000000E+00 0. -1.
          1    1    1    2  502    0 -0.29153757908E+02  0.24352124126E+01  0.24868988113E+03  0.25040473006E+03  0.00000000000E+00 0. -1.
         22    1    3    3    0    0  0.75410607252E+01  0.22636267311E+02  0.14465335389E+02  0.27901865933E+02  0.00000000000E+00 0.  1.
         22    1    3    3    0    0 -0.44318420501E+01 -0.45851751571E+02  0.49730689148E+03  0.49943585040E+03  0.00000000000E+00 0.  1.
</event>
<event>
 7    1  0.7118985E-006  0.3851519E+02  0.7818608E-02  0.1550544E+00
          2   -1    0    0  502    0  0.00000000000E+00  0.00000000000E+00  0.73995190396E+03  0.73995190396E+03  0.00000000000E+00 0. -1.
          1   -1    0    0  501    0 -0.00000000000E+00 -0.00000000000E+00 -0.55091746639E+03  0.55091746639E+03  0.00000000000E+00 0. -1.
         25    2    1    2    0    0 -0.28918631060E+02 -0.33485132662E+02 -0.17007591850E+03  0.21565878833E+03  0.12500141439E+03 0.  0.
          2    1    1    2  501    0  0.31011737171E+02 -0.49909383474E+01 -0.35684212715E+03  0.35822191588E+03  0.00000000000E+00 0. -1.
          1    1    1    2  502    0 -0.20931061117E+01  0.38476071010E+02  0.71595248322E+03  0.71698866614E+03  0.00000000000E+00 0. -1.
         22    1    3    3    0    0 -0.57960426163E+02 -0.46133129725E+02 -0.45092591181E+02  0.86723805490E+02  0.00000000000E+00 0. -1.
         22    1    3    3    0    0  0.29041795104E+02  0.12647997063E+02 -0.12498332732E+03  0.12893498284E+03  0.00000000000E+00 0. -1.
</event>
<event>
 7    1  0.7118985E-006  0.4125511E+03  0.7818608E-02  0.1277871E+00
          2   -1    0    0  502    0  0.00000000000E+00  0.00000000000E+00  0.66913993305E+03  0.66913993305E+03  0.00000000000E+00 0. -1.
          1   -1    0    0  501    0 -0.00000000000E+00 -0.00000000000E+00 -0.26130991649E+04  0.26130991649E+04  0.00000000000E+00 0. -1.
         25    2    1    2    0    0  0.31701552014E+03  0.22946224829E+03 -0.21698757923E+03  0.46460754396E+03  0.12499918785E+03 0.  0.
          2    1    1    2  501    0 -0.33434341821E+03 -0.24721293897E+03 -0.22529843258E+04  0.22910342928E+04  0.00000000000E+00 0. -1.
          1    1    1    2  502    0  0.17327898063E+02  0.17750690679E+02  0.52601267322E+03  0.52659726116E+03  0.00000000000E+00 0. -1.
         22    1    3    3    0    0  0.30342358870E+03  0.17740831415E+03 -0.21225807399E+03  0.41060086956E+03  0.00000000000E+00 0. -1.
         22    1    3    3    0    0  0.13591931442E+02  0.52053934142E+02 -0.47295052371E+01  0.54006674400E+02  0.00000000000E+00 0. -1.
</event>
<event>
 7    1  0.7118985E-006  0.5676858E+02  0.7818608E-02  0.1483938E+00
          2   -1    0    0  502    0  0.00000000000E+00  0.00000000000E+00  0.14605708331E+04  0.14605708331E+04  0.00000000000E+00 0. -1.
          1   -1    0    0  501    0 -0.00000000000E+00 -0.00000000000E+00 -0.53810915919E+02  0.53810915919E+02  0.00000000000E+00 0. -1.
         25    2    1    2    0    0 -0.34814956608E+02 -0.45781779992E+02  0.38135875424E+03  0.40542361261E+03  0.12500301451E+03 0.  0.
          2    1    1    2  501    0  0.54090459185E+02  0.18590281611E+02 -0.21812593299E+02  0.61214096184E+02  0.00000000000E+00 0. -1.
          1    1    1    2  502    0 -0.19275502578E+02  0.27191498382E+02  0.10472137563E+04  0.10477440403E+04  0.00000000000E+00 0. -1.
         22    1    3    3    0    0  0.19979303644E+02  0.32647393669E+02  0.71095259000E+02  0.80743796912E+02  0.00000000000E+00 0.  1.
         22    1    3    3    0    0 -0.54794260252E+02 -0.78429173661E+02  0.31026349524E+03  0.32467981569E+03  0.00000000000E+00 0.  1.
</event>
<event>
 7    1  0.7118985E-006  0.4616378E+02  0.7818608E-02  0.1571361E+00
          2   -1    0    0  502    0  0.00000000000E+00  0.00000000000E+00  0.51185078714E+02  0.51185078714E+02  0.00000000000E+00 0. -1.
          1   -1    0    0  501    0 -0.00000000000E+00 -0.00000000000E+00 -0.77644926671E+03  0.77644926671E+03  0.00000000000E+00 0. -1.
         25    2    1    2    0    0  0.28678460857E+02  0.47909473424E+02 -0.48404607970E+03  0.50303434779E+03  0.12500070412E+03 0.  0.
          2    1    1    2  501    0 -0.22860551020E+02 -0.22483187499E+01 -0.26956461486E+03  0.27054157040E+03  0.00000000000E+00 0. -1.
          1    1    1    2  502    0 -0.58179098372E+01 -0.45661154674E+02  0.28346506555E+02  0.54058427233E+02  0.00000000000E+00 0. -1.
         22    1    3    3    0    0  0.24124669727E+02  0.16589783028E+02 -0.46536121350E+03  0.46628133098E+03  0.00000000000E+00 0.  1.
         22    1    3    3    0    0  0.45537911302E+01  0.31319690396E+02 -0.18684866196E+02  0.36753016813E+02  0.00000000000E+00 0.  1.
</event>
<event>
 7    1  0.7118985E-006  0.1777273E+03  0.7818608E-02  0.1302487E+00
          2   -1    0    0  502    0  0.00000000000E+00  0.00000000000E+00  0.11127129206E+03  0.11127129206E+03  0.00000000000E+00 0. -1.
          1   -1    0    0  501    0 -0.00000000000E+00 -0.00000000000E+00 -0.61243185785E+03  0.61243185785E+03  0.00000000000E+00 0. -1.
         25    2    1    2    0    0  0.19246967733E+03 -0.25781680900E+02 -0.22783732100E+03  0.32441352413E+03  0.12500007216E+03 0.  0.
          2    1    1    2  501    0 -0.31176086314E+02 -0.33453591040E+02 -0.21195658367E+03  0.21683331034E+03  0.00000000000E+00 0. -1.
          1    1    1    2  502    0 -0.16129359102E+03  0.59235271940E+02 -0.61366661125E+02  0.18245631544E+03  0.00000000000E+00 0. -1.
         22    1    3    3    0    0 -0.12824012532E+02 -0.72975084364E+01  0.28772598176E+01  0.15032882320E+02  0.00000000000E+00 0. -1.
         22    1    3    3    0    0  0.20529368986E+03 -0.18484172463E+02 -0.23071458082E+03  0.30938064181E+03  0.00000000000E+00 0. -1.
</event>
<event>
 7    1  0.7118985E-006  0.9567488E+02  0.7818608E-02  0.1400253E+00
          2   -1    0    0  502    0  0.00000000000E+00  0.00000000000E+00  0.13939548353E+04  0.13939548353E+04  0.00000000000E+00 0. -1.
          1   -1    0    0  501    0 -0.00000000000E+00 -0.00000000000E+00 -0.11364659548E+04  0.11364659548E+04  0.00000000000E+00 0. -1.
         25    2    1    2    0    0  0.74708731569E+02 -0.54658940927E+02 -0.82443171985E+02  0.17603901703E+03  0.12499545798E+03 0.  0.
          2    1    1    2  501    0 -0.93406228481E+02  0.22833018220E+02 -0.10046760698E+04  0.10092670982E+04  0.00000000000E+00 0. -1.
          1    1    1    2  502    0  0.18697496912E+02  0.31825922707E+02  0.13446081224E+04  0.13451146749E+04  0.00000000000E+00 0. -1.
         22    1    3    3    0    0  0.43098075429E+02 -0.74375550613E+02 -0.43092137373E+00  0.85961342055E+02  0.00000000000E+00 0. -1.
         22    1    3    3    0    0  0.31610656140E+02  0.19716609686E+02 -0.82012250611E+02  0.90077674978E+02  0.00000000000E+00 0. -1.
</event>
<event>
 7    1  0.7118985E-006  0.1062369E+03  0.7818608E-02  0.1438833E+00
          2   -1    0    0  502    0  0.00000000000E+00  0.00000000000E+00  0.16423022748E+04  0.16423022748E+04  0.00000000000E+00 0. -1.
          1   -1    0    0  501    0 -0.00000000000E+00 -0.00000000000E+00 -0.61258509978E+02  0.61258509978E+02  0.00000000000E+00 0. -1.
         25    2    1    2    0    0 -0.10110221777E+03  0.22462393081E+02  0.48924893889E+03  0.51547534691E+03  0.12499636603E+03 0.  0.
          2    1    1    2  501    0  0.96126079095E+02 -0.46657502534E+02  0.11455061150E+02  0.10746331491E+03  0.00000000000E+00 0. -1.
          1    1    1    2  502    0  0.49761386723E+01  0.24195109453E+02  0.10803397648E+04  0.10806221230E+04  0.00000000000E+00 0. -1.
         22    1    3    3    0    0  0.26658206106E+02 -0.86919073275E+01  0.12800548417E+03  0.13104050207E+03  0.00000000000E+00 0.  1.
         22    1    3    3    0    0 -0.12776042387E+03  0.31154300409E+02  0.36124345472E+03  0.38443484484E+03  0.00000000000E+00 0.  1.
</event>
<event>
 7    1  0.7118985E-006  0.1287369E+03  0.7818608E-02  0.1335955E+00
          2   -1    0    0  502    0  0.00000000000E+00  0.00000000000E+00  0.13809524318E+04  0.13809524318E+04  0.00000000000E+00 0. -1.
          1   -1    0    0  501    0 -0.00000000000E+00 -0.00000000000E+00 -0.47928842243E+02  0.47928842243E+02  0.00000000000E+00 0. -1.
         25    2    1    2    0    0  0.83771703311E+02 -0.30148575803E+02  0.81273020328E+03  0.82708711257E+03  0.12496428909E+03 0.  0.
          2    1    1    2  501    0 -0.13054226899E+03  0.31671647080E+02  0.74606035537E+02  0.15365688322E+03  0.00000000000E+00 0. -1.
          1    1    1    2  502    0  0.46770565678E+02 -0.15230712773E+01  0.44568735078E+03  0.44813727830E+03  0.00000000000E+00 0. -1.
         22    1    3    3    0    0  0.16148674093E+02  0.23750501376E+02  0.54460701724E+03  0.54536379529E+03  0.00000000000E+00 0. -1.
         22    1    3    3    0    0  0.67623029217E+02 -0.53899077179E+02  0.26812318604E+03  0.28172331727E+03  0.00000000000E+00 0. -1.
</event>
<event>
 7    1  0.8767679E-006  0.7905022E+02  0.7818608E-02  0.1415817E+00
          2   -1    0    0  502    0  0.00000000000E+00  0.00000000000E+00  0.12512098768E+04  0.12512098768E+04  0.00000000000E+00 0. -1.
          1   -1    0    0  501    0 -0.00000000000E+00 -0.00000000000E+00 -0.99624955301E+03  0.99624955301E+03  0.00000000000E+00 0. -1.
         25    2    1    2    0    0 -0.98141573342E+02 -0.13444698610E+02 -0.11652956400E+03  0.19751140549E+03  0.12497634845E+03 0.  0.
          2    1    1    2  501    0  0.21677160632E+02  0.33082268260E+02 -0.83747492253E+03  0.83840836210E+03  0.00000000000E+00 0. -1.
          1    1    1    2  502    0  0.76464412710E+02 -0.19637569650E+02  0.12089648103E+04  0.12115396622E+04  0.00000000000E+00 0. -1.
         22    1    3    3    0    0 -0.64149448704E+02 -0.67949621718E+02 -0.54311138217E+02  0.10808331321E+03  0.00000000000E+00 0. -1.
         22    1    3    3    0    0 -0.33992124637E+02  0.54504923108E+02 -0.62218425786E+02  0.89428092274E+02  0.00000000000E+00 0. -1.
</event>
<event>
 7    1  0.7118985E-006  0.5836862E+02  0.7818608E-02  0.1474733E+00
          2   -1    0    0  502    0  0.00000000000E+00  0.00000000000E+00  0.20013648996E+04  0.20013648996E+04  0.00000000000E+00 0. -1.
          1   -1    0    0  501    0 -0.00000000000E+00 -0.00000000000E+00 -0.29684490195E+02  0.29684490195E+02  0.00000000000E+00 0. -1.
         25    2    1    2    0    0 -0.65103459794E+02  0.52860534450E+02  0.58572162910E+03  0.60476017355E+03  0.12502937313E+03 0.  0.
          2    1    1    2  501    0  0.11816065214E+02 -0.32516444999E+02 -0.42980848436E+01  0.34862761305E+02  0.00000000000E+00 0. -1.
          1    1    1    2  502    0  0.53287394580E+02 -0.20344089451E+02  0.13902568651E+04  0.13914264549E+04  0.00000000000E+00 0. -1.
         22    1    3    3    0    0 -0.70311465819E+02  0.70729216165E+02  0.25944767695E+03  0.27795579023E+03  0.00000000000E+00 0.  1.
         22    1    3    3    0    0  0.52080060243E+01 -0.17868681715E+02  0.32627395214E+03  0.32680438332E+03  0.00000000000E+00 0.  1.
</event>
<event>
 7    1  0.7118985E-006  0.1316816E+03  0.7818608E-02  0.1227872E+00
          2   -1    0    0  502    0  0.00000000000E+00  0.00000000000E+00  0.82330080346E+03  0.82330080346E+03  0.00000000000E+00 0. -1.
          1   -1    0    0  501    0 -0.00000000000E+00 -0.00000000000E+00 -0.33547018698E+03  0.33547018698E+03  0.00000000000E+00 0. -1.
         25    2    1    2    0    0  0.11612420713E+03 -0.58406097362E+02  0.17765210332E+02  0.18124949063E+03  0.12505867209E+03 0.  0.
          2    1    1    2  501    0 -0.58594439576E+01  0.13155118530E+03 -0.23001757321E+03  0.26504364060E+03  0.00000000000E+00 0. -1.
          1    1    1    2  502    0 -0.11026476317E+03 -0.73145087935E+02  0.70008297935E+03  0.71247785921E+03  0.00000000000E+00 0. -1.
         22    1    3    3    0    0  0.36632149953E+01 -0.56419187731E+02  0.36393780499E+02  0.67238762239E+02  0.00000000000E+00 0. -1.
         22    1    3    3    0    0  0.11246099213E+03 -0.19869096305E+01 -0.18628570167E+02  0.11401072839E+03  0.00000000000E+00 0. -1.
</event>
<event>
 7    1  0.7118985E-006  0.9021700E+02  0.7818608E-02  0.1451484E+00
          2   -1    0    0  502    0  0.00000000000E+00  0.00000000000E+00  0.33229137329E+04  0.33229137329E+04  0.00000000000E+00 0. -1.
          1   -1    0    0  501    0 -0.00000000000E+00 -0.00000000000E+00 -0.57275421082E+03  0.57275421082E+03  0.00000000000E+00 0. -1.
         25    2    1    2    0    0  0.53989937066E+02  0.10085228027E+03  0.20263249073E+04  0.20333972279E+04  0.12500224270E+03 0.  0.
          2    1    1    2  501    0 -0.33949418629E+02 -0.83540833188E+02 -0.56550982448E+03  0.57265434201E+03  0.00000000000E+00 0. -1.
          1    1    1    2  502    0 -0.20040518438E+02 -0.17311447085E+02  0.12893444393E+04  0.12896163738E+04  0.00000000000E+00 0. -1.
         22    1    3    3    0    0 -0.22415165613E+02  0.66617419694E+02  0.51753433635E+03  0.52228546749E+03  0.00000000000E+00 0. -1.
         22    1    3    3    0    0  0.76405102679E+02  0.34234860579E+02  0.15087905709E+04  0.15111117604E+04  0.00000000000E+00 0. -1.
</event>
<event>
 7    1  0.7118985E-006  0.7190516E+02  0.7818608E-02  0.1367497E+00
          2   -1    0    0  502    0  0.00000000000E+00  0.00000000000E+00  0.46406164302E+03  0.46406164302E+03  0.00000000000E+00 0. -1.
          1   -1    0    0  501    0 -0.00000000000E+00 -0.00000000000E+00 -0.67801134041E+03  0.67801134041E+03  0.00000000000E+00 0. -1.
         25    2    1    2    0    0  0.34008525523E+02 -0.30418159378E+02 -0.95076495450E+02  0.16354631863E+03  0.12500405642E+03 0.  0.
          2    1    1    2  501    0  0.35367292467E+02  0.53408683840E+02 -0.54369920451E+03  0.54745973173E+03  0.00000000000E+00 0. -1.
          1    1    1    2  502    0 -0.69375817991E+02 -0.22990524462E+02  0.42482600257E+03  0.43106693308E+03  0.00000000000E+00 0. -1.
         22    1    3    3    0    0  0.43851089847E+00  0.27024970356E+02  0.17911297017E+02  0.32424618354E+02  0.00000000000E+00 0. -1.
         22    1    3    3    0    0  0.33570014625E+02 -0.57443129734E+02 -0.11298779247E+03  0.13112170027E+03  0.00000000000E+00 0. -1.
</event>
<event>
 7    1  0.7118985E-006  0.1032846E+03  0.7818608E-02  0.1288436E+00
          2   -1    0    0  502    0  0.00000000000E+00  0.00000000000E+00  0.10499357323E+04  0.10499357323E+04  0.00000000000E+00 0. -1.
          1   -1    0    0  501    0 -0.00000000000E+00 -0.00000000000E+00 -0.68348730887E+03  0.68348730887E+03  0.00000000000E+00 0. -1.
         25    2    1    2    0    0  0.84066646917E+01  0.18857078080E+03  0.11639913563E+03  0.25456374128E+03  0.12499731283E+03 0.  0.
          2    1    1    2  501    0 -0.11661324135E+02 -0.88890273390E+02 -0.60823154856E+03  0.61480328874E+03  0.00000000000E+00 0. -1.
          1    1    1    2  502    0  0.32546594430E+01 -0.99680507406E+02  0.85828083638E+03  0.86405601118E+03  0.00000000000E+00 0. -1.
         22    1    3    3    0    0  0.31283858897E+02 -0.36688105651E+01  0.26272778624E+02  0.41017056148E+02  0.00000000000E+00 0.  1.
         22    1    3    3    0    0 -0.22877194205E+02  0.19223959136E+03  0.90126357010E+02  0.21354668513E+03  0.00000000000E+00 0.  1.
</event>
<event>
 7    1  0.7118985E-006  0.7508429E+02  0.7818608E-02  0.1424062E+00
          2   -1    0    0  502    0  0.00000000000E+00  0.00000000000E+00  0.85804669752E+03  0.85804669752E+03  0.00000000000E+00 0. -1.
          1   -1    0    0  501    0 -0.00000000000E+00 -0.00000000000E+00 -0.66433096672E+03  0.66433096672E+03  0.00000000000E+00 0. -1.
         25    2    1    2    0    0 -0.89892524118E+02  0.62594680238E+02  0.22702944509E+03  0.28136488619E+03  0.12500028143E+03 0.  0.
          2    1    1    2  501    0  0.36675796575E+02 -0.13502258193E+02 -0.63438944732E+03  0.63559216161E+03  0.00000000000E+00 0. -1.
          1    1    1    2  502    0  0.53216727543E+02 -0.49092422046E+02  0.60107573302E+03  0.60542061645E+03  0.00000000000E+00 0. -1.
         22    1    3    3    0    0  0.94609084940E+01  0.66084222420E+02  0.93899066934E+02  0.11521140574E+03  0.00000000000E+00 0. -1.
         22    1    3    3    0    0 -0.99353432612E+02 -0.34895421816E+01  0.13313037816E+03  0.16615348045E+03  0.00000000000E+00 0. -1.
</event>
<event>
 7    1  0.7118985E-006  0.7497757E+02  0.7818608E-02  0.1379901E+00
          2   -1    0    0  502    0  0.00000000000E+00  0.00000000000E+00  0.74439241468E+03  0.74439241468E+03  0.00000000000E+00 0. -1.
          1   -1    0    0  501    0 -0.00000000000E+00 -0.00000000000E+00 -0.23058715593E+03  0.23058715593E+03  0.00000000000E+00 0. -1.
         25    2    1    2    0    0  0.43876716525E+02  0.55448854146E+02 -0.42672073439E+02  0.14982433569E+03  0.12500673595E+03 0.  0.
          2    1    1    2  501    0  0.31026666022E+02 -0.45980063183E+02 -0.12644267950E+03  0.13807451399E+03  0.00000000000E+00 0. -1.
          1    1    1    2  502    0 -0.74903382547E+02 -0.94687909631E+01  0.68292001168E+03  0.68708072093E+03  0.00000000000E+00 0. -1.
         22    1    3    3    0    0  0.58073829457E+02  0.69160417821E+01  0.26444523914E+02  0.64184999391E+02  0.00000000000E+00 0.  1.
         22    1    3    3    0    0 -0.14197112932E+02  0.48532812364E+02 -0.69116597353E+02  0.85639336296E+02  0.00000000000E+00 0.  1.
</event>
<event>
 7    1  0.7118985E-006  0.6911829E+02  0.7818608E-02  0.1506283E+00
          2   -1    0    0  502    0  0.00000000000E+00  0.00000000000E+00  0.77268980616E+03  0.77268980616E+03  0.00000000000E+00 0. -1.
          1   -1    0    0  501    0 -0.00000000000E+00 -0.00000000000E+00 -0.19585135318E+03  0.19585135318E+03  0.00000000000E+00 0. -1.
         25    2    1    2    0    0 -0.70195936653E+02 -0.45266958271E+02  0.17295513024E+03  0.22916537987E+03  0.12500690870E+03 0.  0.
          2    1    1    2  501    0  0.57993600937E+01  0.22726115076E+02 -0.16487747794E+03  0.16653735802E+03  0.00000000000E+00 0. -1.
          1    1    1    2  502    0  0.64396576559E+02  0.22540843196E+02  0.56876080069E+03  0.57283842145E+03  0.00000000000E+00 0. -1.
         22    1    3    3    0    0 -0.34274188476E+02 -0.77891042279E+02  0.15611290963E+03  0.17780037968E+03  0.00000000000E+00 0. -1.
         22    1    3    3    0    0 -0.35921748177E+02  0.32624084007E+02  0.16842220614E+02  0.51365000191E+02  0.00000000000E+00 0. -1.
</event>
<event>
 7    1  0.7118985E-006  0.7867549E+02  0.7818608E-02  0.1338933E+00
          2   -1    0    0  502    0  0.00000000000E+00  0.00000000000E+00  0.26117378892E+04  0.26117378892E+04  0.00000000000E+00 0. -1.
          1   -1    0    0  501    0 -0.00000000000E+00 -0.00000000000E+00 -0.22666465103E+04  0.22666465103E+04  0.00000000000E+00 0. -1.
         25    2    1    2    0    0 -0.50946962198E+01 -0.12051303381E+03  0.34895548566E+03  0.38980081841E+03  0.12500159923E+03 0.  0.
          2    1    1    2  501    0  0.49180266591E+02  0.56112238599E+02 -0.22449247582E+04  0.22461643867E+04  0.00000000000E+00 0. -1.
          1    1    1    2  502    0 -0.44085570372E+02  0.64400795211E+02  0.22410606514E+04  0.22424191944E+04  0.00000000000E+00 0. -1.
         22    1    3    3    0    0 -0.28418617348E+02  0.13307867382E+02  0.11564685926E+03  0.11982868272E+03  0.00000000000E+00 0.  1.
         22    1    3    3    0    0  0.23323921128E+02 -0.13382090119E+03  0.23330862640E+03  0.26997213569E+03  0.00000000000E+00 0.  1.
</event>
<event>
 7    1  0.7118985E-006  0.1927318E+03  0.7818608E-02  0.1288956E+00
          2   -1    0    0  502    0  0.00000000000E+00  0.00000000000E+00  0.24119389003E+03  0.24119389003E+03  0.00000000000E+00 0. -1.
          1   -1    0    0  501    0 -0.00000000000E+00 -0.00000000000E+00 -0.23301139619E+04  0.23301139619E+04  0.00000000000E+00 0. -1.
         25    2    1    2    0    0 -0.21232568678E+03 -0.39244436159E+02 -0.57123375691E+03  0.62335014128E+03  0.12504027577E+03 0.  0.
          2    1    1    2  501    0  0.34961169263E+02 -0.32611923466E+02 -0.16898606383E+04  0.16905368371E+04  0.00000000000E+00 0. -1.
          1    1    1    2  502    0  0.17736451752E+03  0.71856359625E+02  0.17217432334E+03  0.25742087349E+03  0.00000000000E+00 0. -1.
         22    1    3    3    0    0 -0.17039303312E+03  0.21289928864E+02 -0.34392086123E+03  0.38440682304E+03  0.00000000000E+00 0. -1.
         22    1    3    3    0    0 -0.41932653665E+02 -0.60534365023E+02 -0.22731289568E+03  0.23894331825E+03  0.00000000000E+00 0. -1.
</event>
<event>
 7    1  0.7118985E-006  0.7843382E+02  0.7818608E-02  0.1333890E+00
          2   -1    0    0  502    0  0.00000000000E+00  0.00000000000E+00  0.16334948306E+04  0.16334948306E+04  0.00000000000E+00 0. -1.
          1   -1    0    0  501    0 -0.00000000000E+00 -0.00000000000E+00 -0.22500241631E+04  0.22500241631E+04  0.00000000000E+00 0. -1.
         25    2    1    2    0    0 -0.89726578966E+02  0.57082320655E+02  0.19519202539E+00  0.16411654736E+03  0.12499981085E+03 0.  0.
          2    1    1    2  501    0  0.75920498232E+02  0.19894222976E+02 -0.21663668341E+04  0.21677880343E+04  0.00000000000E+00 0. -1.
          1    1    1    2  502    0  0.13806080734E+02 -0.76976543631E+02  0.15496423095E+04  0.15516144120E+04  0.00000000000E+00 0. -1.
         22    1    3    3    0    0  0.57671504140E+01  0.61738225022E+02  0.22463072448E+02  0.65950421352E+02  0.00000000000E+00 0. -1.
         22    1    3    3    0    0 -0.95493729380E+02 -0.46559043665E+01 -0.22267880423E+02  0.98166126005E+02  0.00000000000E+00 0. -1.
</event>
<event>
 7    1  0.7118985E-006  0.9284603E+02  0.7818608E-02  0.1325074E+00
          2   -1    0    0  502    0  0.00000000000E+00  0.00000000000E+00  0.29458091674E+04  0.29458091674E+04  0.00000000000E+00 0. -1.
          1   -1    0    0  501    0 -0.00000000000E+00 -0.00000000000E+00 -0.53569778495E+03  0.53569778495E+03  0.00000000000E+00 0. -1.
         25    2    1    2    0    0 -0.10433601149E+02 -0.43121607094E+02  0.16007601111E+04  0.16062460536E+04  0.12500047370E+03 0.  0.
          2    1    1    2  501    0 -0.52557389159E+02  0.76732378920E+02 -0.52793763380E+03  0.53606742329E+03  0.00000000000E+00 0. -1.
          1    1    1    2  502    0  0.62990990308E+02 -0.33610771826E+02  0.13372889051E+04  0.13391934754E+04  0.00000000000E+00 0. -1.
         22    1    3    3    0    0 -0.54936265436E+02 -0.59733186700E+02  0.80838245320E+03  0.81244583666E+03  0.00000000000E+00 0. -1.
         22    1    3    3    0    0  0.44502664287E+02  0.16611579605E+02  0.79237765792E+03  0.79380021698E+03  0.00000000000E+00 0. -1.
</event>
<event>
 7    1  0.7118985E-006  0.5964248E+02  0.7818608E-02  0.1422804E+00
          2   -1    0    0  502    0  0.00000000000E+00  0.00000000000E+00  0.79751884902E+03  0.79751884902E+03  0.00000000000E+00 0. -1.
          1   -1    0    0  501    0 -0.00000000000E+00 -0.00000000000E+00 -0.30611867063E+03  0.30611867063E+03  0.00000000000E+00 0. -1.
         25    2    1    2    0    0 -0.67872983551E+02  0.83820512856E+01  0.58330315118E+03  0.60045248544E+03  0.12499448156E+03 0.  0.
          2    1    1    2  501    0  0.18835773002E+02 -0.45967340647E+02 -0.29074857775E+03  0.29496189282E+03  0.00000000000E+00 0. -1.
          1    1    1    2  502    0  0.49037210549E+02  0.37585289362E+02  0.19884560496E+03  0.20822314139E+03  0.00000000000E+00 0. -1.
         22    1    3    3    0    0  0.28266682574E+02 -0.27395226659E+02  0.13942805013E+03  0.14487817279E+03  0.00000000000E+00 0.  1.
         22    1    3    3    0    0 -0.96139666125E+02  0.35777277945E+02  0.44387510105E+03  0.45557431265E+03  0.00000000000E+00 0.  1.
</event>
<event>
 7    1  0.7118985E-006  0.7629810E+02  0.7818608E-02  0.1375114E+00
          2   -1    0    0  502    0  0.00000000000E+00  0.00000000000E+00  0.27330328090E+03  0.27330328090E+03  0.00000000000E+00 0. -1.
          1   -1    0    0  501    0 -0.00000000000E+00 -0.00000000000E+00 -0.23341090479E+03  0.23341090479E+03  0.00000000000E+00 0. -1.
         25    2    1    2    0    0 -0.11940251724E+03 -0.49701371518E+02 -0.29118221825E+02  0.18220792888E+03  0.12499868420E+03 0.  0.
          2    1    1    2  501    0  0.51023447582E+02  0.24699312713E+02 -0.11412539724E+03  0.12742862530E+03  0.00000000000E+00 0. -1.
          1    1    1    2  502    0  0.68379069658E+02  0.25002058805E+02  0.18313599517E+03  0.19707763150E+03  0.00000000000E+00 0. -1.
         22    1    3    3    0    0 -0.81041351695E+02 -0.84754976545E+02  0.92262282662E+01  0.11762750538E+03  0.00000000000E+00 0.  1.
         22    1    3    3    0    0 -0.38361165546E+02  0.35053605027E+02 -0.38344450091E+02  0.64580423506E+02  0.00000000000E+00 0.  1.
</event>
<event>
 7    1  0.7118985E-006  0.1251949E+03  0.7818608E-02  0.1345425E+00
          2   -1    0    0  502    0  0.00000000000E+00  0.00000000000E+00  0.22773064552E+04  0.22773064552E+04  0.00000000000E+00 0. -1.
          1   -1    0    0  501    0 -0.00000000000E+00 -0.00000000000E+00 -0.20026006083E+04  0.20026006083E+04  0.00000000000E+00 0. -1.
         25    2    1    2    0    0 -0.59598092514E+02  0.68959030920E+02  0.11080751402E+04  0.11188223251E+04  0.12500239326E+03 0.  0.
          2    1    1    2  501    0  0.10392066746E+03 -0.69933654966E+02 -0.19948397030E+04  0.19987685364E+04  0.00000000000E+00 0. -1.
          1    1    1    2  502    0 -0.44322574947E+02  0.97462404578E+00  0.11614704099E+04  0.11623162020E+04  0.00000000000E+00 0. -1.
         22    1    3    3    0    0 -0.70422129340E+02 -0.35047364920E+01  0.75132012645E+03  0.75462142289E+03  0.00000000000E+00 0.  1.
         22    1    3    3    0    0  0.10824036826E+02  0.72463767412E+02  0.35675501371E+03  0.36420090220E+03  0.00000000000E+00 0.  1.
</event>
<event>
 7    1  0.7118985E-006  0.4596152E+02  0.7818608E-02  0.1557772E+00
          2   -1    0    0  502    0  0.00000000000E+00  0.00000000000E+00  0.16088336657E+04  0.16088336657E+04  0.00000000000E+00 0. -1.
          1   -1    0    0  501    0 -0.00000000000E+00 -0.00000000000E+00 -0.10459494107E+04  0.10459494107E+04  0.00000000000E+00 0. -1.
         25    2    1    2    0    0  0.13424264496E+02  0.29541867139E+02 -0.43343381888E+03  0.45226372272E+03  0.12499866699E+03 0.  0.
          2    1    1    2  501    0 -0.38519969609E+02 -0.28150080210E+02 -0.60205813616E+03  0.60394553926E+03  0.00000000000E+00 0. -1.
          1    1    1    2  502    0  0.25095705112E+02 -0.13917869289E+01  0.15983762100E+04  0.15985738144E+04  0.00000000000E+00 0. -1.
         22    1    3    3    0    0 -0.40728663719E+02  0.55053605450E+02 -0.20603645936E+03  0.21711919793E+03  0.00000000000E+00 0. -1.
         22    1    3    3    0    0  0.54152928216E+02 -0.25511738312E+02 -0.22739735952E+03  0.23514452480E+03  0.00000000000E+00 0. -1.
</event>
<event>
 7    1  0.7118985E-006  0.5725935E+02  0.7818608E-02  0.1497037E+00
          2   -1    0    0  502    0  0.00000000000E+00  0.00000000000E+00  0.38878639743E+03  0.38878639743E+03  0.00000000000E+00 0. -1.
          1   -1    0    0  501    0 -0.00000000000E+00 -0.00000000000E+00 -0.49504306845E+02  0.49504306845E+02  0.00000000000E+00 0. -1.
         25    2    1    2    0    0  0.98679138878E+01 -0.76134977796E+02  0.22952452653E+03  0.27239875079E+03  0.12500264231E+03 0.  0.
          2    1    1    2  501    0  0.11640307830E+02  0.27828343911E+02 -0.12528259946E+02  0.32662988052E+02  0.00000000000E+00 0. -1.
          1    1    1    2  502    0 -0.21508221718E+02  0.48306633885E+02  0.12228582400E+03  0.13322896543E+03  0.00000000000E+00 0. -1.
         22    1    3    3    0    0  0.27207857326E+02  0.24197615068E+02  0.25732909929E+02  0.44586710225E+02  0.00000000000E+00 0. -1.
         22    1    3    3    0    0 -0.17339943438E+02 -0.10033259286E+03  0.20379161660E+03  0.22781204057E+03  0.00000000000E+00 0. -1.
</event>
<event>
 7    1  0.7118985E-006  0.4646892E+02  0.7818608E-02  0.1526906E+00
          2   -1    0    0  502    0  0.00000000000E+00  0.00000000000E+00  0.73624730278E+03  0.73624730278E+03  0.00000000000E+00 0. -1.
          1   -1    0    0  501    0 -0.00000000000E+00 -0.00000000000E+00 -0.60229953687E+03  0.60229953687E+03  0.00000000000E+00 0. -1.
         25    2    1    2    0    0 -0.36682129885E+02  0.47795200684E+02  0.40135474573E+00  0.13876253025E+03  0.12499967541E+03 0.  0.
          2    1    1    2  501    0 -0.60682198676E+01 -0.29760688980E+02 -0.53187784646E+03  0.53274437158E+03  0.00000000000E+00 0. -1.
          1    1    1    2  502    0  0.42750349753E+02 -0.18034511704E+02  0.66542425762E+03  0.66703993782E+03  0.00000000000E+00 0. -1.
         22    1    3    3    0    0  0.46691830087E+02  0.16653380422E+02  0.36143622674E+01  0.49704383016E+02  0.00000000000E+00 0. -1.
         22    1    3    3    0    0 -0.83373959973E+02  0.31141820262E+02 -0.32130075217E+01  0.89058147231E+02  0.00000000000E+00 0. -1.
</event>
<event>
 7    1  0.7118985E-006  0.6915979E+02  0.7818608E-02  0.1484932E+00
          2   -1    0    0  502    0  0.00000000000E+00  0.00000000000E+00  0.47728677910E+04  0.47728677910E+04  0.00000000000E+00 0. -1.
          1   -1    0    0  501    0 -0.00000000000E+00 -0.00000000000E+00 -0.11163178788E+03  0.11163178788E+03  0.00000000000E+00 0. -1.
         25    2    1    2    0    0  0.91972602433E+02 -0.12005140273E+02  0.72263980816E+02  0.17162180927E+03  0.12501551704E+03 0.  0.
          2    1    1    2  501    0 -0.22973281438E+02  0.14503928698E+02 -0.58705464791E+02  0.64687457857E+02  0.00000000000E+00 0. -1.
          1    1    1    2  502    0 -0.68999320995E+02 -0.24987884249E+01  0.46476774871E+04  0.46481903117E+04  0.00000000000E+00 0. -1.
         22    1    3    3    0    0  0.85670406448E+02  0.31041264283E+02  0.46736674165E+01  0.91240461399E+02  0.00000000000E+00 0. -1.
         22    1    3    3    0    0  0.63021959859E+01 -0.43046404556E+02  0.67590313399E+02  0.80381347867E+02  0.00000000000E+00 0. -1.
</event>
<event>
 7    1  0.7118985E-006  0.1000014E+03  0.7818608E-02  0.1414344E+00
          2   -1    0    0  502    0  0.00000000000E+00  0.00000000000E+00  0.60911178754E+02  0.60911178754E+02  0.00000000000E+00 0. -1.
          1   -1    0    0  501    0 -0.00000000000E+00 -0.00000000000E+00 -0.10201353554E+04  0.10201353554E+04  0.00000000000E+00 0. -1.
         25    2    1    2    0    0 -0.54382715392E+02  0.97849582455E+02 -0.42931059221E+03  0.46093847217E+03  0.12499868008E+03 0.  0.
          2    1    1    2  501    0  0.22892165545E+02 -0.94945715019E+02 -0.56470688282E+03  0.57309039736E+03  0.00000000000E+00 0. -1.
          1    1    1    2  502    0  0.31490549847E+02 -0.29038674353E+01  0.34793298374E+02  0.47017664632E+02  0.00000000000E+00 0. -1.
         22    1    3    3    0    0 -0.54716627783E+02 -0.11937576925E+02 -0.11300260920E+03  0.12611901040E+03  0.00000000000E+00 0. -1.
         22    1    3    3    0    0  0.33391239149E+00  0.10978715938E+03 -0.31630798301E+03  0.33481946176E+03  0.00000000000E+00 0. -1.
</event>
<event>
 7    1  0.7118985E-006  0.7858080E+02  0.7818608E-02  0.1474356E+00
          2   -1    0    0  502    0  0.00000000000E+00  0.00000000000E+00  0.13202006223E+04  0.13202006223E+04  0.00000000000E+00 0. -1.
          1   -1    0    0  501    0 -0.00000000000E+00 -0.00000000000E+00 -0.73317566131E+03  0.73317566131E+03  0.00000000000E+00 0. -1.
         25    2    1    2    0    0 -0.66180340904E+02  0.32243269528E+01 -0.18721918921E+03  0.23466162142E+03  0.12499927180E+03 0.  0.
          2    1    1    2  501    0  0.78106545418E+02  0.19616524060E+02 -0.51900150356E+03  0.52521233911E+03  0.00000000000E+00 0. -1.
          1    1    1    2  502    0 -0.11926204514E+02 -0.22840851013E+02  0.12932456537E+04  0.12935023231E+04  0.00000000000E+00 0. -1.
         22    1    3    3    0    0 -0.78293768434E+02 -0.22452092976E+02 -0.52316856914E+02  0.96804256993E+02  0.00000000000E+00 0.  1.
         22    1    3    3    0    0  0.12113427530E+02  0.25676419928E+02 -0.13490233230E+03  0.13785736442E+03  0.00000000000E+00 0.  1.
</event>
<event>
 7    1  0.7118985E-006  0.6001341E+02  0.7818608E-02  0.1500014E+00
          2   -1    0    0  502    0  0.00000000000E+00  0.00000000000E+00  0.16212422047E+03  0.16212422047E+03  0.00000000000E+00 0. -1.
          1   -1    0    0  501    0 -0.00000000000E+00 -0.00000000000E+00 -0.14285081871E+04  0.14285081871E+04  0.00000000000E+00 0. -1.
         25    2    1    2    0    0  0.33273519494E+02  0.80682932787E+02 -0.67903595419E+03  0.69593937876E+03  0.12499971632E+03 0.  0.
          2    1    1    2  501    0 -0.57697240661E+01 -0.27599893677E+02 -0.73492517348E+03  0.73546587579E+03  0.00000000000E+00 0. -1.
          1    1    1    2  502    0 -0.27503795428E+02 -0.53083039111E+02  0.14757716103E+03  0.15922715303E+03  0.00000000000E+00 0. -1.
         22    1    3    3    0    0  0.66102738992E+02  0.95348882612E+02 -0.49391560055E+03  0.50735944062E+03  0.00000000000E+00 0. -1.
         22    1    3    3    0    0 -0.32829219498E+02 -0.14665949825E+02 -0.18512035364E+03  0.18857993814E+03  0.00000000000E+00 0. -1.
</event>
<event>
 7    1  0.8489627E-006  0.7081775E+02  0.7818608E-02  0.1480758E+00
          2   -1    0    0  502    0  0.00000000000E+00  0.00000000000E+00  0.11718673674E+04  0.11718673674E+04  0.00000000000E+00 0. -1.
          1   -1    0    0  501    0 -0.00000000000E+00 -0.00000000000E+00 -0.92594224087E+03  0.92594224087E+03  0.00000000000E+00 0. -1.
         25    2    1    2    0    0 -0.44951511582E+02  0.82024322438E+01 -0.55191498904E+03  0.56774086710E+03  0.12502647220E+03 0.  0.
          2    1    1    2  501    0 -0.25914730003E+02 -0.86595713736E+01 -0.36452384398E+03  0.36554643239E+03  0.00000000000E+00 0. -1.
          1    1    1    2  502    0  0.70866241585E+02  0.45713912987E+00  0.11623639595E+04  0.11645223088E+04  0.00000000000E+00 0. -1.
         22    1    3    3    0    0  0.15796796015E+02 -0.47499697195E+02 -0.18228240302E+03  0.18903077646E+03  0.00000000000E+00 0.  1.
         22    1    3    3    0    0 -0.60748307597E+02  0.55702129439E+02 -0.36963258602E+03  0.37871009063E+03  0.00000000000E+00 0.  1.
</event>
<event>
 7    1  0.7118985E-006  0.6418103E+02  0.7818608E-02  0.1457492E+00
          2   -1    0    0  502    0  0.00000000000E+00  0.00000000000E+00  0.58038369333E+03  0.58038369333E+03  0.00000000000E+00 0. -1.
          1   -1    0    0  501    0 -0.00000000000E+00 -0.00000000000E+00 -0.61320499049E+03  0.61320499049E+03  0.00000000000E+00 0. -1.
         25    2    1    2    0    0 -0.55878513871E+02 -0.77863411219E+02  0.20738867646E+02  0.15887149115E+03  0.12499972381E+03 0.  0.
          2    1    1    2  501    0  0.10096234052E+02  0.34162701484E+02 -0.54150965013E+03  0.54268013166E+03  0.00000000000E+00 0. -1.
          1    1    1    2  502    0  0.45782279819E+02  0.43700709736E+02  0.48794948532E+03  0.49203706100E+03  0.00000000000E+00 0. -1.
         22    1    3    3    0    0 -0.14549606271E+02 -0.65051351180E+02  0.67704739131E+02  0.95012109932E+02  0.00000000000E+00 0. -1.
         22    1    3    3    0    0 -0.41328907600E+02 -0.12812060040E+02 -0.46965871485E+02  0.63859381223E+02  0.00000000000E+00 0. -1.
</event>
<event>
 7    1  0.7118985E-006  0.8554454E+02  0.7818608E-02  0.1356057E+00
          2   -1    0    0  502    0  0.00000000000E+00  0.00000000000E+00  0.99963284843E+03  0.99963284843E+03  0.00000000000E+00 0. -1.
          1   -1    0    0  501    0 -0.00000000000E+00 -0.00000000000E+00 -0.13069544380E+04  0.13069544380E+04  0.00000000000E+00 0. -1.
         25    2    1    2    0    0  0.13387194507E+03  0.45827014751E+02  0.73878681615E+03  0.76253119932E+03  0.12500422897E+03 0.  0.
          2    1    1    2  501    0 -0.84422869503E+02 -0.13165507486E+02 -0.12901225030E+04  0.12929488096E+04  0.00000000000E+00 0. -1.
          1    1    1    2  502    0 -0.49449075567E+02 -0.32661507265E+02  0.24401409729E+03  0.25110727749E+03  0.00000000000E+00 0. -1.
         22    1    3    3    0    0  0.10211740290E+03  0.30414487289E+01  0.23909876494E+03  0.26001044937E+03  0.00000000000E+00 0.  1.
         22    1    3    3    0    0  0.31754542169E+02  0.42785566022E+02  0.49968805122E+03  0.50252074996E+03  0.00000000000E+00 0.  1.
</event>
<event>
 7    1  0.7118985E-006  0.9048619E+02  0.7818608E-02  0.1345368E+00
          2   -1    0    0  502    0  0.00000000000E+00  0.00000000000E+00  0.48139751842E+03  0.48139751842E+03  0.00000000000E+00 0. -1.
          1   -1    0    0  501    0 -0.00000000000E+00 -0.00000000000E+00 -0.15937785270E+04  0.15937785270E+04  0.00000000000E+00 0. -1.
         25    2    1    2    0    0  0.87088018290E+02 -0.14587300799E+02 -0.27272646419E+03  0.31273338625E+03  0.12500133731E+03 0.  0.
          2    1    1    2  501    0 -0.28153383631E+02 -0.54529776510E+02 -0.12958449891E+04  0.12972973235E+04  0.00000000000E+00 0. -1.
          1    1    1    2  502    0 -0.58934634660E+02  0.69117077309E+02  0.45619044472E+03  0.46514533577E+03  0.00000000000E+00 0. -1.
         22    1    3    3    0    0  0.32421133260E+02 -0.54487219854E+02 -0.52424154856E+02  0.82269551000E+02  0.00000000000E+00 0.  1.
         22    1    3    3    0    0  0.54666885030E+02  0.39899919055E+02 -0.22030230934E+03  0.23046383525E+03  0.00000000000E+00 0.  1.
</event>
<event>
 7    1  0.7118985E-006  0.8256545E+02  0.7818608E-02  0.1341679E+00
          2   -1    0    0  502    0  0.00000000000E+00  0.00000000000E+00  0.57085544756E+03  0.57085544756E+03  0.00000000000E+00 0. -1.
          1   -1    0    0  501    0 -0.00000000000E+00 -0.00000000000E+00 -0.75231435241E+03  0.75231435241E+03  0.00000000000E+00 0. -1.
         25    2    1    2    0    0 -0.84043638355E+01 -0.14881248906E+03  0.39000902891E+02  0.19839900859E+03  0.12500122380E+03 0.  0.
          2    1    1    2  501    0  0.46729931242E+01  0.69270518062E+02 -0.66729434939E+03  0.67089640800E+03  0.00000000000E+00 0. -1.
          1    1    1    2  502    0  0.37313707114E+01  0.79541970998E+02  0.44683454165E+03  0.45387438338E+03  0.00000000000E+00 0. -1.
         22    1    3    3    0    0  0.44459652482E+02 -0.66937629668E+02 -0.22137835627E+02  0.83351009176E+02  0.00000000000E+00 0. -1.
         22    1    3    3    0    0 -0.52864016318E+02 -0.81874859392E+02  0.61138738518E+02  0.11504799941E+03  0.00000000000E+00 0. -1.
</event>
<event>
 7    1  0.7118985E-006  0.8456226E+02  0.7818608E-02  0.1434586E+00
          2   -1    0    0  502    0  0.00000000000E+00  0.00000000000E+00  0.19065091461E+04  0.19065091461E+04  0.00000000000E+00 0. -1.
          1   -1    0    0  501    0 -0.00000000000E+00 -0.00000000000E+00 -0.99867106341E+03  0.99867106341E+03  0.00000000000E+00 0. -1.
         25    2    1    2    0    0 -0.49112943798E+02  0.80025091367E+02  0.32809121242E+03  0.36343534688E+03  0.12500124480E+03 0.  0.
          2    1    1    2  501    0  0.31940621664E+02  0.25020773709E+01 -0.97959873761E+03  0.98012251807E+03  0.00000000000E+00 0. -1.
          1    1    1    2  502    0  0.17172322134E+02 -0.82527168738E+02  0.15593456079E+04  0.15616223446E+04  0.00000000000E+00 0. -1.
         22    1    3    3    0    0 -0.80132786147E+02  0.92013430396E+02  0.27398796411E+03  0.29992855694E+03  0.00000000000E+00 0.  1.
         22    1    3    3    0    0  0.31019842349E+02 -0.11988339030E+02  0.54103248305E+02  0.63506789945E+02  0.00000000000E+00 0.  1.
</event>
<event>
 7    1  0.7118985E-006  0.2285877E+03  0.7818608E-02  0.1265210E+00
          2   -1    0    0  502    0  0.00000000000E+00  0.00000000000E+00  0.95820126918E+03  0.95820126918E+03  0.00000000000E+00 0. -1.
          1   -1    0    0  501    0 -0.00000000000E+00 -0.00000000000E+00 -0.57750569140E+03  0.57750569140E+03  0.00000000000E+00 0. -1.
         25    2    1    2    0    0 -0.19186952233E+03  0.11725536991E+03 -0.13595070332E+03  0.29098083655E+03  0.12499807252E+03 0.  0.
          2    1    1    2  501    0 -0.25261950458E+02 -0.43825330267E+02 -0.34726240121E+03  0.35092734434E+03  0.00000000000E+00 0. -1.
          1    1    1    2  502    0  0.21713147279E+03 -0.73430039641E+02  0.86390868231E+03  0.89379877968E+03  0.00000000000E+00 0. -1.
         22    1    3    3    0    0 -0.18553323297E+03  0.66446787261E+02 -0.73759311932E+02  0.21042383936E+03  0.00000000000E+00 0. -1.
         22    1    3    3    0    0 -0.63362893616E+01  0.50808582647E+02 -0.62191391385E+02  0.80556997188E+02  0.00000000000E+00 0. -1.
</event>
<event>
 7    1  0.7118985E-006  0.1204217E+03  0.7818608E-02  0.1306628E+00
          2   -1    0    0  502    0  0.00000000000E+00  0.00000000000E+00  0.80610514831E+03  0.80610514831E+03  0.00000000000E+00 0. -1.
          1   -1    0    0  501    0 -0.00000000000E+00 -0.00000000000E+00 -0.72536211000E+03  0.72536211000E+03  0.00000000000E+00 0. -1.
         25    2    1    2    0    0  0.59375249597E+02 -0.28743274754E+02 -0.13855091761E+03  0.19791784315E+03  0.12499407889E+03 0.  0.
          2    1    1    2  501    0  0.62295831598E+02  0.18481402224E+02 -0.55040408731E+03  0.55422648095E+03  0.00000000000E+00 0. -1.
          1    1    1    2  502    0 -0.12167108120E+03  0.10261872530E+02  0.76969804323E+03  0.77932293420E+03  0.00000000000E+00 0. -1.
         22    1    3    3    0    0  0.79045073568E+02 -0.48925284297E+02 -0.51189610276E+02  0.10612343426E+03  0.00000000000E+00 0.  1.
         22    1    3    3    0    0 -0.19669823971E+02  0.20182009543E+02 -0.87361307335E+02  0.91794408890E+02  0.00000000000E+00 0.  1.
</event>
<event>
 7    1  0.7118985E-006  0.5047125E+02  0.7818608E-02  0.1453024E+00
          2   -1    0    0  502    0  0.00000000000E+00  0.00000000000E+00  0.16916959566E+04  0.16916959566E+04  0.00000000000E+00 0. -1.
          1   -1    0    0  501    0 -0.00000000000E+00 -0.00000000000E+00 -0.99231099612E+01  0.99231099612E+01  0.00000000000E+00 0. -1.
         25    2    1    2    0    0 -0.32035177076E+02 -0.51826169989E+02  0.76872757283E+03  0.78120341229E+03  0.12499794267E+03 0.  0.
          2    1    1    2  501    0 -0.18735496567E+02  0.42890905079E+02  0.19564694684E+03  0.20116753311E+03  0.00000000000E+00 0. -1.
          1    1    1    2  502    0  0.50770673644E+02  0.89352649096E+01  0.71739832701E+03  0.71924812120E+03  0.00000000000E+00 0. -1.
         22    1    3    3    0    0  0.29685307116E+02 -0.68168946250E+02  0.45639257246E+03  0.46240934559E+03  0.00000000000E+00 0. -1.
         22    1    3    3    0    0 -0.61720484192E+02  0.16342776261E+02  0.31233500037E+03  0.31879406670E+03  0.00000000000E+00 0. -1.
</event>
<event>
 7    1  0.7118985E-006  0.7716189E+02  0.7818608E-02  0.1419987E+00
          2   -1    0    0  502    0  0.00000000000E+00  0.00000000000E+00  0.66966204908E+03  0.66966204908E+03  0.00000000000E+00 0. -1.
          1   -1    0    0  501    0 -0.00000000000E+00 -0.00000000000E+00 -0.16809151441E+03  0.16809151441E+03  0.00000000000E+00 0. -1.
         25    2    1    2    0    0  0.27336460353E+02  0.29194647841E+02 -0.74832102311E+00  0.13124593220E+03  0.12500130083E+03 0.  0.
          2    1    1    2  501    0  0.18958383970E+02  0.34352973372E+02 -0.95653709811E+02  0.10338848728E+03  0.00000000000E+00 0. -1.
          1    1    1    2  502    0 -0.46294844323E+02 -0.63547621214E+02  0.59797256550E+03  0.60311914401E+03  0.00000000000E+00 0. -1.
         22    1    3    3    0    0  0.61758508674E+02  0.15871678670E+02 -0.41641861487E+02  0.76158178848E+02  0.00000000000E+00 0.  1.
         22    1    3    3    0    0 -0.34422048321E+02  0.13322969172E+02  0.40893540464E+02  0.55087753356E+02  0.00000000000E+00 0.  1.
</event>
<event>
 7    1  0.7118985E-006  0.8638295E+02  0.7818608E-02  0.1329818E+00
          2   -1    0    0  502    0  0.00000000000E+00  0.00000000000E+00  0.21645381380E+04  0.21645381380E+04  0.00000000000E+00 0. -1.
          1   -1    0    0  501    0 -0.00000000000E+00 -0.00000000000E+00 -0.88804513041E+02  0.88804513041E+02  0.00000000000E+00 0. -1.
         25    2    1    2    0    0  0.87421999103E+02 -0.71656834493E+02  0.26662084175E+03  0.31542028206E+03  0.12500389283E+03 0.  0.
          2    1    1    2  501    0 -0.86133556824E+02 -0.19223637151E+01 -0.34525917680E+02  0.92815537950E+02  0.00000000000E+00 0. -1.
          1    1    1    2  502    0 -0.12884422788E+01  0.73579198208E+02  0.18436387009E+04  0.18451068310E+04  0.00000000000E+00 0. -1.
         22    1    3    3    0    0  0.88761676023E+02 -0.16789712793E+02  0.79231091675E+02  0.12015862630E+03  0.00000000000E+00 0.  1.
         22    1    3    3    0    0 -0.13396769204E+01 -0.54867121700E+02  0.18738975007E+03  0.19526165576E+03  0.00000000000E+00 0.  1.
</event>
<event>
 7    1  0.7118985E-006  0.1354025E+03  0.7818608E-02  0.1245622E+00
          2   -1    0    0  502    0  0.00000000000E+00  0.00000000000E+00  0.20171432641E+04  0.20171432641E+04  0.00000000000E+00 0. -1.
          1   -1    0    0  501    0 -0.00000000000E+00 -0.00000000000E+00 -0.46140335551E+03  0.46140335551E+03  0.00000000000E+00 0. -1.
         25    2    1    2    0    0  0.17127297090E+03 -0.13447495906E+03 -0.14957069412E+03  0.29225749121E+03  0.12500041381E+03 0.  0.
          2    1    1    2  501    0 -0.10603976391E+03  0.53893251072E+02 -0.22430358443E+03  0.25389173289E+03  0.00000000000E+00 0. -1.
          1    1    1    2  502    0 -0.65233206988E+02  0.80581707986E+02  0.19296141871E+04  0.19323973955E+04  0.00000000000E+00 0. -1.
         22    1    3    3    0    0  0.15402224942E+03 -0.13487822144E+03 -0.78733493378E+02  0.21934892504E+03  0.00000000000E+00 0. -1.
         22    1    3    3    0    0  0.17250721474E+02  0.40326238196E+00 -0.70837200738E+02  0.72908566166E+02  0.00000000000E+00 0. -1.
</event>
<event>
 7    1  0.7118985E-006  0.3008847E+03  0.7818608E-02  0.1156189E+00
          2   -1    0    0  502    0  0.00000000000E+00  0.00000000000E+00  0.24931587900E+04  0.24931587900E+04  0.00000000000E+00 0. -1.
          1   -1    0    0  501    0 -0.00000000000E+00 -0.00000000000E+00 -0.95774883054E+03  0.95774883054E+03  0.00000000000E+00 0. -1.
         25    2    1    2    0    0 -0.21620988991E+03  0.17275470263E+03  0.13746313506E+04  0.14077750464E+04  0.12501330856E+03 0.  0.
          2    1    1    2  501    0  0.22671122632E+02  0.12110638374E+03 -0.90882464768E+03  0.91713847167E+03  0.00000000000E+00 0. -1.
          1    1    1    2  502    0  0.19353876727E+03 -0.29386108637E+03  0.10696032566E+04  0.11259941025E+04  0.00000000000E+00 0. -1.
         22    1    3    3    0    0  0.15051156618E+02  0.20520617849E+02  0.83525414585E+02  0.87316252520E+02  0.00000000000E+00 0.  1.
         22    1    3    3    0    0 -0.23126104652E+03  0.15223408478E+03  0.12911059360E+04  0.13204587939E+04  0.00000000000E+00 0.  1.
</event>
<event>
 7    1  0.7118985E-006  0.5371496E+02  0.7818608E-02  0.1443276E+00
          2   -1    0    0  502    0  0.00000000000E+00  0.00000000000E+00  0.27416075610E+04  0.27416075610E+04  0.00000000000E+00 0. -1.
          1   -1    0    0  501    0 -0.00000000000E+00 -0.00000000000E+00 -0.36573837228E+02  0.36573837228E+02  0.00000000000E+00 0. -1.
         25    2    1    2    0    0 -0.19739291980E+02  0.94383191357E-01  0.37067316136E+03  0.39167989466E+03  0.12499959509E+03 0.  0.
          2    1    1    2  501    0  0.35729734529E+02 -0.44568403096E+02  0.57495348135E+01  0.57410919123E+02  0.00000000000E+00 0. -1.
          1    1    1    2  502    0 -0.15990442548E+02  0.44474019904E+02  0.23286110276E+04  0.23290905844E+04  0.00000000000E+00 0. -1.
         22    1    3    3    0    0 -0.32831984525E+02 -0.55979593852E+02  0.14652489245E+03  0.16025354362E+03  0.00000000000E+00 0.  1.
         22    1    3    3    0    0  0.13092692545E+02  0.56073977043E+02  0.22414826891E+03  0.23142635104E+03  0.00000000000E+00 0.  1.
</event>
<event>
 7    1  0.7118985E-006  0.4990096E+02  0.7818608E-02  0.1517230E+00
          2   -1    0    0  502    0  0.00000000000E+00  0.00000000000E+00  0.19766045477E+03  0.19766045477E+03  0.00000000000E+00 0. -1.
          1   -1    0    0  501    0 -0.00000000000E+00 -0.00000000000E+00 -0.84674862410E+02  0.84674862410E+02  0.00000000000E+00 0. -1.
         25    2    1    2    0    0  0.30068507348E+02  0.47910133842E+02  0.38799164603E+02  0.14257841788E+03  0.12499493595E+03 0.  0.
          2    1    1    2  501    0 -0.45014278406E+02 -0.21703284035E+02 -0.94382170345E+01  0.50856639086E+02  0.00000000000E+00 0. -1.
          1    1    1    2  502    0  0.14945771058E+02 -0.26206849807E+02  0.83624644795E+02  0.88900260215E+02  0.00000000000E+00 0. -1.
         22    1    3    3    0    0  0.43019722440E+02  0.71037543359E+02 -0.13316462442E+02  0.84109198411E+02  0.00000000000E+00 0. -1.
         22    1    3    3    0    0 -0.12951215092E+02 -0.23127409518E+02  0.52115627045E+02  0.58469219472E+02  0.00000000000E+00 0. -1.
</event>
<event>
 7    1  0.7118985E-006  0.4375167E+02  0.7818608E-02  0.1495982E+00
          2   -1    0    0  502    0  0.00000000000E+00  0.00000000000E+00  0.11793457990E+04  0.11793457990E+04  0.00000000000E+00 0. -1.
          1   -1    0    0  501    0 -0.00000000000E+00 -0.00000000000E+00 -0.15867159003E+03  0.15867159003E+03  0.00000000000E+00 0. -1.
         25    2    1    2    0    0  0.64161013230E+01 -0.19927024275E+01  0.58729296007E+03  0.60047580199E+03  0.12495211328E+03 0.  0.
          2    1    1    2  501    0 -0.98647375096E+01 -0.42625056946E+02 -0.14805576705E+03  0.15438496909E+03  0.00000000000E+00 0. -1.
          1    1    1    2  502    0  0.34486361865E+01  0.44617759374E+02  0.58143701593E+03  0.58315661794E+03  0.00000000000E+00 0. -1.
         22    1    3    3    0    0 -0.22316231710E+02 -0.55857249579E+02  0.36629188412E+03  0.37119777868E+03  0.00000000000E+00 0. -1.
         22    1    3    3    0    0  0.28732333033E+02  0.53864547151E+02  0.22100107595E+03  0.22927802331E+03  0.00000000000E+00 0. -1.
</event>
<event>
 7    1  0.7118985E-006  0.6729927E+02  0.7818608E-02  0.1459112E+00
          2   -1    0    0  502    0  0.00000000000E+00  0.00000000000E+00  0.67995802169E+03  0.67995802169E+03  0.00000000000E+00 0. -1.
          1   -1    0    0  501    0 -0.00000000000E+00 -0.00000000000E+00 -0.19749009712E+04  0.19749009712E+04  0.00000000000E+00 0. -1.
         25    2    1    2    0    0  0.41025240130E+01  0.49551957766E+02 -0.16078621146E+04  0.16134799764E+04  0.12499931015E+03 0.  0.
          2    1    1    2  501    0  0.32901017463E+02  0.66907314639E+01 -0.36177733423E+03  0.36333191767E+03  0.00000000000E+00 0. -1.
          1    1    1    2  502    0 -0.37003541476E+02 -0.56242689230E+02  0.67469649925E+03  0.67804709886E+03  0.00000000000E+00 0. -1.
         22    1    3    3    0    0 -0.36499955896E+02 -0.19005599742E+02 -0.93691019637E+03  0.93781350794E+03  0.00000000000E+00 0. -1.
         22    1    3    3    0    0  0.40602479909E+02  0.68557557508E+02 -0.67095191821E+03  0.67566646847E+03  0.00000000000E+00 0. -1.
</event>
<event>
 7    1  0.7118985E-006  0.5617248E+02  0.7818608E-02  0.1415825E+00
          2   -1    0    0  502    0  0.00000000000E+00  0.00000000000E+00  0.23163931676E+04  0.23163931676E+04  0.00000000000E+00 0. -1.
          1   -1    0    0  501    0 -0.00000000000E+00 -0.00000000000E+00 -0.41395764733E+03  0.41395764733E+03  0.00000000000E+00 0. -1.
         25    2    1    2    0    0 -0.51096594513E+02 -0.46336330514E+01  0.32034651123E+03  0.34767790736E+03  0.12500282989E+03 0.  0.
          2    1    1    2  501    0  0.20560284601E+02  0.52274486821E+02 -0.39791507915E+03  0.40186037064E+03  0.00000000000E+00 0. -1.
          1    1    1    2  502    0  0.30536309912E+02 -0.47640853770E+02  0.19800040882E+04  0.19808125369E+04  0.00000000000E+00 0. -1.
         22    1    3    3    0    0 -0.50239749410E+02  0.52940683373E+02  0.13334305284E+03  0.15201025662E+03  0.00000000000E+00 0.  1.
         22    1    3    3    0    0 -0.85684510295E+00 -0.57574316425E+02  0.18700345839E+03  0.19566765074E+03  0.00000000000E+00 0.  1.
</event>
<event>
 7    1  0.7118985E-006  0.3641637E+02  0.7818608E-02  0.1538619E+00
          2   -1    0    0  502    0  0.00000000000E+00  0.00000000000E+00  0.93083536236E+03  0.93083536236E+03  0.00000000000E+00 0. -1.
          1   -1    0    0  501    0 -0.00000000000E+00 -0.00000000000E+00 -0.16456151818E+03  0.16456151818E+03  0.00000000000E+00 0. -1.
         25    2    1    2    0    0 -0.31449099836E+01 -0.55334479905E+01 -0.21567419012E+02  0.12700890007E+03  0.12500239049E+03 0.  0.
          2    1    1    2  501    0 -0.23078278615E+02  0.30801937084E+02 -0.85774264814E+02  0.94013779715E+02  0.00000000000E+00 0. -1.
          1    1    1    2  502    0  0.26223188599E+02 -0.25268489094E+02  0.87361552801E+03  0.87437420076E+03  0.00000000000E+00 0. -1.
         22    1    3    3    0    0  0.43368163061E+02  0.11739957288E+01 -0.54474030814E+02  0.69639039815E+02  0.00000000000E+00 0.  1.
         22    1    3    3    0    0 -0.46513073045E+02 -0.67074437193E+01  0.32906611801E+02  0.57369860254E+02  0.00000000000E+00 0.  1.
</event>
<event>
 7    1  0.7118985E-006  0.8387500E+02  0.7818608E-02  0.1403355E+00
          2   -1    0    0  502    0  0.00000000000E+00  0.00000000000E+00  0.43535812862E+03  0.43535812862E+03  0.00000000000E+00 0. -1.
          1   -1    0    0  501    0 -0.00000000000E+00 -0.00000000000E+00 -0.26001759135E+03  0.26001759135E+03  0.00000000000E+00 0. -1.
         25    2    1    2    0    0 -0.10294779410E+03 -0.57061279588E+02 -0.48144380356E+02  0.17831748583E+03  0.12500002583E+03 0.  0.
          2    1    1    2  501    0  0.72957422463E+02  0.28978487924E+02 -0.13503307556E+03  0.15619369305E+03  0.00000000000E+00 0. -1.
          1    1    1    2  502    0  0.29990371633E+02  0.28082791664E+02  0.35851799319E+03  0.36086454109E+03  0.00000000000E+00 0. -1.
         22    1    3    3    0    0 -0.61403677194E+02 -0.79861871709E+02  0.12325889118E+02  0.10149018508E+03  0.00000000000E+00 0.  1.
         22    1    3    3    0    0 -0.41544116901E+02  0.22800592121E+02 -0.60470269473E+02  0.76827300749E+02  0.00000000000E+00 0.  1.
</event>
<event>
 7    1  0.7118985E-006  0.4385267E+02  0.7818608E-02  0.1482546E+00
          2   -1    0    0  502    0  0.00000000000E+00  0.00000000000E+00  0.15582417080E+04  0.15582417080E+04  0.00000000000E+00 0. -1.
          1   -1    0    0  501    0 -0.00000000000E+00 -0.00000000000E+00 -0.12225666863E+04  0.12225666863E+04  0.00000000000E+00 0. -1.
         25    2    1    2    0    0  0.70564935296E+02  0.55877574959E+01  0.27155976332E+02  0.14619469000E+03  0.12499922882E+03 0.  0.
          2    1    1    2  501    0 -0.37175735540E+02  0.22725758943E+02 -0.11623134510E+04  0.11631298525E+04  0.00000000000E+00 0. -1.
          1    1    1    2  502    0 -0.33389199756E+02 -0.28313516439E+02  0.14708324964E+04  0.14714838518E+04  0.00000000000E+00 0. -1.
         22    1    3    3    0    0 -0.33277243297E+02  0.14659363151E+02  0.20502820591E+02  0.41744909889E+02  0.00000000000E+00 0. -1.
         22    1    3    3    0    0  0.10384217859E+03 -0.90716056553E+01  0.66531557412E+01  0.10444978011E+03  0.00000000000E+00 0. -1.
</event>
<event>
 7    1  0.7118985E-006  0.1146525E+03  0.7818608E-02  0.1393814E+00
          2   -1    0    0  502    0  0.00000000000E+00  0.00000000000E+00  0.11336910463E+03  0.11336910463E+03  0.00000000000E+00 0. -1.
          1   -1    0    0  501    0 -0.00000000000E+00 -0.00000000000E+00 -0.54130082851E+03  0.54130082851E+03  0.00000000000E+00 0. -1.
         25    2    1    2    0    0 -0.68161900370E+02 -0.63654469246E+02 -0.20324438456E+03  0.25618610076E+03  0.12500040900E+03 0.  0.
          2    1    1    2  501    0  0.96529144394E+02  0.79351306517E+02 -0.29537317083E+03  0.32071765715E+03  0.00000000000E+00 0. -1.
          1    1    1    2  502    0 -0.28367244024E+02 -0.15696837271E+02  0.70685831511E+02  0.77766175232E+02  0.00000000000E+00 0. -1.
         22    1    3    3    0    0 -0.30660963442E+02 -0.24832672353E+02 -0.19807074821E+03  0.20196231726E+03  0.00000000000E+00 0.  1.
         22    1    3    3    0    0 -0.37500936928E+02 -0.38821796893E+02 -0.51736363515E+01  0.54223783505E+02  0.00000000000E+00 0.  1.
</event>
<event>
 7    1  0.7118985E-006  0.7640513E+02  0.7818608E-02  0.1424435E+00
          2   -1    0    0  502    0  0.00000000000E+00  0.00000000000E+00  0.28710044272E+04  0.28710044272E+04  0.00000000000E+00 0. -1.
          1   -1    0    0  501    0 -0.00000000000E+00 -0.00000000000E+00 -0.11014676670E+02  0.11014676670E+02  0.00000000000E+00 0. -1.
         25    2    1    2    0    0  0.14691156872E+02  0.88604169948E+02  0.78579631388E+03  0.80072532290E+03  0.12497466465E+03 0.  0.
          2    1    1    2  501    0 -0.40206727498E+02 -0.60044982696E+02  0.38839067456E+03  0.39505606813E+03  0.00000000000E+00 0. -1.
          1    1    1    2  502    0  0.25515570626E+02 -0.28559187253E+02  0.16858027621E+04  0.16862377129E+04  0.00000000000E+00 0. -1.
         22    1    3    3    0    0  0.40646443320E+02  0.75133701891E+02  0.74836909003E+03  0.75322871787E+03  0.00000000000E+00 0.  1.
         22    1    3    3    0    0 -0.25955286448E+02  0.13470468057E+02  0.37427223856E+02  0.47496605035E+02  0.00000000000E+00 0.  1.
</event>
<event>
 7    1  0.7118985E-006  0.4629294E+02  0.7818608E-02  0.1542923E+00
          2   -1    0    0  502    0  0.00000000000E+00  0.00000000000E+00  0.22583930328E+04  0.22583930328E+04  0.00000000000E+00 0. -1.
          1   -1    0    0  501    0 -0.00000000000E+00 -0.00000000000E+00 -0.11027977016E+04  0.11027977016E+04  0.00000000000E+00 0. -1.
         25    2    1    2    0    0 -0.14443734580E+02  0.25848013663E+02  0.34088637839E+03  0.36428795715E+03  0.12500180590E+03 0.  0.
          2    1    1    2  501    0  0.17856302469E+02  0.20848803258E+02 -0.10906366150E+04  0.10909820100E+04  0.00000000000E+00 0. -1.
          1    1    1    2  502    0 -0.34125678893E+01 -0.46696816921E+02  0.19053455678E+04  0.19059207673E+04  0.00000000000E+00 0. -1.
         22    1    3    3    0    0  0.19436216907E+02 -0.43236651846E+02  0.88015040912E+02  0.99969105314E+02  0.00000000000E+00 0. -1.
         22    1    3    3    0    0 -0.33879951487E+02  0.69084665509E+02  0.25287133748E+03  0.26431885184E+03  0.00000000000E+00 0. -1.
</event>
<event>
 7    1  0.7118985E-006  0.8282813E+02  0.7818608E-02  0.1392873E+00
          2   -1    0    0  502    0  0.00000000000E+00  0.00000000000E+00  0.21400261144E+04  0.21400261144E+04  0.00000000000E+00 0. -1.
          1   -1    0    0  501    0 -0.00000000000E+00 -0.00000000000E+00 -0.11784154986E+03  0.11784154986E+03  0.00000000000E+00 0. -1.
         25    2    1    2    0    0 -0.67364567075E+02 -0.10209485307E+03  0.52117340059E+03  0.54973496192E+03  0.12500188378E+03 0.  0.
          2    1    1    2  501    0  0.12815142659E+02  0.43362024361E+02 -0.97572758024E+02  0.10754039309E+03  0.00000000000E+00 0. -1.
          1    1    1    2  502    0  0.54549424416E+02  0.58732828707E+02  0.15985839220E+04  0.16005923093E+04  0.00000000000E+00 0. -1.
         22    1    3    3    0    0  0.28332865998E+01  0.24347896124E+02  0.36675195630E+02  0.44112555277E+02  0.00000000000E+00 0. -1.
         22    1    3    3    0    0 -0.70197853674E+02 -0.12644274919E+03  0.48449820496E+03  0.50562240664E+03  0.00000000000E+00 0. -1.
</event>
<event>
 7    1  0.7118985E-006  0.1474305E+03  0.7818608E-02  0.1242348E+00
          2   -1    0    0  502    0  0.00000000000E+00  0.00000000000E+00  0.26364302088E+04  0.26364302088E+04  0.00000000000E+00 0. -1.
          1   -1    0    0  501    0 -0.00000000000E+00 -0.00000000000E+00 -0.29147694781E+03  0.29147694781E+03  0.00000000000E+00 0. -1.
         25    2    1    2    0    0  0.13587440467E+03  0.19977710832E+03  0.41747003992E+03  0.49827412870E+03  0.12499250476E+03 0.  0.
          2    1    1    2  501    0 -0.81896230648E+02 -0.11748485009E+03 -0.22943931186E+03  0.27046641274E+03  0.00000000000E+00 0. -1.
          1    1    1    2  502    0 -0.53978174025E+02 -0.82292258229E+02  0.21569225330E+04  0.21591666152E+04  0.00000000000E+00 0. -1.
         22    1    3    3    0    0  0.46178318776E+02  0.15153272538E+03  0.17938084147E+03  0.23931587969E+03  0.00000000000E+00 0. -1.
         22    1    3    3    0    0  0.89696085897E+02  0.48244382940E+02  0.23808919845E+03  0.25895824901E+03  0.00000000000E+00 0. -1.
</event>
<event>
 7    1  0.7118985E-006  0.7542346E+02  0.7818608E-02  0.1344619E+00
          2   -1    0    0  502    0  0.00000000000E+00  0.00000000000E+00  0.12400935626E+04  0.12400935626E+04  0.00000000000E+00 0. -1.
          1   -1    0    0  501    0 -0.00000000000E+00 -0.00000000000E+00 -0.33156196654E+03  0.33156196654E+03  0.00000000000E+00 0. -1.
         25    2    1    2    0    0 -0.83542862397E+02  0.98429765692E+02  0.36955124823E+03  0.41092444840E+03  0.12499179410E+03 0.  0.
          2    1    1    2  501    0  0.70531863458E+02 -0.25480890363E+02 -0.30470497864E+03  0.31379793426E+03  0.00000000000E+00 0. -1.
          1    1    1    2  502    0  0.13010998939E+02 -0.72948875329E+02  0.84368532649E+03  0.84693314649E+03  0.00000000000E+00 0. -1.
         22    1    3    3    0    0 -0.22147979346E+02 -0.28596130580E+02  0.10576515824E+03  0.11177898000E+03  0.00000000000E+00 0.  1.
         22    1    3    3    0    0 -0.61394883051E+02  0.12702589627E+03  0.26378608999E+03  0.29914546840E+03  0.00000000000E+00 0.  1.
</event>
<event>
 7    1  0.7118985E-006  0.1243730E+03  0.7818608E-02  0.1237366E+00
          2   -1    0    0  502    0  0.00000000000E+00  0.00000000000E+00  0.12914475400E+04  0.12914475400E+04  0.00000000000E+00 0. -1.
          1   -1    0    0  501    0 -0.00000000000E+00 -0.00000000000E+00 -0.46338377001E+03  0.46338377001E+03  0.00000000000E+00 0. -1.
         25    2    1    2    0    0 -0.91154078866E+02  0.89736725451E+02  0.22681870951E+03  0.28884857670E+03  0.12500010917E+03 0.  0.
          2    1    1    2  501    0  0.11892592145E+03  0.36404361132E+02 -0.41926906291E+03  0.43732733669E+03  0.00000000000E+00 0. -1.
          1    1    1    2  502    0 -0.27771842579E+02 -0.12614108658E+03  0.10205141233E+04  0.10286553966E+04  0.00000000000E+00 0. -1.
         22    1    3    3    0    0 -0.40738361705E+02  0.48545587105E+02  0.12154507820E+02  0.64529219755E+02  0.00000000000E+00 0.  1.
         22    1    3    3    0    0 -0.50415717161E+02  0.41191138346E+02  0.21466420169E+03  0.22431935695E+03  0.00000000000E+00 0.  1.
</event>
<event>
 7    1  0.7118985E-006  0.1575552E+03  0.7818608E-02  0.1365799E+00
          2   -1    0    0  502    0  0.00000000000E+00  0.00000000000E+00  0.25433511099E+03  0.25433511099E+03  0.00000000000E+00 0. -1.
          1   -1    0    0  501    0 -0.00000000000E+00 -0.00000000000E+00 -0.55532581444E+03  0.55532581444E+03  0.00000000000E+00 0. -1.
         25    2    1    2    0    0  0.17380583612E+03 -0.25738795066E+02  0.57640620979E+02  0.22320513109E+03  0.12500854017E+03 0.  0.
          2    1    1    2  501    0 -0.15600176760E+03  0.20288539798E+01 -0.45742985596E+03  0.48330398391E+03  0.00000000000E+00 0. -1.
          1    1    1    2  502    0 -0.17804068521E+02  0.23709941087E+02  0.98798531530E+02  0.10315181043E+03  0.00000000000E+00 0. -1.
         22    1    3    3    0    0  0.53879755609E+02 -0.58234559525E+02 -0.12820894758E+02  0.80365834344E+02  0.00000000000E+00 0.  1.
         22    1    3    3    0    0  0.11992608051E+03  0.32495764458E+02  0.70461515736E+02  0.14283929674E+03  0.00000000000E+00 0.  1.
</event>
<event>
 7    1  0.7118985E-006  0.8674018E+02  0.7818608E-02  0.1321974E+00
          2   -1    0    0  502    0  0.00000000000E+00  0.00000000000E+00  0.28428070046E+03  0.28428070046E+03  0.00000000000E+00 0. -1.
          1   -1    0    0  501    0 -0.00000000000E+00 -0.00000000000E+00 -0.69035873954E+03  0.69035873954E+03  0.00000000000E+00 0. -1.
         25    2    1    2    0    0  0.15531867775E+02  0.21150963923E+02 -0.14625594867E+03  0.19417483010E+03  0.12499783971E+03 0.  0.
          2    1    1    2  501    0  0.55071000199E+02 -0.71540392482E+02 -0.50883214451E+03  0.51677944436E+03  0.00000000000E+00 0. -1.
          1    1    1    2  502    0 -0.70602867974E+02  0.50389428559E+02  0.24901005411E+03  0.26368516554E+03  0.00000000000E+00 0. -1.
         22    1    3    3    0    0  0.48796098735E+02 -0.26818807015E+02 -0.11543726670E+03  0.12816423138E+03  0.00000000000E+00 0. -1.
         22    1    3    3    0    0 -0.33264230960E+02  0.47969770938E+02 -0.30818681969E+02  0.66010598721E+02  0.00000000000E+00 0. -1.
</event>
<event>
 7    1  0.7118985E-006  0.7827731E+02  0.7818608E-02  0.1393373E+00
          2   -1    0    0  502    0  0.00000000000E+00  0.00000000000E+00  0.21976554283E+03  0.21976554283E+03  0.00000000000E+00 0. -1.
          1   -1    0    0  501    0 -0.00000000000E+00 -0.00000000000E+00 -0.50501208790E+03  0.50501208790E+03  0.00000000000E+00 0. -1.
         25    2    1    2    0    0 -0.17878639677E+02 -0.64166230995E+02 -0.29020212959E+02  0.14457630917E+03  0.12499274161E+03 0.  0.
          2    1    1    2  501    0  0.46180291908E+02 -0.11758957045E+02 -0.40660161920E+03  0.40938462254E+03  0.00000000000E+00 0. -1.
          1    1    1    2  502    0 -0.28301652231E+02  0.75925188040E+02  0.15037528709E+03  0.17081669903E+03  0.00000000000E+00 0. -1.
         22    1    3    3    0    0 -0.60731882471E+02 -0.75887473890E+02 -0.20689116927E+02  0.99374593338E+02  0.00000000000E+00 0.  1.
         22    1    3    3    0    0  0.42853242794E+02  0.11721242895E+02 -0.83310960322E+01  0.45201715831E+02  0.00000000000E+00 0.  1.
</event>
<event>
 7    1  0.7118985E-006  0.6774806E+02  0.7818608E-02  0.1419523E+00
          2   -1    0    0  502    0  0.00000000000E+00  0.00000000000E+00  0.23824124632E+03  0.23824124632E+03  0.00000000000E+00 0. -1.
          1   -1    0    0  501    0 -0.00000000000E+00 -0.00000000000E+00 -0.23465648905E+03  0.23465648905E+03  0.00000000000E+00 0. -1.
         25    2    1    2    0    0 -0.29034662435E+01 -0.37877382556E+02 -0.89606051750E+01  0.13095236829E+03  0.12500041636E+03 0.  0.
          2    1    1    2  501    0 -0.40744615080E+02 -0.18743270029E+02 -0.15416301335E+03  0.16055425411E+03  0.00000000000E+00 0. -1.
          1    1    1    2  502    0  0.43648081324E+02  0.56620652585E+02  0.16670837579E+03  0.18139111296E+03  0.00000000000E+00 0. -1.
         22    1    3    3    0    0  0.19849778813E+01 -0.75920504801E+02 -0.35976952716E+02  0.84036922321E+02  0.00000000000E+00 0.  1.
         22    1    3    3    0    0 -0.48884441249E+01  0.38043122245E+02  0.27016347542E+02  0.46915445971E+02  0.00000000000E+00 0.  1.
</event>
<event>
 7    1  0.7118985E-006  0.1932151E+03  0.7818608E-02  0.1371978E+00
          2   -1    0    0  502    0  0.00000000000E+00  0.00000000000E+00  0.51166224520E+03  0.51166224520E+03  0.00000000000E+00 0. -1.
          1   -1    0    0  501    0 -0.00000000000E+00 -0.00000000000E+00 -0.76665961319E+03  0.76665961319E+03  0.00000000000E+00 0. -1.
         25    2    1    2    0    0 -0.17559671652E+03  0.12154199733E+03 -0.20842115221E+03  0.32353080630E+03  0.12500456780E+03 0.  0.
          2    1    1    2  501    0  0.21854447560E+02 -0.70734312541E+01 -0.48017048638E+03  0.48071961298E+03  0.00000000000E+00 0. -1.
          1    1    1    2  502    0  0.15374226896E+03 -0.11446856607E+03  0.43359427060E+03  0.47407143911E+03  0.00000000000E+00 0. -1.
         22    1    3    3    0    0 -0.19508741362E+03  0.10625827248E+03 -0.18073757957E+03  0.28638434331E+03  0.00000000000E+00 0.  1.
         22    1    3    3    0    0  0.19490697102E+02  0.15283724848E+02 -0.27683572644E+02  0.37146462996E+02  0.00000000000E+00 0.  1.
</event>
<event>
 7    1  0.7118985E-006  0.2060749E+03  0.7818608E-02  0.1268451E+00
          2   -1    0    0  502    0  0.00000000000E+00  0.00000000000E+00  0.14511298409E+04  0.14511298409E+04  0.00000000000E+00 0. -1.
          1   -1    0    0  501    0 -0.00000000000E+00 -0.00000000000E+00 -0.23370660160E+03  0.23370660160E+03  0.00000000000E+00 0. -1.
         25    2    1    2    0    0  0.17789532323E+03  0.30190343545E+02  0.68216398485E+02  0.22986439394E+03  0.12500383878E+03 0.  0.
          2    1    1    2  501    0 -0.22095601771E+03  0.30061329348E+01 -0.72110788756E+02  0.23244475570E+03  0.00000000000E+00 0. -1.
          1    1    1    2  502    0  0.43060694480E+02 -0.33196476480E+02  0.12213176296E+04  0.12225272929E+04  0.00000000000E+00 0. -1.
         22    1    3    3    0    0  0.19485512479E+03  0.28706960120E+02  0.46685108194E+02  0.20241568255E+03  0.00000000000E+00 0.  1.
         22    1    3    3    0    0 -0.16959801561E+02  0.14833834257E+01  0.21531290291E+02  0.27448711390E+02  0.00000000000E+00 0.  1.
</event>
<event>
 7    1  0.7118985E-006  0.6498059E+02  0.7818608E-02  0.1402150E+00
          2   -1    0    0  502    0  0.00000000000E+00  0.00000000000E+00  0.15559796274E+03  0.15559796274E+03  0.00000000000E+00 0. -1.
          1   -1    0    0  501    0 -0.00000000000E+00 -0.00000000000E+00 -0.80046450599E+03  0.80046450599E+03  0.00000000000E+00 0. -1.
         25    2    1    2    0    0  0.88977243759E+02  0.35144326426E+02 -0.22907978365E+03  0.27794851724E+03  0.12500302947E+03 0.  0.
          2    1    1    2  501    0 -0.50830817679E+02  0.16811958526E+02 -0.53762088507E+03  0.54028014033E+03  0.00000000000E+00 0. -1.
          1    1    1    2  502    0 -0.38146426080E+02 -0.51956284952E+02  0.12183412547E+03  0.13783381116E+03  0.00000000000E+00 0. -1.
         22    1    3    3    0    0  0.65029682738E+02  0.42553535971E+02 -0.40358760973E+02  0.87569930044E+02  0.00000000000E+00 0. -1.
         22    1    3    3    0    0  0.23947561020E+02 -0.74092095451E+01 -0.18872102267E+03  0.19037858720E+03  0.00000000000E+00 0. -1.
</event>
<event>
 7    1  0.7118985E-006  0.6101006E+02  0.7818608E-02  0.1436390E+00
          2   -1    0    0  502    0  0.00000000000E+00  0.00000000000E+00  0.19127797505E+04  0.19127797505E+04  0.00000000000E+00 0. -1.
          1   -1    0    0  501    0 -0.00000000000E+00 -0.00000000000E+00 -0.18116611127E+04  0.18116611127E+04  0.00000000000E+00 0. -1.
         25    2    1    2    0    0 -0.11533574031E+01  0.20236693690E+02  0.11776465270E+03  0.17292973818E+03  0.12500130766E+03 0.  0.
          2    1    1    2  501    0  0.29691471911E+02 -0.53474168187E+02 -0.17832827189E+04  0.17843313385E+04  0.00000000000E+00 0. -1.
          1    1    1    2  502    0 -0.28538114508E+02  0.33237474497E+02  0.17666367041E+04  0.17671797865E+04  0.00000000000E+00 0. -1.
         22    1    3    3    0    0  0.11466134040E+02 -0.48622161786E+02  0.22703505986E+02  0.54872907984E+02  0.00000000000E+00 0.  1.
         22    1    3    3    0    0 -0.12619491443E+02  0.68858855476E+02  0.95061146710E+02  0.11805683019E+03  0.00000000000E+00 0.  1.
</event>
<event>
 7    1  0.7118985E-006  0.8202631E+02  0.7818608E-02  0.1391944E+00
          2   -1    0    0  502    0  0.00000000000E+00  0.00000000000E+00  0.18185425259E+03  0.18185425259E+03  0.00000000000E+00 0. -1.
          1   -1    0    0  501    0 -0.00000000000E+00 -0.00000000000E+00 -0.31563652420E+03  0.31563652420E+03  0.00000000000E+00 0. -1.
         25    2    1    2    0    0 -0.93398644359E+02  0.39962616191E+02  0.46395202780E+01  0.16114273088E+03  0.12500054843E+03 0.  0.
          2    1    1    2  501    0  0.81046119689E+02  0.43466654357E+01 -0.22451609214E+03  0.23873592659E+03  0.00000000000E+00 0. -1.
          1    1    1    2  502    0  0.12352524671E+02 -0.44309281627E+02  0.86094300245E+02  0.97612119323E+02  0.00000000000E+00 0. -1.
         22    1    3    3    0    0 -0.87950977876E+02  0.55369440900E+02 -0.41718155455E+02  0.11198907978E+03  0.00000000000E+00 0. -1.
         22    1    3    3    0    0 -0.54476664834E+01 -0.15406824709E+02  0.46357675733E+02  0.49153651107E+02  0.00000000000E+00 0. -1.
</event>
<event>
 7    1  0.7118985E-006  0.1063265E+03  0.7818608E-02  0.1347426E+00
          2   -1    0    0  502    0  0.00000000000E+00  0.00000000000E+00  0.15770091693E+03  0.15770091693E+03  0.00000000000E+00 0. -1.
          1   -1    0    0  501    0 -0.00000000000E+00 -0.00000000000E+00 -0.12911947738E+04  0.12911947738E+04  0.00000000000E+00 0. -1.
         25    2    1    2    0    0  0.59935721385E+02  0.44953469603E+02 -0.17845836593E+03  0.23040079996E+03  0.12499614043E+03 0.  0.
          2    1    1    2  501    0 -0.51112240469E+01  0.51057303688E+02 -0.10628380764E+04  0.10640760074E+04  0.00000000000E+00 0. -1.
          1    1    1    2  502    0 -0.54824497338E+02 -0.96010773291E+02  0.10780258549E+03  0.15441888335E+03  0.00000000000E+00 0. -1.
         22    1    3    3    0    0  0.78675072283E+02  0.73802933765E+02 -0.11161372145E+03  0.15522326774E+03  0.00000000000E+00 0.  1.
         22    1    3    3    0    0 -0.18739350899E+02 -0.28849464162E+02 -0.66844644478E+02  0.75177532215E+02  0.00000000000E+00 0.  1.
</event>
<event>
 7    1  0.7118985E-006  0.6162334E+02  0.7818608E-02  0.1531699E+00
          2   -1    0    0  502    0  0.00000000000E+00  0.00000000000E+00  0.24152463594E+03  0.24152463594E+03  0.00000000000E+00 0. -1.
          1   -1    0    0  501    0 -0.00000000000E+00 -0.00000000000E+00 -0.37906229732E+03  0.37906229732E+03  0.00000000000E+00 0. -1.
         25    2    1    2    0    0 -0.18637715848E+02 -0.77529298164E+02 -0.18754181476E+03  0.23906993340E+03  0.12499737696E+03 0.  0.
          2    1    1    2  501    0  0.17490914604E+02  0.55368748986E+02 -0.16006884640E+03  0.17027526551E+03  0.00000000000E+00 0. -1.
          1    1    1    2  502    0  0.11468012444E+01  0.22160549178E+02  0.21007299978E+03  0.21124173434E+03  0.00000000000E+00 0. -1.
         22    1    3    3    0    0  0.28031014095E+02 -0.94489884330E+02 -0.12176532137E+03  0.15665525679E+03  0.00000000000E+00 0.  1.
         22    1    3    3    0    0 -0.46668729943E+02  0.16960586166E+02 -0.65776493389E+02  0.82414676606E+02  0.00000000000E+00 0.  1.
</event>
<event>
 7    1  0.7118985E-006  0.2288176E+03  0.7818608E-02  0.1293152E+00
          2   -1    0    0  502    0  0.00000000000E+00  0.00000000000E+00  0.16870635477E+04  0.16870635477E+04  0.00000000000E+00 0. -1.
          1   -1    0    0  501    0 -0.00000000000E+00 -0.00000000000E+00 -0.84291900798E+02  0.84291900798E+02  0.00000000000E+00 0. -1.
         25    2    1    2    0    0  0.20457174211E+03 -0.70047510882E+02  0.28503846589E+03  0.37898246716E+03  0.12499812771E+03 0.  0.
          2    1    1    2  501    0 -0.23926482294E+03  0.52850812654E+02  0.36958372177E+03  0.44343318695E+03  0.00000000000E+00 0. -1.
          1    1    1    2  502    0  0.34693080831E+02  0.17196698229E+02  0.94814945928E+03  0.94893979441E+03  0.00000000000E+00 0. -1.
         22    1    3    3    0    0  0.59568287257E+02 -0.54327141192E+01  0.89128378407E+01  0.60475895263E+02  0.00000000000E+00 0. -1.
         22    1    3    3    0    0  0.14500345485E+03 -0.64614796763E+02  0.27612562805E+03  0.31850657190E+03  0.00000000000E+00 0. -1.
</event>
<event>
 7    1  0.7118985E-006  0.9151215E+02  0.7818608E-02  0.1305176E+00
          2   -1    0    0  502    0  0.00000000000E+00  0.00000000000E+00  0.35342627680E+03  0.35342627680E+03  0.00000000000E+00 0. -1.
          1   -1    0    0  501    0 -0.00000000000E+00 -0.00000000000E+00 -0.13626362094E+04  0.13626362094E+04  0.00000000000E+00 0. -1.
         25    2    1    2    0    0 -0.60710725496E+02 -0.34444902881E+02  0.13349560152E+03  0.19575236446E+03  0.12500267615E+03 0.  0.
          2    1    1    2  501    0 -0.46668967474E+02  0.73006041683E+02 -0.13127113903E+04  0.13155679644E+04  0.00000000000E+00 0. -1.
          1    1    1    2  502    0  0.10737969297E+03 -0.38561138802E+02  0.17000585616E+03  0.20474215740E+03  0.00000000000E+00 0. -1.
         22    1    3    3    0    0  0.83806798476E+01  0.39305409001E+02  0.24276861951E+02  0.46952284265E+02  0.00000000000E+00 0. -1.
         22    1    3    3    0    0 -0.69091405344E+02 -0.73750311882E+02  0.10921873957E+03  0.14880008020E+03  0.00000000000E+00 0. -1.
</event>
<event>
 7    1  0.7118985E-006  0.7328558E+02  0.7818608E-02  0.1407136E+00
          2   -1    0    0  502    0  0.00000000000E+00  0.00000000000E+00  0.57985219095E+03  0.57985219095E+03  0.00000000000E+00 0. -1.
          1   -1    0    0  501    0 -0.00000000000E+00 -0.00000000000E+00 -0.33425312687E+03  0.33425312687E+03  0.00000000000E+00 0. -1.
         25    2    1    2    0    0  0.39219065771E+01 -0.28494679588E+02  0.15611449811E+03  0.20205791103E+03  0.12501333838E+03 0.  0.
          2    1    1    2  501    0 -0.83318481367E+01  0.73927535068E+02 -0.30550308130E+03  0.31443096670E+03  0.00000000000E+00 0. -1.
          1    1    1    2  502    0  0.44099415596E+01 -0.45432855480E+02  0.39498764727E+03  0.39761644010E+03  0.00000000000E+00 0. -1.
         22    1    3    3    0    0  0.54609648664E+02 -0.83854601050E+00  0.27656832177E+02  0.61219418918E+02  0.00000000000E+00 0.  1.
         22    1    3    3    0    0 -0.50687742087E+02 -0.27656133578E+02  0.12845766594E+03  0.14083849211E+03  0.00000000000E+00 0.  1.
</event>
<event>
 7    1  0.7118985E-006  0.4574725E+02  0.7818608E-02  0.1550755E+00
          2   -1    0    0  502    0  0.00000000000E+00  0.00000000000E+00  0.61386614813E+02  0.61386614813E+02  0.00000000000E+00 0. -1.
          1   -1    0    0  501    0 -0.00000000000E+00 -0.00000000000E+00 -0.20520731010E+03  0.20520731010E+03  0.00000000000E+00 0. -1.
         25    2    1    2    0    0  0.42148208102E+02  0.10477535064E+02 -0.39844327044E+02  0.13819678763E+03  0.12499812610E+03 0.  0.
          2    1    1    2  501    0 -0.44585137151E+02  0.15819248771E+02 -0.53406959751E+02  0.71346944127E+02  0.00000000000E+00 0. -1.
          1    1    1    2  502    0  0.24369290495E+01 -0.26296783836E+02 -0.50569408498E+02  0.57050193156E+02  0.00000000000E+00 0. -1.
         22    1    3    3    0    0  0.75118105948E+02 -0.28765289916E+02 -0.30897196444E+02  0.86167328456E+02  0.00000000000E+00 0. -1.
         22    1    3    3    0    0 -0.32969897846E+02  0.39242824981E+02 -0.89471306002E+01  0.52029459179E+02  0.00000000000E+00 0. -1.
</event>
<event>
 7    1  0.7118985E-006  0.1506998E+03  0.7818608E-02  0.1299359E+00
          2   -1    0    0  502    0  0.00000000000E+00  0.00000000000E+00  0.14288423960E+04  0.14288423960E+04  0.00000000000E+00 0. -1.
          1   -1    0    0  501    0 -0.00000000000E+00 -0.00000000000E+00 -0.27145861791E+03  0.27145861791E+03  0.00000000000E+00 0. -1.
         25    2    1    2    0    0 -0.16614357009E+03  0.86042470495E+02  0.42551215827E+03  0.48134419711E+03  0.12499858658E+03 0.  0.
          2    1    1    2  501    0  0.14502597048E+03 -0.34712023372E+02 -0.21983089539E+03  0.26563711949E+03  0.00000000000E+00 0. -1.
          1    1    1    2  502    0  0.21117599606E+02 -0.51330447123E+02  0.95170251524E+03  0.95331969734E+03  0.00000000000E+00 0. -1.
         22    1    3    3    0    0 -0.35796147747E+02  0.17906838327E+02  0.24617353844E+03  0.24940615486E+03  0.00000000000E+00 0. -1.
         22    1    3    3    0    0 -0.13034742234E+03  0.68135632168E+02  0.17933861983E+03  0.23193804225E+03  0.00000000000E+00 0. -1.
</event>
<event>
 7    1  0.7118985E-006  0.7788042E+02  0.7818608E-02  0.1450720E+00
          2   -1    0    0  502    0  0.00000000000E+00  0.00000000000E+00  0.11780581587E+04  0.11780581587E+04  0.00000000000E+00 0. -1.
          1   -1    0    0  501    0 -0.00000000000E+00 -0.00000000000E+00 -0.26847989226E+03  0.26847989226E+03  0.00000000000E+00 0. -1.
         25    2    1    2    0    0  0.31930113981E+02 -0.50322503396E+02  0.58067461528E+02  0.15016484017E+03  0.12500305040E+03 0.  0.
          2    1    1    2  501    0  0.30713054564E+02  0.29038239111E+01 -0.21991618999E+03  0.22206948132E+03  0.00000000000E+00 0. -1.
          1    1    1    2  502    0 -0.62643168545E+02  0.47418679485E+02  0.10714269949E+04  0.10743037295E+04  0.00000000000E+00 0. -1.
         22    1    3    3    0    0 -0.29115584607E+02 -0.30996778912E+02  0.72936888448E+02  0.84429303363E+02  0.00000000000E+00 0. -1.
         22    1    3    3    0    0  0.61045698588E+02 -0.19325724484E+02 -0.14869426920E+02  0.65735536811E+02  0.00000000000E+00 0. -1.
</event>
<event>
 7    1  0.7118985E-006  0.1191899E+03  0.7818608E-02  0.1259583E+00
          2   -1    0    0  502    0  0.00000000000E+00  0.00000000000E+00  0.10755358876E+03  0.10755358876E+03  0.00000000000E+00 0. -1.
          1   -1    0    0  501    0 -0.00000000000E+00 -0.00000000000E+00 -0.61394851279E+03  0.61394851279E+03  0.00000000000E+00 0. -1.
         25    2    1    2    0    0 -0.16833127515E+02  0.12775998889E+01 -0.87760270375E+02  0.15366327716E+03  0.12500220497E+03 0.  0.
          2    1    1    2  501    0  0.71945077077E+02 -0.10696068154E+03 -0.42923984652E+03  0.44817800855E+03  0.00000000000E+00 0. -1.
          1    1    1    2  502    0 -0.55111949562E+02  0.10568308165E+03  0.10605192862E+02  0.11966081584E+03  0.00000000000E+00 0. -1.
         22    1    3    3    0    0  0.34802508026E+02  0.16962868184E+00 -0.95311301756E+02  0.10146668212E+03  0.00000000000E+00 0. -1.
         22    1    3    3    0    0 -0.51635635541E+02  0.11079712071E+01  0.75510313816E+01  0.52196595031E+02  0.00000000000E+00 0. -1.
</event>
<event>
 7    1  0.7118985E-006  0.8561719E+02  0.7818608E-02  0.1329060E+00
          2   -1    0    0  502    0  0.00000000000E+00  0.00000000000E+00  0.98300103169E+03  0.98300103169E+03  0.00000000000E+00 0. -1.
          1   -1    0    0  501    0 -0.00000000000E+00 -0.00000000000E+00 -0.11723428235E+03  0.11723428235E+03  0.00000000000E+00 0. -1.
         25    2    1    2    0    0 -0.28017282962E+02 -0.33319200767E+02  0.25653817958E+02  0.13482634954E+03  0.12499955547E+03 0.  0.
          2    1    1    2  501    0  0.96939268824E+02  0.62244513944E+02 -0.66113135788E+01  0.11539198769E+03  0.00000000000E+00 0. -1.
          1    1    1    2  502    0 -0.68921985862E+02 -0.28925313177E+02  0.84672424496E+03  0.85001697682E+03  0.00000000000E+00 0. -1.
         22    1    3    3    0    0 -0.17110237360E+02 -0.45920946357E+02 -0.42375271964E+02  0.64785470677E+02  0.00000000000E+00 0. -1.
         22    1    3    3    0    0 -0.10907045602E+02  0.12601745590E+02  0.68029089922E+02  0.70040878859E+02  0.00000000000E+00 0. -1.
</event>
<event>
 7    1  0.7118985E-006  0.8723829E+02  0.7818608E-02  0.1419431E+00
          2   -1    0    0  502    0  0.00000000000E+00  0.00000000000E+00  0.15238218535E+04  0.15238218535E+04  0.00000000000E+00 0. -1.
          1   -1    0    0  501    0 -0.00000000000E+00 -0.00000000000E+00 -0.34136993997E+02  0.34136993997E+02  0.00000000000E+00 0. -1.
         25    2    1    2    0    0 -0.96376288375E+02 -0.39558464683E+02  0.38357731837E+03  0.41666572537E+03  0.12500202575E+03 0.  0.
          2    1    1    2  501    0  0.64483259007E+02  0.53616014981E+02  0.84359529467E+02  0.11895082163E+03  0.00000000000E+00 0. -1.
          1    1    1    2  502    0  0.31893029368E+02 -0.14057550298E+02  0.10217480117E+04  0.10223423005E+04  0.00000000000E+00 0. -1.
         22    1    3    3    0    0 -0.10752429327E+03  0.80936352635E+01  0.20659468315E+03  0.23304150635E+03  0.00000000000E+00 0. -1.
         22    1    3    3    0    0  0.11148004894E+02 -0.47652099947E+02  0.17698263522E+03  0.18362421902E+03  0.00000000000E+00 0. -1.
</event>
<event>
 7    1  0.7118985E-006  0.4174175E+02  0.7818608E-02  0.1526004E+00
          2   -1    0    0  502    0  0.00000000000E+00  0.00000000000E+00  0.21845530261E+04  0.21845530261E+04  0.00000000000E+00 0. -1.
          1   -1    0    0  501    0 -0.00000000000E+00 -0.00000000000E+00 -0.79620738567E+02  0.79620738567E+02  0.00000000000E+00 0. -1.
         25    2    1    2    0    0  0.64096857456E+02  0.35277257894E+02  0.24282226409E+03  0.28274230589E+03  0.12501066970E+03 0.  0.
          2    1    1    2  501    0 -0.31247509244E+02 -0.26446696362E+02 -0.52469463764E+02  0.66549825019E+02  0.00000000000E+00 0. -1.
          1    1    1    2  502    0 -0.32849348213E+02 -0.88305615320E+01  0.19145794873E+04  0.19148816338E+04  0.00000000000E+00 0. -1.
         22    1    3    3    0    0  0.18231438755E+01 -0.40533562070E+02  0.37794001288E+02  0.55449797484E+02  0.00000000000E+00 0. -1.
         22    1    3    3    0    0  0.62273713581E+02  0.75810819964E+02  0.20502826280E+03  0.22729250840E+03  0.00000000000E+00 0. -1.
</event>
<event>
 7    1  0.7118985E-006  0.9551896E+02  0.7818608E-02  0.1367839E+00
          2   -1    0    0  502    0  0.00000000000E+00  0.00000000000E+00  0.14724562915E+04  0.14724562915E+04  0.00000000000E+00 0. -1.
          1   -1    0    0  501    0 -0.00000000000E+00 -0.00000000000E+00 -0.39700060283E+03  0.39700060283E+03  0.00000000000E+00 0. -1.
         25    2    1    2    0    0  0.66421075788E+01 -0.47856074563E+02 -0.47083581600E+02  0.14204394325E+03  0.12500118677E+03 0.  0.
          2    1    1    2  501    0  0.10114433386E+02 -0.47008726071E+02 -0.29888492242E+03  0.30272812710E+03  0.00000000000E+00 0. -1.
          1    1    1    2  502    0 -0.16756540965E+02  0.94864800634E+02  0.14214241927E+04  0.14246848239E+04  0.00000000000E+00 0. -1.
         22    1    3    3    0    0  0.10942956889E+01 -0.19954933301E+01  0.41805763517E+02  0.41867664610E+02  0.00000000000E+00 0.  1.
         22    1    3    3    0    0  0.55478118898E+01 -0.45860581232E+02 -0.88889345117E+02  0.10017627864E+03  0.00000000000E+00 0.  1.
</event>
<event>
 7    1  0.7118985E-006  0.8062388E+02  0.7818608E-02  0.1367299E+00
          2   -1    0    0  502    0  0.00000000000E+00  0.00000000000E+00  0.91705032494E+03  0.91705032494E+03  0.00000000000E+00 0. -1.
          1   -1    0    0  501    0 -0.00000000000E+00 -0.00000000000E+00 -0.95055567442E+03  0.95055567442E+03  0.00000000000E+00 0. -1.
         25    2    1    2    0    0 -0.78305672113E+02 -0.51543516218E+02  0.13168098912E+03  0.20433638182E+03  0.12499984676E+03 0.  0.
          2    1    1    2  501    0 -0.24205478374E+01  0.57173042662E+02 -0.91114215057E+03  0.91293736609E+03  0.00000000000E+00 0. -1.
          1    1    1    2  502    0  0.80726219950E+02 -0.56295264438E+01  0.74595581197E+03  0.75033225145E+03  0.00000000000E+00 0. -1.
         22    1    3    3    0    0  0.92219475591E+01  0.16020526444E+02 -0.12738375763E+02  0.22449227189E+02  0.00000000000E+00 0.  1.
         22    1    3    3    0    0 -0.87527619672E+02 -0.67564042662E+02  0.14441936489E+03  0.18188715463E+03  0.00000000000E+00 0.  1.
</event>
<event>
 7    1  0.7118985E-006  0.6571254E+02  0.7818608E-02  0.1424394E+00
          2   -1    0    0  502    0  0.00000000000E+00  0.00000000000E+00  0.97854817064E+03  0.97854817064E+03  0.00000000000E+00 0. -1.
          1   -1    0    0  501    0 -0.00000000000E+00 -0.00000000000E+00 -0.14565838902E+04  0.14565838902E+04  0.00000000000E+00 0. -1.
         25    2    1    2    0    0  0.92679028612E+02 -0.24443834703E+02 -0.11473737745E+03  0.19487753451E+03  0.12500273707E+03 0.  0.
          2    1    1    2  501    0 -0.27936148198E+02  0.34693314953E+02 -0.13002500147E+04  0.13010127422E+04  0.00000000000E+00 0. -1.
          1    1    1    2  502    0 -0.64742880414E+02 -0.10249480250E+02  0.93695167259E+03  0.93924178420E+03  0.00000000000E+00 0. -1.
         22    1    3    3    0    0  0.47037926578E+02 -0.54515973505E+02 -0.48736783043E+01  0.72168626453E+02  0.00000000000E+00 0. -1.
         22    1    3    3    0    0  0.45641102034E+02  0.30072138802E+02 -0.10986369915E+03  0.12270890806E+03  0.00000000000E+00 0. -1.
</event>
<event>
 7    1  0.7118985E-006  0.1576655E+03  0.7818608E-02  0.1237217E+00
          2   -1    0    0  502    0  0.00000000000E+00  0.00000000000E+00  0.86270589573E+03  0.86270589573E+03  0.00000000000E+00 0. -1.
          1   -1    0    0  501    0 -0.00000000000E+00 -0.00000000000E+00 -0.32751812254E+03  0.32751812254E+03  0.00000000000E+00 0. -1.
         25    2    1    2    0    0 -0.18203771266E+03 -0.10016059122E+03  0.33736898648E+03  0.41546807314E+03  0.12500405551E+03 0.  0.
          2    1    1    2  501    0  0.15580425317E+03  0.68270253125E+01 -0.26195919972E+03  0.30486750548E+03  0.00000000000E+00 0. -1.
          1    1    1    2  502    0  0.26233459497E+02  0.93333565906E+02  0.45977798643E+03  0.46988843966E+03  0.00000000000E+00 0. -1.
         22    1    3    3    0    0 -0.39230399146E+02 -0.73193466782E+02  0.19534450705E+03  0.21226347833E+03  0.00000000000E+00 0. -1.
         22    1    3    3    0    0 -0.14280731352E+03 -0.26967124436E+02  0.14202447942E+03  0.20320459481E+03  0.00000000000E+00 0. -1.
</event>
<event>
 7    1  0.7118985E-006  0.9037222E+02  0.7818608E-02  0.1332450E+00
          2   -1    0    0  502    0  0.00000000000E+00  0.00000000000E+00  0.15894430892E+04  0.15894430892E+04  0.00000000000E+00 0. -1.
          1   -1    0    0  501    0 -0.00000000000E+00 -0.00000000000E+00 -0.64968040559E+03  0.64968040559E+03  0.00000000000E+00 0. -1.
         25    2    1    2    0    0  0.11765418781E+03 -0.10511557024E+03  0.26065838776E+03  0.32933366497E+03  0.12500430695E+03 0.  0.
          2    1    1    2  501    0 -0.62123529755E+02  0.64608534597E+02 -0.61115927738E+03  0.61769673629E+03  0.00000000000E+00 0. -1.
          1    1    1    2  502    0 -0.55530658054E+02  0.40507035640E+02  0.12902635732E+04  0.12920930935E+04  0.00000000000E+00 0. -1.
         22    1    3    3    0    0  0.44524614582E+02 -0.38447816109E+01  0.52278856669E+01  0.44995049037E+02  0.00000000000E+00 0. -1.
         22    1    3    3    0    0  0.73129573227E+02 -0.10127078863E+03  0.25543050210E+03  0.28433861593E+03  0.00000000000E+00 0. -1.
</event>
<event>
 7    1  0.7118985E-006  0.5157726E+02  0.7818608E-02  0.1498672E+00
          2   -1    0    0  502    0  0.00000000000E+00  0.00000000000E+00  0.78372627301E+03  0.78372627301E+03  0.00000000000E+00 0. -1.
          1   -1    0    0  501    0 -0.00000000000E+00 -0.00000000000E+00 -0.65265055320E+03  0.65265055320E+03  0.00000000000E+00 0. -1.
         25    2    1    2    0    0  0.80901912597E+01 -0.83681689646E+02 -0.22375022057E+02  0.15229332494E+03  0.12499815531E+03 0.  0.
          2    1    1    2  501    0 -0.62110096131E+01  0.50622313935E+02 -0.56378329685E+03  0.56608550690E+03  0.00000000000E+00 0. -1.
          1    1    1    2  502    0 -0.18791816466E+01  0.33059375712E+02  0.71723403872E+03  0.71799799438E+03  0.00000000000E+00 0. -1.
         22    1    3    3    0    0  0.66017913573E+02 -0.39737640785E+02 -0.19705696972E+02  0.79534643401E+02  0.00000000000E+00 0.  1.
         22    1    3    3    0    0 -0.57927722313E+02 -0.43944048861E+02 -0.26693250855E+01  0.72758681538E+02  0.00000000000E+00 0.  1.
</event>
<event>
 7    1  0.7118985E-006  0.7795995E+02  0.7818608E-02  0.1362693E+00
          2   -1    0    0  502    0  0.00000000000E+00  0.00000000000E+00  0.26124374027E+03  0.26124374027E+03  0.00000000000E+00 0. -1.
          1   -1    0    0  501    0 -0.00000000000E+00 -0.00000000000E+00 -0.54796551308E+03  0.54796551308E+03  0.00000000000E+00 0. -1.
         25    2    1    2    0    0  0.69993499062E+02 -0.68830472729E+02 -0.42171723565E+03  0.45067418894E+03  0.12500029540E+03 0.  0.
          2    1    1    2  501    0  0.75908195967E+01  0.61026966161E+02 -0.96405156383E+02  0.11434974997E+03  0.00000000000E+00 0. -1.
          1    1    1    2  502    0 -0.77584318659E+02  0.78035065679E+01  0.23140061921E+03  0.24418531444E+03  0.00000000000E+00 0. -1.
         22    1    3    3    0    0 -0.34790694540E+02 -0.32218181345E+02 -0.11000312513E+03  0.11978769208E+03  0.00000000000E+00 0. -1.
         22    1    3    3    0    0  0.10478419360E+03 -0.36612291383E+02 -0.31171411052E+03  0.33088649686E+03  0.00000000000E+00 0. -1.
</event>
<event>
 7    1  0.7118985E-006  0.1258010E+03  0.7818608E-02  0.1321872E+00
          2   -1    0    0  502    0  0.00000000000E+00  0.00000000000E+00  0.61622887470E+03  0.61622887470E+03  0.00000000000E+00 0. -1.
          1   -1    0    0  501    0 -0.00000000000E+00 -0.00000000000E+00 -0.12058872224E+04  0.12058872224E+04  0.00000000000E+00 0. -1.
         25    2    1    2    0    0  0.60467842551E+01 -0.75797307046E+02 -0.31346047333E+03  0.34592334820E+03  0.12499479644E+03 0.  0.
          2    1    1    2  501    0  0.28104226037E+02 -0.46361480958E+02 -0.86863694110E+03  0.87032716256E+03  0.00000000000E+00 0. -1.
          1    1    1    2  502    0 -0.34151010292E+02  0.12215878800E+03  0.59243906671E+03  0.60586558637E+03  0.00000000000E+00 0. -1.
         22    1    3    3    0    0  0.60737934610E+02 -0.11818198304E+02 -0.14307830258E+03  0.15588510892E+03  0.00000000000E+00 0. -1.
         22    1    3    3    0    0 -0.54691150355E+02 -0.63979108742E+02 -0.17038217075E+03  0.19003823929E+03  0.00000000000E+00 0. -1.
</event>
<event>
 7    1  0.7118985E-006  0.1324171E+03  0.7818608E-02  0.1333561E+00
          2   -1    0    0  502    0  0.00000000000E+00  0.00000000000E+00  0.34497586838E+03  0.34497586838E+03  0.00000000000E+00 0. -1.
          1   -1    0    0  501    0 -0.00000000000E+00 -0.00000000000E+00 -0.13787538332E+04  0.13787538332E+04  0.00000000000E+00 0. -1.
         25    2    1    2    0    0 -0.66318931818E+02 -0.59362720755E+02 -0.27385036624E+03  0.31391381819E+03  0.12500291528E+03 0.  0.
          2    1    1    2  501    0 -0.25777584047E+02 -0.38648033071E+02 -0.10704301870E+04  0.10714377908E+04  0.00000000000E+00 0. -1.
          1    1    1    2  502    0  0.92096515864E+02  0.98010753827E+02  0.31050258845E+03  0.33837809257E+03  0.00000000000E+00 0. -1.
         22    1    3    3    0    0 -0.26734921397E+01 -0.19455659617E+02 -0.22145621069E+03  0.22232526511E+03  0.00000000000E+00 0.  1.
         22    1    3    3    0    0 -0.63645439678E+02 -0.39907061139E+02 -0.52394155554E+02  0.91588553088E+02  0.00000000000E+00 0.  1.
</event>
<event>
 7    1  0.7118985E-006  0.1199076E+03  0.7818608E-02  0.1441399E+00
          2   -1    0    0  502    0  0.00000000000E+00  0.00000000000E+00  0.59365488205E+02  0.59365488205E+02  0.00000000000E+00 0. -1.
          1   -1    0    0  501    0 -0.00000000000E+00 -0.00000000000E+00 -0.25182217028E+04  0.25182217028E+04  0.00000000000E+00 0. -1.
         25    2    1    2    0    0  0.34454220851E+02 -0.93610377331E+02 -0.14258579925E+04  0.14347983006E+04  0.12500061004E+03 0.  0.
          2    1    1    2  501    0  0.31644372448E+01 -0.21235253313E+02 -0.10211322249E+04  0.10213579051E+04  0.00000000000E+00 0. -1.
          1    1    1    2  502    0 -0.37618658096E+02  0.11484563064E+03 -0.11865997271E+02  0.12143098536E+03  0.00000000000E+00 0. -1.
         22    1    3    3    0    0  0.34301097007E+01 -0.90506609651E+01 -0.46481298502E+01  0.10737095863E+02  0.00000000000E+00 0. -1.
         22    1    3    3    0    0  0.31024111150E+02 -0.84559716366E+02 -0.14212098627E+04  0.14240612047E+04  0.00000000000E+00 0. -1.
</event>
<event>
 7    1  0.7118985E-006  0.6694104E+02  0.7818608E-02  0.1516312E+00
          2   -1    0    0  502    0  0.00000000000E+00  0.00000000000E+00  0.19397034678E+03  0.19397034678E+03  0.00000000000E+00 0. -1.
          1   -1    0    0  501    0 -0.00000000000E+00 -0.00000000000E+00 -0.68264923240E+03  0.68264923240E+03  0.00000000000E+00 0. -1.
         25    2    1    2    0    0 -0.85213412431E+02  0.17238056004E+02  0.50822566284E-01  0.15225413383E+03  0.12499136952E+03 0.  0.
          2    1    1    2  501    0  0.62959807476E+02 -0.21340222791E+02 -0.60361911743E+03  0.60726878843E+03  0.00000000000E+00 0. -1.
          1    1    1    2  502    0  0.22253604955E+02  0.41021667866E+01  0.11488940924E+03  0.11709665692E+03  0.00000000000E+00 0. -1.
         22    1    3    3    0    0 -0.96805773222E+02 -0.95648779771E+00  0.41652965409E+02  0.10539090153E+03  0.00000000000E+00 0. -1.
         22    1    3    3    0    0  0.11592360791E+02  0.18194543802E+02 -0.41602142842E+02  0.46863232304E+02  0.00000000000E+00 0. -1.
</event>
<event>
 7    1  0.7118985E-006  0.2918508E+02  0.7818608E-02  0.1619601E+00
          2   -1    0    0  502    0  0.00000000000E+00  0.00000000000E+00  0.54129214736E+02  0.54129214736E+02  0.00000000000E+00 0. -1.
          1   -1    0    0  501    0 -0.00000000000E+00 -0.00000000000E+00 -0.43077980396E+03  0.43077980396E+03  0.00000000000E+00 0. -1.
         25    2    1    2    0    0  0.16259444923E+01  0.27795763962E+02 -0.15420711390E+03  0.20044949902E+03  0.12499967796E+03 0.  0.
          2    1    1    2  501    0 -0.25299285671E+02 -0.98064022717E+01 -0.24540008817E+03  0.24689557034E+03  0.00000000000E+00 0. -1.
          1    1    1    2  502    0  0.23673341179E+02 -0.17989361690E+02  0.22956612842E+02  0.37563949336E+02  0.00000000000E+00 0. -1.
         22    1    3    3    0    0  0.16433892055E+01 -0.10984240489E+02 -0.16073984889E+03  0.16112309980E+03  0.00000000000E+00 0.  1.
         22    1    3    3    0    0 -0.17444713181E-01  0.38780004451E+02  0.65327349889E+01  0.39326399224E+02  0.00000000000E+00 0.  1.
</event>
<event>
 7    1  0.7118985E-006  0.9024018E+02  0.7818608E-02  0.1369461E+00
          2   -1    0    0  502    0  0.00000000000E+00  0.00000000000E+00  0.86408771242E+03  0.86408771242E+03  0.00000000000E+00 0. -1.
          1   -1    0    0  501    0 -0.00000000000E+00 -0.00000000000E+00 -0.10554443869E+03  0.10554443869E+03  0.00000000000E+00 0. -1.
         25    2    1    2    0    0  0.12052810351E+03 -0.74942119833E+01  0.87513637123E+02  0.19459301632E+03  0.12499847346E+03 0.  0.
          2    1    1    2  501    0 -0.77278266910E+02  0.33013539320E+02 -0.16532584173E+02  0.85645494070E+02  0.00000000000E+00 0. -1.
          1    1    1    2  502    0 -0.43249836598E+02 -0.25519327337E+02  0.68756222078E+03  0.68939364072E+03  0.00000000000E+00 0. -1.
         22    1    3    3    0    0  0.28027273687E+02  0.53259828200E+02  0.48347710453E+02  0.77198694784E+02  0.00000000000E+00 0. -1.
         22    1    3    3    0    0  0.92500829820E+02 -0.60754040183E+02  0.39165926670E+02  0.11739432153E+03  0.00000000000E+00 0. -1.
</event>
<event>
 7    1  0.7118985E-006  0.1143574E+03  0.7818608E-02  0.1400373E+00
          2   -1    0    0  502    0  0.00000000000E+00  0.00000000000E+00  0.55567466167E+03  0.55567466167E+03  0.00000000000E+00 0. -1.
          1   -1    0    0  501    0 -0.00000000000E+00 -0.00000000000E+00 -0.12357846579E+03  0.12357846579E+03  0.00000000000E+00 0. -1.
         25    2    1    2    0    0 -0.13954423977E+03 -0.59403030675E+01  0.24064977161E+03  0.30503374111E+03  0.12500155433E+03 0.  0.
          2    1    1    2  501    0  0.11018083956E+03  0.15408911670E+02 -0.56211283915E+02  0.12464734415E+03  0.00000000000E+00 0. -1.
          1    1    1    2  502    0  0.29363400212E+02 -0.94686086023E+01  0.24765770819E+03  0.24957204220E+03  0.00000000000E+00 0. -1.
         22    1    3    3    0    0 -0.36969566160E+02 -0.17490157997E+02  0.18152880375E+03  0.18607891079E+03  0.00000000000E+00 0. -1.
         22    1    3    3    0    0 -0.10257467361E+03  0.11549854929E+02  0.59120967853E+02  0.11895483031E+03  0.00000000000E+00 0. -1.
</event>
<event>
 7    1  0.7118985E-006  0.1189921E+03  0.7818608E-02  0.1417391E+00
          2   -1    0    0  502    0  0.00000000000E+00  0.00000000000E+00  0.16130585169E+04  0.16130585169E+04  0.00000000000E+00 0. -1.
          1   -1    0    0  501    0 -0.00000000000E+00 -0.00000000000E+00 -0.80077144769E+03  0.80077144769E+03  0.00000000000E+00 0. -1.
         25    2    1    2    0    0 -0.95041761907E+02 -0.21831261391E+02 -0.23899925532E+01  0.15855538667E+03  0.12499823238E+03 0.  0.
          2    1    1    2  501    0  0.11964798263E+03  0.13564486140E+02 -0.71515537830E+03  0.72522193165E+03  0.00000000000E+00 0. -1.
          1    1    1    2  502    0 -0.24606220723E+02  0.82667752513E+01  0.15298324400E+04  0.15300526462E+04  0.00000000000E+00 0. -1.
         22    1    3    3    0    0 -0.10748960406E+03 -0.56438673239E+01 -0.40754616397E+02  0.11509477389E+03  0.00000000000E+00 0.  1.
         22    1    3    3    0    0  0.12447842149E+02 -0.16187394068E+02  0.38364623844E+02  0.43460612784E+02  0.00000000000E+00 0.  1.
</event>
<event>
 7    1  0.7118985E-006  0.7146736E+02  0.7818608E-02  0.1430342E+00
          2   -1    0    0  502    0  0.00000000000E+00  0.00000000000E+00  0.33557205925E+03  0.33557205925E+03  0.00000000000E+00 0. -1.
          1   -1    0    0  501    0 -0.00000000000E+00 -0.00000000000E+00 -0.11234193130E+04  0.11234193130E+04  0.00000000000E+00 0. -1.
         25    2    1    2    0    0  0.39729850707E+02  0.22455489505E+02 -0.15932405770E+03  0.20759005408E+03  0.12500706037E+03 0.  0.
          2    1    1    2  501    0 -0.39726778782E+02 -0.61599288808E+02 -0.93729576979E+03  0.94015745990E+03  0.00000000000E+00 0. -1.
          1    1    1    2  502    0 -0.30719250553E-02  0.39143799302E+02  0.30877257373E+03  0.31124385829E+03  0.00000000000E+00 0. -1.
         22    1    3    3    0    0 -0.31017715672E+01  0.12272169082E+02  0.19598390076E+02  0.23330752547E+02  0.00000000000E+00 0. -1.
         22    1    3    3    0    0  0.42831622274E+02  0.10183320423E+02 -0.17892244778E+03  0.18425930153E+03  0.00000000000E+00 0. -1.
</event>
<event>
 7    1  0.7118985E-006  0.8062232E+02  0.7818608E-02  0.1357983E+00
          2   -1    0    0  502    0  0.00000000000E+00  0.00000000000E+00  0.14231619371E+04  0.14231619371E+04  0.00000000000E+00 0. -1.
          1   -1    0    0  501    0 -0.00000000000E+00 -0.00000000000E+00 -0.14155453886E+03  0.14155453886E+03  0.00000000000E+00 0. -1.
         25    2    1    2    0    0  0.91953526949E+02 -0.98986483260E+02  0.30836741837E+03  0.35912246742E+03  0.12499882762E+03 0.  0.
          2    1    1    2  501    0 -0.27507417371E+02  0.55414557831E+02 -0.10644090153E+03  0.12311416144E+03  0.00000000000E+00 0. -1.
          1    1    1    2  502    0 -0.64446109578E+02  0.43571925429E+02  0.10796808814E+04  0.10824798471E+04  0.00000000000E+00 0. -1.
         22    1    3    3    0    0 -0.38346261501E+01 -0.15937816216E+02  0.17256183543E+03  0.17333870137E+03  0.00000000000E+00 0. -1.
         22    1    3    3    0    0  0.95788153099E+02 -0.83048667045E+02  0.13580558294E+03  0.18578376606E+03  0.00000000000E+00 0. -1.
</event>
<event>
 7    1  0.8463112E-006  0.6644303E+02  0.7818608E-02  0.1423560E+00
          2   -1    0    0  502    0  0.00000000000E+00  0.00000000000E+00  0.42097148182E+03  0.42097148182E+03  0.00000000000E+00 0. -1.
          1   -1    0    0  501    0 -0.00000000000E+00 -0.00000000000E+00 -0.19876013439E+04  0.19876013439E+04  0.00000000000E+00 0. -1.
         25    2    1    2    0    0  0.20756147179E+02  0.95091801157E+01 -0.38220614569E+03  0.40277216317E+03  0.12499054150E+03 0.  0.
          2    1    1    2  501    0  0.43507228315E+02  0.85273194339E+01 -0.15920895915E+04  0.15927067719E+04  0.00000000000E+00 0. -1.
          1    1    1    2  502    0 -0.64263375493E+02 -0.18036499550E+02  0.40766587509E+03  0.41309389061E+03  0.00000000000E+00 0. -1.
         22    1    3    3    0    0 -0.39823052806E+02  0.31239584456E+02 -0.25761666587E+03  0.26254167994E+03  0.00000000000E+00 0. -1.
         22    1    3    3    0    0  0.60579199985E+02 -0.21730404340E+02 -0.12458947982E+03  0.14023048323E+03  0.00000000000E+00 0. -1.
</event>
<event>
 7    1  0.7118985E-006  0.6618195E+02  0.7818608E-02  0.1397866E+00
          2   -1    0    0  502    0  0.00000000000E+00  0.00000000000E+00  0.20216285732E+03  0.20216285732E+03  0.00000000000E+00 0. -1.
          1   -1    0    0  501    0 -0.00000000000E+00 -0.00000000000E+00 -0.20357817466E+04  0.20357817466E+04  0.00000000000E+00 0. -1.
         25    2    1    2    0    0  0.43631297664E+02 -0.35167149827E+02 -0.14241275540E+04  0.14307002198E+04  0.12499364141E+03 0.  0.
          2    1    1    2  501    0 -0.44588525298E+02 -0.31130963081E+02 -0.60158061794E+03  0.60403353660E+03  0.00000000000E+00 0. -1.
          1    1    1    2  502    0  0.95722763361E+00  0.66298112908E+02  0.19208928262E+03  0.20321084754E+03  0.00000000000E+00 0. -1.
         22    1    3    3    0    0  0.65744727238E+02  0.19688123514E+02 -0.10152676322E+04  0.10175845696E+04  0.00000000000E+00 0.  1.
         22    1    3    3    0    0 -0.22113429574E+02 -0.54855273341E+02 -0.40885992182E+03  0.41311565022E+03  0.00000000000E+00 0.  1.
</event>
<event>
 7    1  0.7118985E-006  0.4436135E+02  0.7818608E-02  0.1541782E+00
          2   -1    0    0  502    0  0.00000000000E+00  0.00000000000E+00  0.74928461853E+03  0.74928461853E+03  0.00000000000E+00 0. -1.
          1   -1    0    0  501    0 -0.00000000000E+00 -0.00000000000E+00 -0.11221357738E+03  0.11221357738E+03  0.00000000000E+00 0. -1.
         25    2    1    2    0    0 -0.19003526994E+02 -0.25676644994E+02  0.34800054322E+02  0.13362919256E+03  0.12500117274E+03 0.  0.
          2    1    1    2  501    0 -0.24446911492E+02  0.15334908328E+02 -0.58689669685E+02  0.65400980288E+02  0.00000000000E+00 0. -1.
          1    1    1    2  502    0  0.43450438486E+02  0.10341736666E+02  0.66096065651E+03  0.66246802306E+03  0.00000000000E+00 0. -1.
         22    1    3    3    0    0  0.26832734031E+02 -0.43048744385E+02 -0.24797240149E+02  0.56463201536E+02  0.00000000000E+00 0. -1.
         22    1    3    3    0    0 -0.45836261024E+02  0.17372099391E+02  0.59597294472E+02  0.77165991021E+02  0.00000000000E+00 0. -1.
</event>
<event>
 7    1  0.7118985E-006  0.6363151E+02  0.7818608E-02  0.1413193E+00
          2   -1    0    0  502    0  0.00000000000E+00  0.00000000000E+00  0.25162238038E+03  0.25162238038E+03  0.00000000000E+00 0. -1.
          1   -1    0    0  501    0 -0.00000000000E+00 -0.00000000000E+00 -0.91613889669E+03  0.91613889669E+03  0.00000000000E+00 0. -1.
         25    2    1    2    0    0  0.37096185391E+02  0.97450257464E+02 -0.47707912497E+03  0.50408421563E+03  0.12499490117E+03 0.  0.
          2    1    1    2  501    0  0.47642314645E+01 -0.49918570926E+02 -0.41982689360E+03  0.42281104789E+03  0.00000000000E+00 0. -1.
          1    1    1    2  502    0 -0.41860416855E+02 -0.47531686537E+02  0.23238950226E+03  0.24086601356E+03  0.00000000000E+00 0. -1.
         22    1    3    3    0    0 -0.14451960904E+02 -0.21133753715E+01 -0.62774162510E+00  0.14619151445E+02  0.00000000000E+00 0. -1.
         22    1    3    3    0    0  0.51548146294E+02  0.99563632835E+02 -0.47645138334E+03  0.48946506419E+03  0.00000000000E+00 0. -1.
</event>
<event>
 7    1  0.7118985E-006  0.1343412E+03  0.7818608E-02  0.1327267E+00
          2   -1    0    0  502    0  0.00000000000E+00  0.00000000000E+00  0.29125512749E+04  0.29125512749E+04  0.00000000000E+00 0. -1.
          1   -1    0    0  501    0 -0.00000000000E+00 -0.00000000000E+00 -0.38243672106E+03  0.38243672106E+03  0.00000000000E+00 0. -1.
         25    2    1    2    0    0 -0.51101159325E+02  0.14829778861E+03  0.73830462409E+03  0.76506375149E+03  0.12500105321E+03 0.  0.
          2    1    1    2  501    0  0.48667529463E+01 -0.13399605892E+03 -0.35659688982E+03  0.38097240179E+03  0.00000000000E+00 0. -1.
          1    1    1    2  502    0  0.46234406379E+02 -0.14301729689E+02  0.21484068196E+04  0.21489518427E+04  0.00000000000E+00 0. -1.
         22    1    3    3    0    0  0.21854682359E+02  0.52376729044E+01  0.23795667440E+02  0.32730630110E+02  0.00000000000E+00 0.  1.
         22    1    3    3    0    0 -0.72955841684E+02  0.14306011570E+03  0.71450895665E+03  0.73233312138E+03  0.00000000000E+00 0.  1.
</event>
<event>
 7    1  0.7118985E-006  0.1409081E+03  0.7818608E-02  0.1250538E+00
          2   -1    0    0  502    0  0.00000000000E+00  0.00000000000E+00  0.14176735375E+04  0.14176735375E+04  0.00000000000E+00 0. -1.
          1   -1    0    0  501    0 -0.00000000000E+00 -0.00000000000E+00 -0.76893016828E+03  0.76893016828E+03  0.00000000000E+00 0. -1.
         25    2    1    2    0    0  0.22097508750E+03  0.24470760616E+02  0.41631241834E+03  0.48822944350E+03  0.12499260942E+03 0.  0.
          2    1    1    2  501    0 -0.90020871430E+02 -0.29838419972E+02 -0.72542256098E+03  0.73159550339E+03  0.00000000000E+00 0. -1.
          1    1    1    2  502    0 -0.13095421607E+03  0.53676593553E+01  0.95785351183E+03  0.96677875887E+03  0.00000000000E+00 0. -1.
         22    1    3    3    0    0 -0.96520742557E+01 -0.57642736877E+00 -0.20217690065E+01  0.98783782001E+01  0.00000000000E+00 0.  1.
         22    1    3    3    0    0  0.23062716176E+03  0.25047187985E+02  0.41833418735E+03  0.47835106530E+03  0.00000000000E+00 0.  1.
</event>
<event>
 7    1  0.7118985E-006  0.8678133E+02  0.7818608E-02  0.1321876E+00
          2   -1    0    0  502    0  0.00000000000E+00  0.00000000000E+00  0.13099092268E+04  0.13099092268E+04  0.00000000000E+00 0. -1.
          1   -1    0    0  501    0 -0.00000000000E+00 -0.00000000000E+00 -0.13812421714E+03  0.13812421714E+03  0.00000000000E+00 0. -1.
         25    2    1    2    0    0  0.13276434077E+02  0.30259173619E+01  0.42604264274E+03  0.44421043894E+03  0.12500064300E+03 0.  0.
          2    1    1    2  501    0  0.69694177427E+02  0.51708039192E+02 -0.11124519052E+03  0.14109036855E+03  0.00000000000E+00 0. -1.
          1    1    1    2  502    0 -0.82970611504E+02 -0.54733956554E+02  0.85698755741E+03  0.86273263641E+03  0.00000000000E+00 0. -1.
         22    1    3    3    0    0  0.29693666843E+01  0.95402788568E+01  0.43095073271E+03  0.43106654716E+03  0.00000000000E+00 0.  1.
         22    1    3    3    0    0  0.10307067393E+02 -0.65143614949E+01 -0.49080899679E+01  0.13143891778E+02  0.00000000000E+00 0.  1.
</event>
<event>
 7    1  0.7118985E-006  0.1692067E+03  0.7818608E-02  0.1249459E+00
          2   -1    0    0  502    0  0.00000000000E+00  0.00000000000E+00  0.21266913672E+04  0.21266913672E+04  0.00000000000E+00 0. -1.
          1   -1    0    0  501    0 -0.00000000000E+00 -0.00000000000E+00 -0.15693752753E+04  0.15693752753E+04  0.00000000000E+00 0. -1.
         25    2    1    2    0    0  0.20035917943E+03  0.12081658710E+03 -0.97647860087E+03  0.10118717771E+04  0.12503434239E+03 0.  0.
          2    1    1    2  501    0 -0.39342052339E+02 -0.69464799706E+02 -0.56902329325E+03  0.57459608747E+03  0.00000000000E+00 0. -1.
          1    1    1    2  502    0 -0.16101712709E+03 -0.51351787393E+02  0.21028179860E+04  0.21095987779E+04  0.00000000000E+00 0. -1.
         22    1    3    3    0    0  0.18776398781E+03  0.13813881514E+03 -0.94799999074E+03  0.97623851072E+03  0.00000000000E+00 0.  1.
         22    1    3    3    0    0  0.12595191617E+02 -0.17322228036E+02 -0.28478610123E+02  0.35633266347E+02  0.00000000000E+00 0.  1.
</event>
<event>
 7    1  0.7118985E-006  0.3592744E+02  0.7818608E-02  0.1607250E+00
          2   -1    0    0  502    0  0.00000000000E+00  0.00000000000E+00  0.16210061872E+02  0.16210061872E+02  0.00000000000E+00 0. -1.
          1   -1    0    0  501    0 -0.00000000000E+00 -0.00000000000E+00 -0.82137190448E+03  0.82137190448E+03  0.00000000000E+00 0. -1.
         25    2    1    2    0    0 -0.16150059494E+02  0.76323438246E+01 -0.49539347337E+03  0.51123222432E+03  0.12499846652E+03 0.  0.
          2    1    1    2  501    0  0.25897568226E+02 -0.29247677810E+02 -0.29672879973E+03  0.29928931035E+03  0.00000000000E+00 0. -1.
          1    1    1    2  502    0 -0.97475087323E+01  0.21615333986E+02 -0.13039569497E+02  0.27060431676E+02  0.00000000000E+00 0. -1.
         22    1    3    3    0    0  0.32095272469E+02  0.50184420046E+02 -0.18928978311E+03  0.19844194244E+03  0.00000000000E+00 0. -1.
         22    1    3    3    0    0 -0.48245331963E+02 -0.42552076222E+02 -0.30610369026E+03  0.31279028188E+03  0.00000000000E+00 0. -1.
</event>
<event>
 7    1  0.7118985E-006  0.1133639E+03  0.7818608E-02  0.1267600E+00
          2   -1    0    0  502    0  0.00000000000E+00  0.00000000000E+00  0.31947223183E+04  0.31947223183E+04  0.00000000000E+00 0. -1.
          1   -1    0    0  501    0 -0.00000000000E+00 -0.00000000000E+00 -0.67158172445E+03  0.67158172445E+03  0.00000000000E+00 0. -1.
         25    2    1    2    0    0  0.54592595275E+02  0.48506470420E+02  0.12771567018E+03  0.19305075452E+03  0.12499628907E+03 0.  0.
          2    1    1    2  501    0  0.56287703876E+02 -0.82237375843E+02 -0.63391332181E+03  0.64169883214E+03  0.00000000000E+00 0. -1.
          1    1    1    2  502    0 -0.11088029915E+03  0.33730905423E+02  0.30293382455E+04  0.30315544561E+04  0.00000000000E+00 0. -1.
         22    1    3    3    0    0  0.77995354290E+02  0.22209041417E+02  0.13463698843E+03  0.15717390199E+03  0.00000000000E+00 0. -1.
         22    1    3    3    0    0 -0.23402759015E+02  0.26297429003E+02 -0.69213182531E+01  0.35876852538E+02  0.00000000000E+00 0. -1.
</event>
<event>
 7    1  0.7118985E-006  0.1528926E+03  0.7818608E-02  0.1315111E+00
          2   -1    0    0  502    0  0.00000000000E+00  0.00000000000E+00  0.14490471649E+04  0.14490471649E+04  0.00000000000E+00 0. -1.
          1   -1    0    0  501    0 -0.00000000000E+00 -0.00000000000E+00 -0.26282115295E+03  0.26282115295E+03  0.00000000000E+00 0. -1.
         25    2    1    2    0    0  0.75169763394E+02 -0.92216385306E+02  0.17600683470E+02  0.17346519037E+03  0.12500413259E+03 0.  0.
          2    1    1    2  501    0 -0.10134493332E+03  0.13172471556E+03 -0.14702613300E+03  0.22189835507E+03  0.00000000000E+00 0. -1.
          1    1    1    2  502    0  0.26175169926E+02 -0.39508330256E+02  0.13156514615E+04  0.13165047724E+04  0.00000000000E+00 0. -1.
         22    1    3    3    0    0  0.65498707055E+02 -0.28730770052E+02 -0.44414411185E+02  0.84191316028E+02  0.00000000000E+00 0.  1.
         22    1    3    3    0    0  0.96710563398E+01 -0.63485615254E+02  0.62015094655E+02  0.89273874342E+02  0.00000000000E+00 0.  1.
</event>
<event>
 7    1  0.7118985E-006  0.4055767E+02  0.7818608E-02  0.1550694E+00
          2   -1    0    0  502    0  0.00000000000E+00  0.00000000000E+00  0.12447852626E+03  0.12447852626E+03  0.00000000000E+00 0. -1.
          1   -1    0    0  501    0 -0.00000000000E+00 -0.00000000000E+00 -0.69015463187E+03  0.69015463187E+03  0.00000000000E+00 0. -1.
         25    2    1    2    0    0 -0.82034902202E+01  0.30133390715E+02 -0.77437934050E+02  0.15032200076E+03  0.12499900717E+03 0.  0.
          2    1    1    2  501    0  0.36021957206E+02 -0.19447505087E+02 -0.57300152021E+03  0.57446194741E+03  0.00000000000E+00 0. -1.
          1    1    1    2  502    0 -0.27818466986E+02 -0.10685885628E+02  0.84763348645E+02  0.89849209961E+02  0.00000000000E+00 0. -1.
         22    1    3    3    0    0 -0.39980541558E+02  0.68195053620E+02 -0.43408154281E+02  0.90184682179E+02  0.00000000000E+00 0. -1.
         22    1    3    3    0    0  0.31777051338E+02 -0.38061662905E+02 -0.34029779770E+02  0.60137318580E+02  0.00000000000E+00 0. -1.
</event>
<event>
 7    1  0.7118985E-006  0.1854762E+03  0.7818608E-02  0.1190046E+00
          2   -1    0    0  502    0  0.00000000000E+00  0.00000000000E+00  0.78187260197E+03  0.78187260197E+03  0.00000000000E+00 0. -1.
          1   -1    0    0  501    0 -0.00000000000E+00 -0.00000000000E+00 -0.19710764467E+04  0.19710764467E+04  0.00000000000E+00 0. -1.
         25    2    1    2    0    0 -0.58827609430E+02  0.30274297645E+03  0.92267847017E+02  0.34533080815E+03  0.12500405611E+03 0.  0.
          2    1    1    2  501    0  0.30696109860E+02 -0.13246955225E+03 -0.18287370970E+04  0.18337856481E+04  0.00000000000E+00 0. -1.
          1    1    1    2  502    0  0.28131499570E+02 -0.17027342420E+03  0.54726540527E+03  0.57383259236E+03  0.00000000000E+00 0. -1.
         22    1    3    3    0    0 -0.36779872127E+02  0.87561566041E+02 -0.26448528092E+02  0.98586568453E+02  0.00000000000E+00 0. -1.
         22    1    3    3    0    0 -0.22047737303E+02  0.21518141041E+03  0.11871637511E+03  0.24674423970E+03  0.00000000000E+00 0. -1.
</event>
<event>
 7    1  0.7118985E-006  0.8681405E+02  0.7818608E-02  0.1391225E+00
          2   -1    0    0  502    0  0.00000000000E+00  0.00000000000E+00  0.11538923068E+04  0.11538923068E+04  0.00000000000E+00 0. -1.
          1   -1    0    0  501    0 -0.00000000000E+00 -0.00000000000E+00 -0.32754528047E+02  0.32754528047E+02  0.00000000000E+00 0. -1.
         25    2    1    2    0    0  0.11986525243E+02 -0.69668205020E+02  0.58208775618E+03  0.59953898248E+03  0.12499400004E+03 0.  0.
          2    1    1    2  501    0  0.28680581324E+02  0.85701288946E+02  0.65668527249E+02  0.11171231867E+03  0.00000000000E+00 0. -1.
          1    1    1    2  502    0 -0.40667106566E+02 -0.16033083926E+02  0.47338149529E+03  0.47539553366E+03  0.00000000000E+00 0. -1.
         22    1    3    3    0    0 -0.20003571009E+02  0.26669527425E+02  0.70597140917E+02  0.78072804816E+02  0.00000000000E+00 0. -1.
         22    1    3    3    0    0  0.31990096251E+02 -0.96337732444E+02  0.51149061526E+03  0.52146617767E+03  0.00000000000E+00 0. -1.
</event>
<event>
 7    1  0.7118985E-006  0.1161505E+03  0.7818608E-02  0.1331191E+00
          2   -1    0    0  502    0  0.00000000000E+00  0.00000000000E+00  0.79326391958E+02  0.79326391958E+02  0.00000000000E+00 0. -1.
          1   -1    0    0  501    0 -0.00000000000E+00 -0.00000000000E+00 -0.82254166688E+03  0.82254166688E+03  0.00000000000E+00 0. -1.
         25    2    1    2    0    0  0.60410283132E+02  0.40937440495E+02 -0.25993833404E+03  0.29752248087E+03  0.12500565097E+03 0.  0.
          2    1    1    2  501    0  0.39901634170E+02  0.36494269924E+02 -0.47422932825E+03  0.47730223959E+03  0.00000000000E+00 0. -1.
          1    1    1    2  502    0 -0.10031191730E+03 -0.77431710420E+02 -0.90476126262E+01  0.12704333838E+03  0.00000000000E+00 0. -1.
         22    1    3    3    0    0 -0.20033020798E+01 -0.25659031172E+02 -0.16048405193E+03  0.16253470406E+03  0.00000000000E+00 0.  1.
         22    1    3    3    0    0  0.62413585212E+02  0.66596471668E+02 -0.99454282117E+02  0.13498777681E+03  0.00000000000E+00 0.  1.
</event>
<event>
 7    1  0.7118985E-006  0.2791891E+02  0.7818608E-02  0.1647606E+00
          2   -1    0    0  502    0  0.00000000000E+00  0.00000000000E+00  0.10556585618E+04  0.10556585618E+04  0.00000000000E+00 0. -1.
          1   -1    0    0  501    0 -0.00000000000E+00 -0.00000000000E+00 -0.57688810281E+02  0.57688810281E+02  0.00000000000E+00 0. -1.
         25    2    1    2    0    0 -0.47899079822E+02 -0.15934495865E+02  0.12812737645E+03  0.18598209572E+03  0.12499794128E+03 0.  0.
          2    1    1    2  501    0  0.26648509823E+02  0.44918471171E+01 -0.22213918671E+02  0.34982537774E+02  0.00000000000E+00 0. -1.
          1    1    1    2  502    0  0.21250569999E+02  0.11442648748E+02  0.89205629372E+03  0.89238273857E+03  0.00000000000E+00 0. -1.
         22    1    3    3    0    0 -0.29576524552E+02  0.40467457969E+02  0.63396011438E+01  0.50523029419E+02  0.00000000000E+00 0.  1.
         22    1    3    3    0    0 -0.18322555270E+02 -0.56401953834E+02  0.12178777531E+03  0.13545906630E+03  0.00000000000E+00 0.  1.
</event>
<event>
 7    1  0.7118985E-006  0.1313356E+03  0.7818608E-02  0.1231962E+00
          2   -1    0    0  502    0  0.00000000000E+00  0.00000000000E+00  0.95620186513E+03  0.95620186513E+03  0.00000000000E+00 0. -1.
          1   -1    0    0  501    0 -0.00000000000E+00 -0.00000000000E+00 -0.18253230360E+03  0.18253230360E+03  0.00000000000E+00 0. -1.
         25    2    1    2    0    0  0.77043605206E+02  0.48461116956E+02 -0.81559477321E+02  0.17482516484E+03  0.12501077138E+03 0.  0.
          2    1    1    2  501    0  0.39854586000E+02 -0.11617986364E+03  0.28334873466E+02  0.12605163147E+03  0.00000000000E+00 0. -1.
          1    1    1    2  502    0 -0.11689819121E+03  0.67718746688E+02  0.82689416539E+03  0.83785737242E+03  0.00000000000E+00 0. -1.
         22    1    3    3    0    0  0.10958191599E+03  0.26119521581E+02 -0.73590923277E+02  0.13455872216E+03  0.00000000000E+00 0.  1.
         22    1    3    3    0    0 -0.32538310788E+02  0.22341595374E+02 -0.79685540439E+01  0.40266442683E+02  0.00000000000E+00 0.  1.
</event>
<event>
 7    1  0.7118985E-006  0.4838364E+02  0.7818608E-02  0.1471947E+00
          2   -1    0    0  502    0  0.00000000000E+00  0.00000000000E+00  0.40047637798E+03  0.40047637798E+03  0.00000000000E+00 0. -1.
          1   -1    0    0  501    0 -0.00000000000E+00 -0.00000000000E+00 -0.26923427966E+03  0.26923427966E+03  0.00000000000E+00 0. -1.
         25    2    1    2    0    0 -0.34810161421E+02 -0.38412178149E+02 -0.10519434440E+03  0.17140002575E+03  0.12499950385E+03 0.  0.
          2    1    1    2  501    0 -0.13711193534E+02  0.40305669207E+02 -0.12581300283E+03  0.13282114093E+03  0.00000000000E+00 0. -1.
          1    1    1    2  502    0  0.48521354955E+02 -0.18934910586E+01  0.36224944555E+03  0.36548949095E+03  0.00000000000E+00 0. -1.
         22    1    3    3    0    0  0.42043396198E+02 -0.35188783685E+02 -0.24929822923E+02  0.60227848477E+02  0.00000000000E+00 0.  1.
         22    1    3    3    0    0 -0.76853557619E+02 -0.32233944634E+01 -0.80264521479E+02  0.11117217727E+03  0.00000000000E+00 0.  1.
</event>
<event>
 7    1  0.7118985E-006  0.4903527E+02  0.7818608E-02  0.1501357E+00
          2   -1    0    0  502    0  0.00000000000E+00  0.00000000000E+00  0.63639474623E+03  0.63639474623E+03  0.00000000000E+00 0. -1.
          1   -1    0    0  501    0 -0.00000000000E+00 -0.00000000000E+00 -0.17422836572E+03  0.17422836572E+03  0.00000000000E+00 0. -1.
         25    2    1    2    0    0  0.57313076576E+02 -0.47403432982E+02 -0.61437604993E+02  0.15789703411E+03  0.12500007948E+03 0.  0.
          2    1    1    2  501    0 -0.42065448885E+02  0.16798717773E+02 -0.56049957237E+02  0.72064530908E+02  0.00000000000E+00 0. -1.
          1    1    1    2  502    0 -0.15247627691E+02  0.30604715209E+02  0.57965394275E+03  0.58066154693E+03  0.00000000000E+00 0. -1.
         22    1    3    3    0    0  0.89185554865E+02 -0.31102978890E+02 -0.73966801391E+02  0.11996893848E+03  0.00000000000E+00 0.  1.
         22    1    3    3    0    0 -0.31872478288E+02 -0.16300454092E+02  0.12529196398E+02  0.37928095632E+02  0.00000000000E+00 0.  1.
</event>
<event>
 7    1  0.7557735E-006  0.7028793E+02  0.7818608E-02  0.1475834E+00
          2   -1    0    0  502    0  0.00000000000E+00  0.00000000000E+00  0.10496036069E+04  0.10496036069E+04  0.00000000000E+00 0. -1.
          1   -1    0    0  501    0 -0.00000000000E+00 -0.00000000000E+00 -0.15686044389E+04  0.15686044389E+04  0.00000000000E+00 0. -1.
         25    2    1    2    0    0 -0.94285782308E+02 -0.14876541332E+01 -0.70504167152E+03  0.72221971532E+03  0.12500214704E+03 0.  0.
          2    1    1    2  501    0  0.66325854740E+02  0.70397021129E+01 -0.85347723939E+03  0.85607947912E+03  0.00000000000E+00 0. -1.
          1    1    1    2  502    0  0.27959927568E+02 -0.55520479797E+01  0.10395180789E+04  0.10399088513E+04  0.00000000000E+00 0. -1.
         22    1    3    3    0    0 -0.87888382543E+02 -0.51703785624E+02 -0.38865460734E+03  0.40180847806E+03  0.00000000000E+00 0. -1.
         22    1    3    3    0    0 -0.63973997645E+01  0.50216131491E+02 -0.31638706418E+03  0.32041123726E+03  0.00000000000E+00 0. -1.
</event>
<event>
 7    1  0.7118985E-006  0.8539340E+02  0.7818608E-02  0.1397806E+00
          2   -1    0    0  502    0  0.00000000000E+00  0.00000000000E+00  0.13162140861E+04  0.13162140861E+04  0.00000000000E+00 0. -1.
          1   -1    0    0  501    0 -0.00000000000E+00 -0.00000000000E+00 -0.70292214556E+03  0.70292214556E+03  0.00000000000E+00 0. -1.
         25    2    1    2    0    0 -0.40811634844E+02 -0.26339850298E+02  0.63757014627E+02  0.14848865536E+03  0.12499818640E+03 0.  0.
          2    1    1    2  501    0  0.82930311161E+02  0.24335834985E+02 -0.65735952318E+03  0.66301675099E+03  0.00000000000E+00 0. -1.
          1    1    1    2  502    0 -0.42118676317E+02  0.20040153129E+01  0.12068944491E+04  0.12076308253E+04  0.00000000000E+00 0. -1.
         22    1    3    3    0    0  0.27675652329E+02 -0.85845681757E+01 -0.22673271860E+02  0.36792849841E+02  0.00000000000E+00 0.  1.
         22    1    3    3    0    0 -0.68487287173E+02 -0.17755282123E+02  0.86430286487E+02  0.11169580552E+03  0.00000000000E+00 0.  1.
</event>
<event>
 7    1  0.7118985E-006  0.7992500E+02  0.7818608E-02  0.1372032E+00
          2   -1    0    0  502    0  0.00000000000E+00  0.00000000000E+00  0.24373480754E+03  0.24373480754E+03  0.00000000000E+00 0. -1.
          1   -1    0    0  501    0 -0.00000000000E+00 -0.00000000000E+00 -0.63251254301E+03  0.63251254301E+03  0.00000000000E+00 0. -1.
         25    2    1    2    0    0  0.80374110782E+02  0.50293672635E+02 -0.19242031002E+03  0.24826997588E+03  0.12499181582E+03 0.  0.
          2    1    1    2  501    0 -0.53859463323E+00 -0.55503266745E+02 -0.40278324593E+03  0.40658977595E+03  0.00000000000E+00 0. -1.
          1    1    1    2  502    0 -0.79835516149E+02  0.52095941102E+01  0.20642582048E+03  0.22138759873E+03  0.00000000000E+00 0. -1.
         22    1    3    3    0    0  0.11388402128E+03  0.30446275433E+02 -0.14739759462E+03  0.18873949478E+03  0.00000000000E+00 0. -1.
         22    1    3    3    0    0 -0.33509910499E+02  0.19847397202E+02 -0.45022715406E+02  0.59530481099E+02  0.00000000000E+00 0. -1.
</event>
<event>
 7    1  0.7118985E-006  0.7996461E+02  0.7818608E-02  0.1376507E+00
          2   -1    0    0  502    0  0.00000000000E+00  0.00000000000E+00  0.75185576281E+03  0.75185576281E+03  0.00000000000E+00 0. -1.
          1   -1    0    0  501    0 -0.00000000000E+00 -0.00000000000E+00 -0.82318966661E+02  0.82318966661E+02  0.00000000000E+00 0. -1.
         25    2    1    2    0    0 -0.10240601455E+02 -0.64891453375E+02  0.18954441279E+03  0.23636431964E+03  0.12500094616E+03 0.  0.
          2    1    1    2  501    0 -0.52662533428E+02  0.92764904364E+01 -0.42691970280E+02  0.68425141785E+02  0.00000000000E+00 0. -1.
          1    1    1    2  502    0  0.62903134883E+02  0.55614962938E+02  0.52268435364E+03  0.52938526804E+03  0.00000000000E+00 0. -1.
         22    1    3    3    0    0 -0.51485356243E+02  0.11786363567E+02  0.87693454322E+02  0.10237090507E+03  0.00000000000E+00 0.  1.
         22    1    3    3    0    0  0.41244754788E+02 -0.76677816942E+02  0.10185095847E+03  0.13399341457E+03  0.00000000000E+00 0.  1.
</event>
<event>
 7    1  0.7118985E-006  0.5957333E+02  0.7818608E-02  0.1513085E+00
          2   -1    0    0  502    0  0.00000000000E+00  0.00000000000E+00  0.10942805944E+04  0.10942805944E+04  0.00000000000E+00 0. -1.
          1   -1    0    0  501    0 -0.00000000000E+00 -0.00000000000E+00 -0.58176774640E+02  0.58176774640E+02  0.00000000000E+00 0. -1.
         25    2    1    2    0    0  0.28380148085E+02 -0.30554831089E+02  0.25054433130E+03  0.28308578013E+03  0.12500426576E+03 0.  0.
          2    1    1    2  501    0 -0.24348510474E+02  0.56225959974E+02 -0.19187104267E+02  0.64205556671E+02  0.00000000000E+00 0. -1.
          1    1    1    2  502    0 -0.40316376106E+01 -0.25671128885E+02  0.80474659278E+03  0.80516603229E+03  0.00000000000E+00 0. -1.
         22    1    3    3    0    0 -0.15092337196E+02 -0.59385837910E+02  0.20458421355E+03  0.21356300434E+03  0.00000000000E+00 0. -1.
         22    1    3    3    0    0  0.43472485281E+02  0.28831006821E+02  0.45960117742E+02  0.69522775791E+02  0.00000000000E+00 0. -1.
</event>
<event>
 7    1  0.7118985E-006  0.6805223E+02  0.7818608E-02  0.1500357E+00
          2   -1    0    0  502    0  0.00000000000E+00  0.00000000000E+00  0.52748239339E+03  0.52748239339E+03  0.00000000000E+00 0. -1.
          1   -1    0    0  501    0 -0.00000000000E+00 -0.00000000000E+00 -0.45668661301E+03  0.45668661301E+03  0.00000000000E+00 0. -1.
         25    2    1    2    0    0 -0.43961369433E+02 -0.15020832158E+02 -0.70871662214E+02  0.15101683777E+03  0.12500026154E+03 0.  0.
          2    1    1    2  501    0  0.68713068874E+02  0.13360387852E+02 -0.34187804767E+03  0.34897075132E+03  0.00000000000E+00 0. -1.
          1    1    1    2  502    0 -0.24751699442E+02  0.16604443065E+01  0.48354549027E+03  0.48418141730E+03  0.00000000000E+00 0. -1.
         22    1    3    3    0    0 -0.30047180862E+02 -0.12942577421E+02 -0.10718855576E+03  0.11207020065E+03  0.00000000000E+00 0.  1.
         22    1    3    3    0    0 -0.13914188570E+02 -0.20782547373E+01  0.36316893545E+02  0.38946637122E+02  0.00000000000E+00 0.  1.
</event>
<event>
 7    1  0.7118985E-006  0.9717636E+02  0.7818608E-02  0.1379588E+00
          2   -1    0    0  502    0  0.00000000000E+00  0.00000000000E+00  0.97953126332E+03  0.97953126332E+03  0.00000000000E+00 0. -1.
          1   -1    0    0  501    0 -0.00000000000E+00 -0.00000000000E+00 -0.16515860911E+04  0.16515860911E+04  0.00000000000E+00 0. -1.
         25    2    1    2    0    0 -0.39148167505E+02  0.11783380059E+03 -0.72954244876E+02  0.19069465048E+03  0.12499897718E+03 0.  0.
          2    1    1    2  501    0  0.37367169523E+02 -0.21088460724E+02 -0.15169150284E+04  0.15175217402E+04  0.00000000000E+00 0. -1.
          1    1    1    2  502    0  0.17809979820E+01 -0.96745339870E+02  0.91781444544E+03  0.92290096381E+03  0.00000000000E+00 0. -1.
         22    1    3    3    0    0  0.19044854349E+02  0.98049431573E+02 -0.63796388880E+01  0.10008545000E+03  0.00000000000E+00 0. -1.
         22    1    3    3    0    0 -0.58193021854E+02  0.19784369021E+02 -0.66574605988E+02  0.90609200485E+02  0.00000000000E+00 0. -1.
</event>
<event>
 7    1  0.7118985E-006  0.6006267E+02  0.7818608E-02  0.1547327E+00
          2   -1    0    0  502    0  0.00000000000E+00  0.00000000000E+00  0.21205172576E+04  0.21205172576E+04  0.00000000000E+00 0. -1.
          1   -1    0    0  501    0 -0.00000000000E+00 -0.00000000000E+00 -0.61192894535E+03  0.61192894535E+03  0.00000000000E+00 0. -1.
         25    2    1    2    0    0  0.30768673055E+02 -0.69680586642E+02  0.18703934582E+04  0.18761126904E+04  0.12500017291E+03 0.  0.
          2    1    1    2  501    0 -0.34147948609E+02  0.49396766856E+02 -0.60715799773E+03  0.61012044481E+03  0.00000000000E+00 0. -1.
          1    1    1    2  502    0  0.33792755541E+01  0.20283819787E+02  0.24535285178E+03  0.24621306774E+03  0.00000000000E+00 0. -1.
         22    1    3    3    0    0 -0.16408224924E+01 -0.81802178269E+02  0.63688300323E+03  0.64211700528E+03  0.00000000000E+00 0. -1.
         22    1    3    3    0    0  0.32409495547E+02  0.12121591626E+02  0.12335104550E+04  0.12339956851E+04  0.00000000000E+00 0. -1.
</event>
<event>
 7    1  0.7118985E-006  0.1344258E+03  0.7818608E-02  0.1254861E+00
          2   -1    0    0  502    0  0.00000000000E+00  0.00000000000E+00  0.19458974287E+03  0.19458974287E+03  0.00000000000E+00 0. -1.
          1   -1    0    0  501    0 -0.00000000000E+00 -0.00000000000E+00 -0.13948455854E+04  0.13948455854E+04  0.00000000000E+00 0. -1.
         25    2    1    2    0    0 -0.64549975603E+01 -0.14542973348E+03 -0.39978536605E+03  0.44344625093E+03  0.12499905671E+03 0.  0.
          2    1    1    2  501    0 -0.82249083814E+02  0.11079302506E+03 -0.95475965010E+03  0.96467921904E+03  0.00000000000E+00 0. -1.
          1    1    1    2  502    0  0.88704081374E+02  0.34636708424E+02  0.15428917362E+03  0.18130985831E+03  0.00000000000E+00 0. -1.
         22    1    3    3    0    0  0.36668624184E+02 -0.92002546038E+01 -0.34398112639E+02  0.51112257213E+02  0.00000000000E+00 0. -1.
         22    1    3    3    0    0 -0.43123621744E+02 -0.13622947888E+03 -0.36538725341E+03  0.39233399371E+03  0.00000000000E+00 0. -1.
</event>
<event>
 7    1  0.7118985E-006  0.3489975E+02  0.7818608E-02  0.1576270E+00
          2   -1    0    0  502    0  0.00000000000E+00  0.00000000000E+00  0.58816492167E+02  0.58816492167E+02  0.00000000000E+00 0. -1.
          1   -1    0    0  501    0 -0.00000000000E+00 -0.00000000000E+00 -0.15877626412E+04  0.15877626412E+04  0.00000000000E+00 0. -1.
         25    2    1    2    0    0 -0.39204586236E+02 -0.18398632478E+02 -0.69989361875E+03  0.71228601308E+03  0.12499911043E+03 0.  0.
          2    1    1    2  501    0  0.13281894437E+02  0.32417159143E+02 -0.87716929534E+03  0.87786858562E+03  0.00000000000E+00 0. -1.
          1    1    1    2  502    0  0.25922691799E+02 -0.14018526666E+02  0.48116765023E+02  0.56424534701E+02  0.00000000000E+00 0. -1.
         22    1    3    3    0    0 -0.78689285611E+02 -0.27264147308E+01 -0.30066609716E+03  0.31080466372E+03  0.00000000000E+00 0.  1.
         22    1    3    3    0    0  0.39484699375E+02 -0.15672217747E+02 -0.39922752159E+03  0.40148134937E+03  0.00000000000E+00 0.  1.
</event>
<event>
 7    1  0.7118985E-006  0.1250203E+03  0.7818608E-02  0.1254943E+00
          2   -1    0    0  502    0  0.00000000000E+00  0.00000000000E+00  0.48050638267E+03  0.48050638267E+03  0.00000000000E+00 0. -1.
          1   -1    0    0  501    0 -0.00000000000E+00 -0.00000000000E+00 -0.38207388028E+04  0.38207388028E+04  0.00000000000E+00 0. -1.
         25    2    1    2    0    0  0.13263861144E+03 -0.14679520199E+03 -0.88847093491E+03  0.91877471692E+03  0.12499818272E+03 0.  0.
          2    1    1    2  501    0 -0.11091063462E+03  0.46821120081E+02 -0.29102333037E+04  0.29127223123E+04  0.00000000000E+00 0. -1.
          1    1    1    2  502    0 -0.21727976827E+02  0.99974081906E+02  0.45847181849E+03  0.46974815633E+03  0.00000000000E+00 0. -1.
         22    1    3    3    0    0  0.56830867909E+02 -0.14378005978E+03 -0.51636186252E+03  0.53901022829E+03  0.00000000000E+00 0. -1.
         22    1    3    3    0    0  0.75807743534E+02 -0.30151422112E+01 -0.37210907240E+03  0.37976448863E+03  0.00000000000E+00 0. -1.
</event>
<event>
 7    1  0.7118985E-006  0.9948162E+02  0.7818608E-02  0.1467724E+00
          2   -1    0    0  502    0  0.00000000000E+00  0.00000000000E+00  0.10876982199E+03  0.10876982199E+03  0.00000000000E+00 0. -1.
          1   -1    0    0  501    0 -0.00000000000E+00 -0.00000000000E+00 -0.77727128396E+03  0.77727128396E+03  0.00000000000E+00 0. -1.
         25    2    1    2    0    0 -0.60845005911E+02 -0.59460279912E+02 -0.29050872668E+03  0.32749906069E+03  0.12499069904E+03 0.  0.
          2    1    1    2  501    0  0.66626280987E+02  0.80004494720E+02 -0.46111544368E+03  0.47272320960E+03  0.00000000000E+00 0. -1.
          1    1    1    2  502    0 -0.57812750760E+01 -0.20544214808E+02  0.83122708393E+02  0.85818835661E+02  0.00000000000E+00 0. -1.
         22    1    3    3    0    0 -0.56696450792E+02  0.12619029721E+02 -0.50837020162E+02  0.77188924480E+02  0.00000000000E+00 0.  1.
         22    1    3    3    0    0 -0.41485551194E+01 -0.72079309632E+02 -0.23967170652E+03  0.25031013621E+03  0.00000000000E+00 0.  1.
</event>
<event>
 7    1  0.7118985E-006  0.2091611E+03  0.7818608E-02  0.1363596E+00
          2   -1    0    0  502    0  0.00000000000E+00  0.00000000000E+00  0.28185754125E+03  0.28185754125E+03  0.00000000000E+00 0. -1.
          1   -1    0    0  501    0 -0.00000000000E+00 -0.00000000000E+00 -0.14419105337E+04  0.14419105337E+04  0.00000000000E+00 0. -1.
         25    2    1    2    0    0  0.12309284038E+03  0.15859444482E+03 -0.15780805643E+03  0.28431085534E+03  0.12500093804E+03 0.  0.
          2    1    1    2  501    0 -0.14502735212E+03 -0.15256044642E+03 -0.12111558889E+04  0.12293112746E+04  0.00000000000E+00 0. -1.
          1    1    1    2  502    0  0.21934511739E+02 -0.60339983945E+01  0.20891095291E+03  0.21014594497E+03  0.00000000000E+00 0. -1.
         22    1    3    3    0    0  0.42771311614E+02  0.68403993881E+02 -0.14089923431E+03  0.16236097347E+03  0.00000000000E+00 0. -1.
         22    1    3    3    0    0  0.80321528769E+02  0.90190450936E+02 -0.16908822124E+02  0.12194988188E+03  0.00000000000E+00 0. -1.
</event>
<event>
 7    1  0.7118985E-006  0.3766321E+02  0.7818608E-02  0.1573489E+00
          2   -1    0    0  502    0  0.00000000000E+00  0.00000000000E+00  0.10097376498E+04  0.10097376498E+04  0.00000000000E+00 0. -1.
          1   -1    0    0  501    0 -0.00000000000E+00 -0.00000000000E+00 -0.77368272290E+02  0.77368272290E+02  0.00000000000E+00 0. -1.
         25    2    1    2    0    0  0.22443584796E+02  0.17679608952E+01  0.22634311905E+03  0.25954355587E+03  0.12499923866E+03 0.  0.
          2    1    1    2  501    0  0.63148897795E+01 -0.27057066886E+02 -0.57086742087E+02  0.63489044910E+02  0.00000000000E+00 0. -1.
          1    1    1    2  502    0 -0.28758474576E+02  0.25289105990E+02  0.76311300058E+03  0.76407332135E+03  0.00000000000E+00 0. -1.
         22    1    3    3    0    0  0.28230134767E+02  0.59272656487E+02  0.89510952250E+02  0.11100630112E+03  0.00000000000E+00 0. -1.
         22    1    3    3    0    0 -0.57865499710E+01 -0.57504695592E+02  0.13683216680E+03  0.14853725475E+03  0.00000000000E+00 0. -1.
</event>
<event>
 7    1  0.7118985E-006  0.1091731E+03  0.7818608E-02  0.1276183E+00
          2   -1    0    0  502    0  0.00000000000E+00  0.00000000000E+00  0.13834291464E+04  0.13834291464E+04  0.00000000000E+00 0. -1.
          1   -1    0    0  501    0 -0.00000000000E+00 -0.00000000000E+00 -0.10988433734E+04  0.10988433734E+04  0.00000000000E+00 0. -1.
         25    2    1    2    0    0 -0.19738334277E+03  0.99453346473E+01 -0.10314484008E+03  0.25558338924E+03  0.12499966854E+03 0.  0.
          2    1    1    2  501    0  0.10309455505E+03 -0.23544002457E+02 -0.91469328963E+03  0.92078587165E+03  0.00000000000E+00 0. -1.
          1    1    1    2  502    0  0.94288787718E+02  0.13598667809E+02  0.13024239027E+04  0.13059032589E+04  0.00000000000E+00 0. -1.
         22    1    3    3    0    0 -0.63603990961E+02  0.63376762862E+02 -0.39082085706E+02  0.97925947329E+02  0.00000000000E+00 0. -1.
         22    1    3    3    0    0 -0.13377935181E+03 -0.53431428215E+02 -0.64062754375E+02  0.15765744191E+03  0.00000000000E+00 0. -1.
</event>
<event>
 7    1  0.7118985E-006  0.8377647E+02  0.7818608E-02  0.1371749E+00
          2   -1    0    0  502    0  0.00000000000E+00  0.00000000000E+00  0.27312181205E+04  0.27312181205E+04  0.00000000000E+00 0. -1.
          1   -1    0    0  501    0 -0.00000000000E+00 -0.00000000000E+00 -0.17714644092E+03  0.17714644092E+03  0.00000000000E+00 0. -1.
         25    2    1    2    0    0 -0.86971351336E+02  0.45928040102E+02  0.47524020245E+02  0.16600024151E+03  0.12499658740E+03 0.  0.
          2    1    1    2  501    0  0.83329641278E+02  0.70246179440E+01 -0.10277685254E+03  0.13250002185E+03  0.00000000000E+00 0. -1.
          1    1    1    2  502    0  0.36417100581E+01 -0.52952658046E+02  0.26093245119E+04  0.26098642981E+04  0.00000000000E+00 0. -1.
         22    1    3    3    0    0 -0.54572961917E+02  0.10393792754E+02  0.87379233021E+02  0.10354404601E+03  0.00000000000E+00 0.  1.
         22    1    3    3    0    0 -0.32398389419E+02  0.35534247348E+02 -0.39855212776E+02  0.62456195505E+02  0.00000000000E+00 0.  1.
</event>
<event>
 7    1  0.7118985E-006  0.9939787E+02  0.7818608E-02  0.1447229E+00
          2   -1    0    0  502    0  0.00000000000E+00  0.00000000000E+00  0.13565965423E+04  0.13565965423E+04  0.00000000000E+00 0. -1.
          1   -1    0    0  501    0 -0.00000000000E+00 -0.00000000000E+00 -0.82498571243E+02  0.82498571243E+02  0.00000000000E+00 0. -1.
         25    2    1    2    0    0 -0.36356281099E+01  0.91739080933E+02  0.66338004366E+03  0.68126910024E+03  0.12500091140E+03 0.  0.
          2    1    1    2  501    0  0.28088896909E+02 -0.95885575491E+02 -0.39277136750E+02  0.10735792094E+03  0.00000000000E+00 0. -1.
          1    1    1    2  502    0 -0.24453268799E+02  0.41464945578E+01  0.64999506415E+03  0.65046809237E+03  0.00000000000E+00 0. -1.
         22    1    3    3    0    0  0.25236496632E+02  0.11462602679E+03  0.47194853761E+03  0.48632440709E+03  0.00000000000E+00 0. -1.
         22    1    3    3    0    0 -0.28872124742E+02 -0.22886945859E+02  0.19143150605E+03  0.19494469315E+03  0.00000000000E+00 0. -1.
</event>
<event>
 7    1  0.7118985E-006  0.6891871E+02  0.7818608E-02  0.1409615E+00
          2   -1    0    0  502    0  0.00000000000E+00  0.00000000000E+00  0.65851076492E+02  0.65851076492E+02  0.00000000000E+00 0. -1.
          1   -1    0    0  501    0 -0.00000000000E+00 -0.00000000000E+00 -0.95217550565E+03  0.95217550565E+03  0.00000000000E+00 0. -1.
         25    2    1    2    0    0 -0.23428441372E+02  0.10880070030E+03 -0.25342539547E+03  0.30369583544E+03  0.12498097914E+03 0.  0.
          2    1    1    2  501    0  0.17019344738E+01 -0.47576012808E+02 -0.64625546656E+03  0.64800655987E+03  0.00000000000E+00 0. -1.
          1    1    1    2  502    0  0.21726506898E+02 -0.61224687488E+02  0.13356432868E+02  0.66324186833E+02  0.00000000000E+00 0. -1.
         22    1    3    3    0    0 -0.33435978178E+02  0.55206687472E+02 -0.25594163250E+02  0.69432011139E+02  0.00000000000E+00 0. -1.
         22    1    3    3    0    0  0.10007536806E+02  0.53594012825E+02 -0.22783123222E+03  0.23426382430E+03  0.00000000000E+00 0. -1.
</event>
<event>
 7    1  0.7118985E-006  0.1311476E+03  0.7818608E-02  0.1414825E+00
          2   -1    0    0  502    0  0.00000000000E+00  0.00000000000E+00  0.12753948045E+04  0.12753948045E+04  0.00000000000E+00 0. -1.
          1   -1    0    0  501    0 -0.00000000000E+00 -0.00000000000E+00 -0.31406477316E+03  0.31406477316E+03  0.00000000000E+00 0. -1.
         25    2    1    2    0    0 -0.10222778192E+03  0.53039452415E+02  0.34122634676E+03  0.38121437331E+03  0.12500110312E+03 0.  0.
          2    1    1    2  501    0 -0.10639591075E+02  0.21539426079E+02 -0.28856406884E+03  0.28956237601E+03  0.00000000000E+00 0. -1.
          1    1    1    2  502    0  0.11286737299E+03 -0.74578878494E+02  0.90866775338E+03  0.91868282831E+03  0.00000000000E+00 0. -1.
         22    1    3    3    0    0 -0.11609695943E+03  0.35470179562E+02  0.33731147992E+03  0.35849082570E+03  0.00000000000E+00 0. -1.
         22    1    3    3    0    0  0.13869177508E+02  0.17569272853E+02  0.39148668423E+01  0.22723547604E+02  0.00000000000E+00 0. -1.
</event>
<event>
 7    1  0.7118985E-006  0.1431761E+03  0.7818608E-02  0.1262547E+00
          2   -1    0    0  502    0  0.00000000000E+00  0.00000000000E+00  0.18274495453E+04  0.18274495453E+04  0.00000000000E+00 0. -1.
          1   -1    0    0  501    0 -0.00000000000E+00 -0.00000000000E+00 -0.12418159506E+04  0.12418159506E+04  0.00000000000E+00 0. -1.
         25    2    1    2    0    0  0.16981354485E+03 -0.56459979735E+02  0.80016520628E+03  0.82940686837E+03  0.12500810628E+03 0.  0.
          2    1    1    2  501    0 -0.10047694742E+03  0.10188106885E+03 -0.12213149447E+04  0.12296688836E+04  0.00000000000E+00 0. -1.
          1    1    1    2  502    0 -0.69336597425E+02 -0.45421089118E+02  0.10067833330E+04  0.10101897439E+04  0.00000000000E+00 0. -1.
         22    1    3    3    0    0  0.59000184263E+02  0.30852511586E+02  0.15001445509E+03  0.16412567121E+03  0.00000000000E+00 0.  1.
         22    1    3    3    0    0  0.11081336059E+03 -0.87312491320E+02  0.65015075119E+03  0.66528119716E+03  0.00000000000E+00 0.  1.
</event>
<event>
 7    1  0.7118985E-006  0.1032045E+03  0.7818608E-02  0.1386817E+00
          2   -1    0    0  502    0  0.00000000000E+00  0.00000000000E+00  0.31197988960E+03  0.31197988960E+03  0.00000000000E+00 0. -1.
          1   -1    0    0  501    0 -0.00000000000E+00 -0.00000000000E+00 -0.14978057497E+03  0.14978057497E+03  0.00000000000E+00 0. -1.
         25    2    1    2    0    0 -0.53148990597E+01 -0.12964855082E+03  0.31164581351E+02  0.18285346806E+03  0.12500865877E+03 0.  0.
          2    1    1    2  501    0 -0.10606591258E+02  0.95036120179E+02 -0.40018559641E+02  0.10366218709E+03  0.00000000000E+00 0. -1.
          1    1    1    2  502    0  0.15921490317E+02  0.34612430643E+02  0.17105329292E+03  0.17524480942E+03  0.00000000000E+00 0. -1.
         22    1    3    3    0    0 -0.23640025986E+02 -0.47377184527E+02  0.71856870365E+02  0.89257258870E+02  0.00000000000E+00 0.  1.
         22    1    3    3    0    0  0.18325126926E+02 -0.82271366296E+02 -0.40692289014E+02  0.93596209187E+02  0.00000000000E+00 0.  1.
</event>
<event>
 7    1  0.7118985E-006  0.4904929E+02  0.7818608E-02  0.1451746E+00
          2   -1    0    0  502    0  0.00000000000E+00  0.00000000000E+00  0.14208553171E+02  0.14208553171E+02  0.00000000000E+00 0. -1.
          1   -1    0    0  501    0 -0.00000000000E+00 -0.00000000000E+00 -0.10677400084E+04  0.10677400084E+04  0.00000000000E+00 0. -1.
         25    2    1    2    0    0 -0.20138964755E+02 -0.69365428341E+01 -0.57358444466E+03  0.58743341752E+03  0.12500084534E+03 0.  0.
          2    1    1    2  501    0  0.25218354311E+02  0.55722118159E+02 -0.35599979133E+03  0.36121568525E+03  0.00000000000E+00 0. -1.
          1    1    1    2  502    0 -0.50793895567E+01 -0.48785575325E+02 -0.12394721919E+03  0.13329945875E+03  0.00000000000E+00 0. -1.
         22    1    3    3    0    0  0.43823418040E+02 -0.31343811100E+02 -0.17824669476E+03  0.18621173608E+03  0.00000000000E+00 0.  1.
         22    1    3    3    0    0 -0.63962382795E+02  0.24407268265E+02 -0.39533774990E+03  0.40122168144E+03  0.00000000000E+00 0.  1.
</event>
<event>
 7    1  0.7118985E-006  0.9920029E+02  0.7818608E-02  0.1455239E+00
          2   -1    0    0  502    0  0.00000000000E+00  0.00000000000E+00  0.25702648398E+04  0.25702648398E+04  0.00000000000E+00 0. -1.
          1   -1    0    0  501    0 -0.00000000000E+00 -0.00000000000E+00 -0.20264967267E+03  0.20264967267E+03  0.00000000000E+00 0. -1.
         25    2    1    2    0    0  0.46919639323E+02  0.62278095949E+02  0.34640196747E+03  0.37643142353E+03  0.12500511897E+03 0.  0.
          2    1    1    2  501    0  0.18308490774E+02  0.14620697474E+02 -0.18574777682E+03  0.18721966302E+03  0.00000000000E+00 0. -1.
          1    1    1    2  502    0 -0.65228130096E+02 -0.76898793423E+02  0.22069609765E+04  0.22092634260E+04  0.00000000000E+00 0. -1.
         22    1    3    3    0    0  0.82293837811E+02  0.17300960702E+02  0.25584520132E+03  0.26931090959E+03  0.00000000000E+00 0. -1.
         22    1    3    3    0    0 -0.35374198489E+02  0.44977135246E+02  0.90556766145E+02  0.10712051395E+03  0.00000000000E+00 0. -1.
</event>
<event>
 7    1  0.7118985E-006  0.5946717E+02  0.7818608E-02  0.1441744E+00
          2   -1    0    0  502    0  0.00000000000E+00  0.00000000000E+00  0.65568392809E+03  0.65568392809E+03  0.00000000000E+00 0. -1.
          1   -1    0    0  501    0 -0.00000000000E+00 -0.00000000000E+00 -0.14115323468E+04  0.14115323468E+04  0.00000000000E+00 0. -1.
         25    2    1    2    0    0  0.45385846321E+02  0.39099470607E+02 -0.79818464363E+03  0.81012397526E+03  0.12495393676E+03 0.  0.
          2    1    1    2  501    0  0.14082262578E+02 -0.40818741288E+02 -0.60524535582E+03  0.60678366861E+03  0.00000000000E+00 0. -1.
          1    1    1    2  502    0 -0.59468108899E+02  0.17192706818E+01  0.64758158073E+03  0.65030863101E+03  0.00000000000E+00 0. -1.
         22    1    3    3    0    0  0.77783874756E+02  0.36944841671E+02 -0.72453837498E+03  0.72963765618E+03  0.00000000000E+00 0. -1.
         22    1    3    3    0    0 -0.32398028435E+02  0.21546289356E+01 -0.73646268653E+02  0.80486319078E+02  0.00000000000E+00 0. -1.
</event>
<event>
 7    1  0.7118985E-006  0.1638459E+03  0.7818608E-02  0.1296277E+00
          2   -1    0    0  502    0  0.00000000000E+00  0.00000000000E+00  0.18771257410E+04  0.18771257410E+04  0.00000000000E+00 0. -1.
          1   -1    0    0  501    0 -0.00000000000E+00 -0.00000000000E+00 -0.49518577755E+02  0.49518577755E+02  0.00000000000E+00 0. -1.
         25    2    1    2    0    0 -0.81843426637E+02 -0.97413618065E+02  0.10261344933E+04  0.10415245367E+04  0.12503440627E+03 0.  0.
          2    1    1    2  501    0  0.13367730396E+03  0.10592383741E+03  0.13751815739E+03  0.21909067651E+03  0.00000000000E+00 0. -1.
          1    1    1    2  502    0 -0.51833877323E+02 -0.85102193409E+01  0.66395451260E+03  0.66602910557E+03  0.00000000000E+00 0. -1.
         22    1    3    3    0    0 -0.10301596800E+02  0.15808830502E+02  0.24242619822E+02  0.30720459539E+02  0.00000000000E+00 0. -1.
         22    1    3    3    0    0 -0.71541829837E+02 -0.11322244857E+03  0.10018918734E+04  0.10108040771E+04  0.00000000000E+00 0. -1.
</event>
<event>
 7    1  0.7118985E-006  0.1121982E+03  0.7818608E-02  0.1410901E+00
          2   -1    0    0  502    0  0.00000000000E+00  0.00000000000E+00  0.22219184650E+04  0.22219184650E+04  0.00000000000E+00 0. -1.
          1   -1    0    0  501    0 -0.00000000000E+00 -0.00000000000E+00 -0.22018777002E+03  0.22018777002E+03  0.00000000000E+00 0. -1.
         25    2    1    2    0    0  0.92852656023E+02 -0.51615816204E+02  0.17484527742E+04  0.17561321874E+04  0.12500939093E+03 0.  0.
          2    1    1    2  501    0 -0.80813679076E+02  0.77944674445E+02 -0.20128943775E+03  0.23048570617E+03  0.00000000000E+00 0. -1.
          1    1    1    2  502    0 -0.12038976947E+02 -0.26328858241E+02  0.45456735863E+03  0.45548834154E+03  0.00000000000E+00 0. -1.
         22    1    3    3    0    0  0.10656866474E+03  0.41061826575E+01  0.11495517724E+04  0.11544882063E+04  0.00000000000E+00 0.  1.
         22    1    3    3    0    0 -0.13716008718E+02 -0.55721998862E+02  0.59890100173E+03  0.60164398104E+03  0.00000000000E+00 0.  1.
</event>
<event>
 7    1  0.7118985E-006  0.7696760E+02  0.7818608E-02  0.1397295E+00
          2   -1    0    0  502    0  0.00000000000E+00  0.00000000000E+00  0.78662937340E+03  0.78662937340E+03  0.00000000000E+00 0. -1.
          1   -1    0    0  501    0 -0.00000000000E+00 -0.00000000000E+00 -0.12165783991E+04  0.12165783991E+04  0.00000000000E+00 0. -1.
         25    2    1    2    0    0  0.29913189793E+02 -0.26794625246E+02 -0.83541327993E+01  0.13155932255E+03  0.12500125179E+03 0.  0.
          2    1    1    2  501    0  0.46172281194E+02  0.86353030083E+01 -0.11440284654E+04  0.11449923920E+04  0.00000000000E+00 0. -1.
          1    1    1    2  502    0 -0.76085470987E+02  0.18159322238E+02  0.72243357252E+03  0.72665605797E+03  0.00000000000E+00 0. -1.
         22    1    3    3    0    0 -0.33147130551E+02  0.14731255098E+02  0.29815970257E+02  0.46954597463E+02  0.00000000000E+00 0. -1.
         22    1    3    3    0    0  0.63060320344E+02 -0.41525880344E+02 -0.38170103056E+02  0.84604725090E+02  0.00000000000E+00 0. -1.
</event>
<event>
 7    1  0.7118985E-006  0.6698383E+02  0.7818608E-02  0.1397078E+00
          2   -1    0    0  502    0  0.00000000000E+00  0.00000000000E+00  0.17993760946E+04  0.17993760946E+04  0.00000000000E+00 0. -1.
          1   -1    0    0  501    0 -0.00000000000E+00 -0.00000000000E+00 -0.72708526320E+02  0.72708526320E+02  0.00000000000E+00 0. -1.
         25    2    1    2    0    0 -0.43329700317E+02  0.63140316573E+02  0.19653442789E+03  0.24518526313E+03  0.12500347758E+03 0.  0.
          2    1    1    2  501    0 -0.22510027911E+02 -0.49158478885E+02 -0.32324191781E+02  0.62992942280E+02  0.00000000000E+00 0. -1.
          1    1    1    2  502    0  0.65839728228E+02 -0.13981837688E+02  0.15624573322E+04  0.15639064155E+04  0.00000000000E+00 0. -1.
         22    1    3    3    0    0 -0.25868924482E+02  0.62709027420E+02  0.21154505632E+03  0.22215520301E+03  0.00000000000E+00 0.  1.
         22    1    3    3    0    0 -0.17460775835E+02  0.43128915349E+00 -0.15010628432E+02  0.23030060118E+02  0.00000000000E+00 0.  1.
</event>
<event>
 7    1  0.7118985E-006  0.3880058E+02  0.7818608E-02  0.1583953E+00
          2   -1    0    0  502    0  0.00000000000E+00  0.00000000000E+00  0.10494308731E+04  0.10494308731E+04  0.00000000000E+00 0. -1.
          1   -1    0    0  501    0 -0.00000000000E+00 -0.00000000000E+00 -0.61848333241E+02  0.61848333241E+02  0.00000000000E+00 0. -1.
         25    2    1    2    0    0 -0.13595154308E+02 -0.10992942540E+02  0.80103643916E+02  0.14949088218E+03  0.12500102831E+03 0.  0.
          2    1    1    2  501    0  0.37973124280E+02  0.17684417351E+02 -0.10721963799E+02  0.43239533905E+02  0.00000000000E+00 0. -1.
          1    1    1    2  502    0 -0.24377969972E+02 -0.66914748111E+01  0.91820085975E+03  0.91854879027E+03  0.00000000000E+00 0. -1.
         22    1    3    3    0    0  0.18376654776E+02 -0.41172808806E+02 -0.12663571504E+02  0.46832335720E+02  0.00000000000E+00 0.  1.
         22    1    3    3    0    0 -0.31971809084E+02  0.30179866266E+02  0.92767215420E+02  0.10265854646E+03  0.00000000000E+00 0.  1.
</event>
<event>
 7    1  0.7118985E-006  0.9340413E+02  0.7818608E-02  0.1473779E+00
          2   -1    0    0  502    0  0.00000000000E+00  0.00000000000E+00  0.84485240525E+03  0.84485240525E+03  0.00000000000E+00 0. -1.
          1   -1    0    0  501    0 -0.00000000000E+00 -0.00000000000E+00 -0.20526270833E+03  0.20526270833E+03  0.00000000000E+00 0. -1.
         25    2    1    2    0    0  0.10557739926E+03 -0.14943018023E+02  0.32594545996E+03  0.36501419031E+03  0.12500014095E+03 0.  0.
          2    1    1    2  501    0 -0.14769356107E+02  0.15989651663E+02 -0.18094188146E+03  0.18224644663E+03  0.00000000000E+00 0. -1.
          1    1    1    2  502    0 -0.90808043151E+02 -0.10466336401E+01  0.49458611842E+03  0.50285447664E+03  0.00000000000E+00 0. -1.
         22    1    3    3    0    0  0.11193050839E+03  0.29394858886E+02  0.26684340139E+03  0.29085717681E+03  0.00000000000E+00 0. -1.
         22    1    3    3    0    0 -0.63531091279E+01 -0.44337876908E+02  0.59102058575E+02  0.74157013506E+02  0.00000000000E+00 0. -1.
</event>
<event>
 7    1  0.7118985E-006  0.4796662E+02  0.7818608E-02  0.1525367E+00
          2   -1    0    0  502    0  0.00000000000E+00  0.00000000000E+00  0.11239894056E+04  0.11239894056E+04  0.00000000000E+00 0. -1.
          1   -1    0    0  501    0 -0.00000000000E+00 -0.00000000000E+00 -0.32670167405E+03  0.32670167405E+03  0.00000000000E+00 0. -1.
         25    2    1    2    0    0  0.43717843176E+02 -0.38201033990E+02  0.80120422195E+02  0.15941922759E+03  0.12499855705E+03 0.  0.
          2    1    1    2  501    0 -0.14914609225E+02  0.45552133780E+02 -0.28482941409E+03  0.28883427358E+03  0.00000000000E+00 0. -1.
          1    1    1    2  502    0 -0.28803233951E+02 -0.73510997903E+01  0.10019967234E+04  0.10024375785E+04  0.00000000000E+00 0. -1.
         22    1    3    3    0    0  0.79970238845E+02 -0.47069802219E+02  0.31223554263E+02  0.97906668428E+02  0.00000000000E+00 0.  1.
         22    1    3    3    0    0 -0.36252395669E+02  0.88687682284E+01  0.48896867932E+02  0.61512559166E+02  0.00000000000E+00 0.  1.
</event>
<event>
 7    1  0.7118985E-006  0.8456929E+02  0.7818608E-02  0.1368897E+00
          2   -1    0    0  502    0  0.00000000000E+00  0.00000000000E+00  0.14976767579E+04  0.14976767579E+04  0.00000000000E+00 0. -1.
          1   -1    0    0  501    0 -0.00000000000E+00 -0.00000000000E+00 -0.13444752258E+04  0.13444752258E+04  0.00000000000E+00 0. -1.
         25    2    1    2    0    0  0.12788355469E+03  0.40705587976E+02  0.27457144005E+03  0.33019147973E+03  0.12500315652E+03 0.  0.
          2    1    1    2  501    0 -0.74048602229E+02 -0.40411908282E+02 -0.13147065088E+04  0.13174101571E+04  0.00000000000E+00 0. -1.
          1    1    1    2  502    0 -0.53834952459E+02 -0.29367969429E+00  0.11933366008E+04  0.11945503469E+04  0.00000000000E+00 0. -1.
         22    1    3    3    0    0  0.46076360852E+02  0.63500948202E+02  0.20793808965E+03  0.22224682355E+03  0.00000000000E+00 0. -1.
         22    1    3    3    0    0  0.81807193836E+02 -0.22795360226E+02  0.66633350405E+02  0.10794465618E+03  0.00000000000E+00 0. -1.
</event>
<event>
 7    1  0.7118985E-006  0.1151106E+03  0.7818608E-02  0.1362643E+00
          2   -1    0    0  502    0  0.00000000000E+00  0.00000000000E+00  0.37947313987E+03  0.37947313987E+03  0.00000000000E+00 0. -1.
          1   -1    0    0  501    0 -0.00000000000E+00 -0.00000000000E+00 -0.33074197101E+04  0.33074197101E+04  0.00000000000E+00 0. -1.
         25    2    1    2    0    0 -0.12916878996E+03  0.64287798131E+02 -0.35828805486E+03  0.40597161722E+03  0.12500050579E+03 0.  0.
          2    1    1    2  501    0  0.88230505176E+02 -0.72048065165E+02 -0.29229561988E+04  0.29251749496E+04  0.00000000000E+00 0. -1.
          1    1    1    2  502    0  0.40938284787E+02  0.77602670349E+01  0.35329768339E+03  0.35574628318E+03  0.00000000000E+00 0. -1.
         22    1    3    3    0    0 -0.41262473019E+02  0.80543482467E+02 -0.11219481855E+03  0.14414409997E+03  0.00000000000E+00 0.  1.
         22    1    3    3    0    0 -0.87906316943E+02 -0.16255684337E+02 -0.24609323631E+03  0.26182751725E+03  0.00000000000E+00 0.  1.
</event>
<event>
 7    1  0.7118985E-006  0.5200783E+02  0.7818608E-02  0.1474989E+00
          2   -1    0    0  502    0  0.00000000000E+00  0.00000000000E+00  0.70993560515E+03  0.70993560515E+03  0.00000000000E+00 0. -1.
          1   -1    0    0  501    0 -0.00000000000E+00 -0.00000000000E+00 -0.45163891691E+03  0.45163891691E+03  0.00000000000E+00 0. -1.
         25    2    1    2    0    0 -0.71875259026E+02  0.67009398724E+01 -0.10957743772E+03  0.18122740746E+03  0.12500081160E+03 0.  0.
          2    1    1    2  501    0  0.25185770919E+02 -0.29458670664E+02 -0.30400383836E+03  0.30646446788E+03  0.00000000000E+00 0. -1.
          1    1    1    2  502    0  0.46689488106E+02  0.22757730791E+02  0.67187796433E+03  0.67388264672E+03  0.00000000000E+00 0. -1.
         22    1    3    3    0    0 -0.41810756990E+02 -0.16700133040E+02  0.17694963384E+02  0.48375051140E+02  0.00000000000E+00 0. -1.
         22    1    3    3    0    0 -0.30064502036E+02  0.23401072912E+02 -0.12727240111E+03  0.13285235632E+03  0.00000000000E+00 0. -1.
</event>
<event>
 7    1  0.7118985E-006  0.1520502E+03  0.7818608E-02  0.1222880E+00
          2   -1    0    0  502    0  0.00000000000E+00  0.00000000000E+00  0.29662134422E+03  0.29662134422E+03  0.00000000000E+00 0. -1.
          1   -1    0    0  501    0 -0.00000000000E+00 -0.00000000000E+00 -0.16560636723E+04  0.16560636723E+04  0.00000000000E+00 0. -1.
         25    2    1    2    0    0  0.90821357693E+01 -0.26441440802E+03 -0.94911315135E+02  0.30762112458E+03  0.12500053676E+03 0.  0.
          2    1    1    2  501    0 -0.36411822811E+01  0.14797208181E+03 -0.14327651876E+04  0.14403905991E+04  0.00000000000E+00 0. -1.
          1    1    1    2  502    0 -0.54409534882E+01  0.11644232621E+03  0.16823417460E+03  0.20467329287E+03  0.00000000000E+00 0. -1.
         22    1    3    3    0    0  0.56895318622E+02 -0.10216928267E+03 -0.73918274243E+01  0.11717627198E+03  0.00000000000E+00 0. -1.
         22    1    3    3    0    0 -0.47813182853E+02 -0.16224512535E+03 -0.87519487711E+02  0.19044485260E+03  0.00000000000E+00 0. -1.
</event>
<event>
 7    1  0.7118985E-006  0.1092558E+03  0.7818608E-02  0.1342574E+00
          2   -1    0    0  502    0  0.00000000000E+00  0.00000000000E+00  0.92182161792E+03  0.92182161792E+03  0.00000000000E+00 0. -1.
          1   -1    0    0  501    0 -0.00000000000E+00 -0.00000000000E+00 -0.13237930979E+03  0.13237930979E+03  0.00000000000E+00 0. -1.
         25    2    1    2    0    0  0.45367793884E+02  0.73947307984E+02  0.24956598793E+03  0.29229090365E+03  0.12499739576E+03 0.  0.
          2    1    1    2  501    0 -0.95431783685E+02 -0.59657642632E+02 -0.81121606210E+02  0.13873346624E+03  0.00000000000E+00 0. -1.
          1    1    1    2  502    0  0.50063989801E+02 -0.14289665352E+02  0.62099792641E+03  0.62317655782E+03  0.00000000000E+00 0. -1.
         22    1    3    3    0    0  0.31598728721E+02  0.10918889368E+03  0.19839666623E+03  0.22865242472E+03  0.00000000000E+00 0. -1.
         22    1    3    3    0    0  0.13769065162E+02 -0.35241585693E+02  0.51169321701E+02  0.63638478933E+02  0.00000000000E+00 0. -1.
</event>
<event>
 7    1  0.7118985E-006  0.1717927E+03  0.7818608E-02  0.1335457E+00
          2   -1    0    0  502    0  0.00000000000E+00  0.00000000000E+00  0.50703656606E+03  0.50703656606E+03  0.00000000000E+00 0. -1.
          1   -1    0    0  501    0 -0.00000000000E+00 -0.00000000000E+00 -0.40313073480E+03  0.40313073480E+03  0.00000000000E+00 0. -1.
         25    2    1    2    0    0  0.17023185076E+03 -0.64705248505E+02  0.37967308605E+02  0.22412503154E+03  0.12499944417E+03 0.  0.
          2    1    1    2  501    0 -0.25290210026E+02 -0.24512264148E+02 -0.28966940751E+03  0.29180269269E+03  0.00000000000E+00 0. -1.
          1    1    1    2  502    0 -0.14494164073E+03  0.89217512653E+02  0.35560793017E+03  0.39423957663E+03  0.00000000000E+00 0. -1.
         22    1    3    3    0    0  0.13982114707E+03 -0.38388093176E+02  0.80290566525E+02  0.16574128616E+03  0.00000000000E+00 0. -1.
         22    1    3    3    0    0  0.30410703686E+02 -0.26317155329E+02 -0.42323257920E+02  0.58383745377E+02  0.00000000000E+00 0. -1.
</event>
<event>
 7    1  0.7118985E-006  0.7347221E+02  0.7818608E-02  0.1432311E+00
          2   -1    0    0  502    0  0.00000000000E+00  0.00000000000E+00  0.15084644371E+03  0.15084644371E+03  0.00000000000E+00 0. -1.
          1   -1    0    0  501    0 -0.00000000000E+00 -0.00000000000E+00 -0.16059634859E+04  0.16059634859E+04  0.00000000000E+00 0. -1.
         25    2    1    2    0    0 -0.81759761723E+02  0.69058949127E+02 -0.29596311154E+03  0.33863460451E+03  0.12500173955E+03 0.  0.
          2    1    1    2  501    0  0.19477388640E+02 -0.32059654042E+02 -0.12782373788E+04  0.12787877020E+04  0.00000000000E+00 0. -1.
          1    1    1    2  502    0  0.62282373084E+02 -0.36999295085E+02  0.11908344821E+03  0.13938762309E+03  0.00000000000E+00 0. -1.
         22    1    3    3    0    0  0.29866743023E+02  0.25019815555E+02 -0.11568902901E+03  0.12207360461E+03  0.00000000000E+00 0.  1.
         22    1    3    3    0    0 -0.11162650475E+03  0.44039133571E+02 -0.18027408253E+03  0.21656099990E+03  0.00000000000E+00 0.  1.
</event>
<event>
 7    1  0.7118985E-006  0.1822685E+03  0.7818608E-02  0.1383460E+00
          2   -1    0    0  502    0  0.00000000000E+00  0.00000000000E+00  0.13714067957E+04  0.13714067957E+04  0.00000000000E+00 0. -1.
          1   -1    0    0  501    0 -0.00000000000E+00 -0.00000000000E+00 -0.94964698662E+03  0.94964698662E+03  0.00000000000E+00 0. -1.
         25    2    1    2    0    0  0.98123482643E+02 -0.17871213773E+03 -0.64442204282E+03  0.68736545426E+03  0.12500100963E+03 0.  0.
          2    1    1    2  501    0 -0.13801301791E+02  0.17345754347E+02 -0.27716968352E+03  0.27805464317E+03  0.00000000000E+00 0. -1.
          1    1    1    2  502    0 -0.84322180852E+02  0.16136638338E+03  0.13433515354E+04  0.13556336849E+04  0.00000000000E+00 0. -1.
         22    1    3    3    0    0  0.12087596204E+03 -0.15910373990E+03 -0.47522128806E+03  0.51551941852E+03  0.00000000000E+00 0.  1.
         22    1    3    3    0    0 -0.22752479398E+02 -0.19608397830E+02 -0.16920075476E+03  0.17184603573E+03  0.00000000000E+00 0.  1.
</event>
<event>
 7    1  0.7118985E-006  0.6379764E+03  0.7818608E-02  0.1135429E+00
          2   -1    0    0  502    0  0.00000000000E+00  0.00000000000E+00  0.13400320757E+04  0.13400320757E+04  0.00000000000E+00 0. -1.
          1   -1    0    0  501    0 -0.00000000000E+00 -0.00000000000E+00 -0.25358161726E+04  0.25358161726E+04  0.00000000000E+00 0. -1.
         25    2    1    2    0    0 -0.64335575085E+03  0.52406715193E+02 -0.18423036518E+04  0.19561078942E+04  0.12498904843E+03 0.  0.
          2    1    1    2  501    0  0.60933281815E+03 -0.11862775913E+03 -0.48376170742E+03  0.78700979542E+03  0.00000000000E+00 0. -1.
          1    1    1    2  502    0  0.34022932693E+02  0.66221043937E+02  0.11302812623E+04  0.11327305587E+04  0.00000000000E+00 0. -1.
         22    1    3    3    0    0 -0.24243586315E+03  0.25111807080E+02 -0.52386249343E+03  0.57778686608E+03  0.00000000000E+00 0.  1.
         22    1    3    3    0    0 -0.40091988769E+03  0.27294908113E+02 -0.13184411584E+04  0.13783210281E+04  0.00000000000E+00 0.  1.
</event>
<event>
 7    1  0.7118985E-006  0.3572130E+02  0.7818608E-02  0.1551665E+00
          2   -1    0    0  502    0  0.00000000000E+00  0.00000000000E+00  0.62653545342E+03  0.62653545342E+03  0.00000000000E+00 0. -1.
          1   -1    0    0  501    0 -0.00000000000E+00 -0.00000000000E+00 -0.86878779430E+02  0.86878779430E+02  0.00000000000E+00 0. -1.
         25    2    1    2    0    0 -0.19213256299E+02  0.15673720126E+02  0.15387289774E+02  0.12836267247E+03  0.12500156910E+03 0.  0.
          2    1    1    2  501    0  0.33103125916E+02  0.17236498926E+02 -0.18119465502E+02  0.41487695413E+02  0.00000000000E+00 0. -1.
          1    1    1    2  502    0 -0.13889869617E+02 -0.32910219052E+02  0.54238884972E+03  0.54356386497E+03  0.00000000000E+00 0. -1.
         22    1    3    3    0    0 -0.36852125887E+02 -0.37267406750E+02  0.41405026066E+02  0.66793075777E+02  0.00000000000E+00 0. -1.
         22    1    3    3    0    0  0.17638869587E+02  0.52941126876E+02 -0.26017736292E+02  0.61569596694E+02  0.00000000000E+00 0. -1.
</event>
<event>
 7    1  0.7118985E-006  0.8853706E+02  0.7818608E-02  0.1357357E+00
          2   -1    0    0  502    0  0.00000000000E+00  0.00000000000E+00  0.17533129921E+04  0.17533129921E+04  0.00000000000E+00 0. -1.
          1   -1    0    0  501    0 -0.00000000000E+00 -0.00000000000E+00 -0.12125119912E+03  0.12125119912E+03  0.00000000000E+00 0. -1.
         25    2    1    2    0    0 -0.76886900078E+02  0.95973786918E+02  0.21759041683E+03  0.27944940612E+03  0.12499527152E+03 0.  0.
          2    1    1    2  501    0  0.76999482198E+02 -0.39340073543E+02 -0.68962565510E+02  0.11060016766E+03  0.00000000000E+00 0. -1.
          1    1    1    2  502    0 -0.11258212009E+00 -0.56633713374E+02  0.14834339417E+04  0.14845146175E+04  0.00000000000E+00 0. -1.
         22    1    3    3    0    0 -0.10517566163E+03  0.53131364470E+02  0.11459672342E+03  0.16436931194E+03  0.00000000000E+00 0. -1.
         22    1    3    3    0    0  0.28288761555E+02  0.42842422447E+02  0.10299369342E+03  0.11508009417E+03  0.00000000000E+00 0. -1.
</event>
<event>
 7    1  0.7118985E-006  0.1424341E+03  0.7818608E-02  0.1288295E+00
          2   -1    0    0  502    0  0.00000000000E+00  0.00000000000E+00  0.46231874045E+04  0.46231874045E+04  0.00000000000E+00 0. -1.
          1   -1    0    0  501    0 -0.00000000000E+00 -0.00000000000E+00 -0.23347783681E+02  0.23347783681E+02  0.00000000000E+00 0. -1.
         25    2    1    2    0    0 -0.94130432102E+02 -0.48089921060E+01  0.13610570305E+04  0.13700310156E+04  0.12500031482E+03 0.  0.
          2    1    1    2  501    0  0.15223688213E+03 -0.24536059466E+02  0.30282533899E+03  0.33982535578E+03  0.00000000000E+00 0. -1.
          1    1    1    2  502    0 -0.58106450027E+02  0.29345051572E+02  0.29359572513E+04  0.29366788168E+04  0.00000000000E+00 0. -1.
         22    1    3    3    0    0 -0.38082941460E+02  0.26215777407E+02  0.11089101331E+04  0.11098735336E+04  0.00000000000E+00 0. -1.
         22    1    3    3    0    0 -0.56047490642E+02 -0.31024769513E+02  0.25214689747E+03  0.26015748198E+03  0.00000000000E+00 0. -1.
</event>
<event>
 7    1  0.7118985E-006  0.2073147E+03  0.7818608E-02  0.1156681E+00
          2   -1    0    0  502    0  0.00000000000E+00  0.00000000000E+00  0.18071998160E+04  0.18071998160E+04  0.00000000000E+00 0. -1.
          1   -1    0    0  501    0 -0.00000000000E+00 -0.00000000000E+00 -0.92006475672E+03  0.92006475672E+03  0.00000000000E+00 0. -1.
         25    2    1    2    0    0 -0.61224062137E+02  0.26844771533E+03  0.22727445619E+03  0.37827678354E+03  0.12500833923E+03 0.  0.
          2    1    1    2  501    0  0.15609085214E+03 -0.85125346318E+02 -0.82800193587E+03  0.84687536539E+03  0.00000000000E+00 0. -1.
          1    1    1    2  502    0 -0.94866790003E+02 -0.18332236902E+03  0.14878625390E+04  0.15021124238E+04  0.00000000000E+00 0. -1.
         22    1    3    3    0    0 -0.92739536656E+02  0.24707841322E+03  0.19190022125E+03  0.32630362985E+03  0.00000000000E+00 0.  1.
         22    1    3    3    0    0  0.31515474520E+02  0.21369302118E+02  0.35374234941E+02  0.51973153694E+02  0.00000000000E+00 0.  1.
</event>
<event>
 7    1  0.7118985E-006  0.1965150E+03  0.7818608E-02  0.1321926E+00
          2   -1    0    0  502    0  0.00000000000E+00  0.00000000000E+00  0.54435049171E+03  0.54435049171E+03  0.00000000000E+00 0. -1.
          1   -1    0    0  501    0 -0.00000000000E+00 -0.00000000000E+00 -0.82892115928E+03  0.82892115928E+03  0.00000000000E+00 0. -1.
         25    2    1    2    0    0 -0.17573769509E+03 -0.84889498160E+02  0.46855880954E+01  0.23182625719E+03  0.12502597497E+03 0.  0.
          2    1    1    2  501    0 -0.14235856072E+02  0.31633800812E+02 -0.69205418642E+03  0.69292305048E+03  0.00000000000E+00 0. -1.
          1    1    1    2  502    0  0.18997355116E+03  0.53255697348E+02  0.40279793074E+03  0.44852234331E+03  0.00000000000E+00 0. -1.
         22    1    3    3    0    0 -0.10236275008E+03 -0.78327562812E+02  0.57546096024E+02  0.14115556265E+03  0.00000000000E+00 0.  1.
         22    1    3    3    0    0 -0.73374945006E+02 -0.65619353480E+01 -0.52860507928E+02  0.90670694542E+02  0.00000000000E+00 0.  1.
</event>
<event>
 7    1  0.7118985E-006  0.1209949E+03  0.7818608E-02  0.1377177E+00
          2   -1    0    0  502    0  0.00000000000E+00  0.00000000000E+00  0.13677103410E+04  0.13677103410E+04  0.00000000000E+00 0. -1.
          1   -1    0    0  501    0 -0.00000000000E+00 -0.00000000000E+00 -0.56198118453E+02  0.56198118453E+02  0.00000000000E+00 0. -1.
         25    2    1    2    0    0  0.29460325112E+02  0.12440506681E+03  0.48084077565E+03  0.51300832819E+03  0.12500064743E+03 0.  0.
          2    1    1    2  501    0 -0.34880650313E+02 -0.43152540378E+01 -0.27327700871E+02  0.44520606673E+02  0.00000000000E+00 0. -1.
          1    1    1    2  502    0  0.54203252012E+01 -0.12008981278E+03  0.85799914772E+03  0.86637952454E+03  0.00000000000E+00 0. -1.
         22    1    3    3    0    0  0.41576494217E+02  0.10045699195E+03  0.17520558377E+03  0.20619701425E+03  0.00000000000E+00 0.  1.
         22    1    3    3    0    0 -0.12116169105E+02  0.23948074867E+02  0.30563519188E+03  0.30681131394E+03  0.00000000000E+00 0.  1.
</event>
<event>
 7    1  0.7118985E-006  0.8341253E+02  0.7818608E-02  0.1359281E+00
          2   -1    0    0  502    0  0.00000000000E+00  0.00000000000E+00  0.85045444697E+02  0.85045444697E+02  0.00000000000E+00 0. -1.
          1   -1    0    0  501    0 -0.00000000000E+00 -0.00000000000E+00 -0.91867787997E+03  0.91867787997E+03  0.00000000000E+00 0. -1.
         25    2    1    2    0    0  0.26403984940E+02 -0.42918473058E+00 -0.47736524603E+03  0.49416456268E+03  0.12499472898E+03 0.  0.
          2    1    1    2  501    0 -0.21639450183E+02  0.83705529426E+02 -0.40420791490E+03  0.41335084363E+03  0.00000000000E+00 0. -1.
          1    1    1    2  502    0 -0.47645347570E+01 -0.83276344696E+02  0.47940725660E+02  0.96207918354E+02  0.00000000000E+00 0. -1.
         22    1    3    3    0    0  0.27975538644E+02 -0.61024927011E+02 -0.24847549966E+03  0.25738443311E+03  0.00000000000E+00 0.  1.
         22    1    3    3    0    0 -0.15715537043E+01  0.60595742281E+02 -0.22888974637E+03  0.23678012957E+03  0.00000000000E+00 0.  1.
</event>
<event>
 7    1  0.7118985E-006  0.9388367E+02  0.7818608E-02  0.1294738E+00
          2   -1    0    0  502    0  0.00000000000E+00  0.00000000000E+00  0.19463413024E+04  0.19463413024E+04  0.00000000000E+00 0. -1.
          1   -1    0    0  501    0 -0.00000000000E+00 -0.00000000000E+00 -0.20359243623E+04  0.20359243623E+04  0.00000000000E+00 0. -1.
         25    2    1    2    0    0 -0.34796959427E+02 -0.12818155391E+02 -0.38961097817E+02  0.13608202872E+03  0.12500087162E+03 0.  0.
          2    1    1    2  501    0 -0.15041553065E+02  0.92670897589E+02 -0.19461032824E+04  0.19483665285E+04  0.00000000000E+00 0. -1.
          1    1    1    2  502    0  0.49838512492E+02 -0.79852742197E+02  0.18954813203E+04  0.18978171075E+04  0.00000000000E+00 0. -1.
         22    1    3    3    0    0 -0.49828491835E+02  0.38564027625E+02 -0.51173103990E+02  0.81171111839E+02  0.00000000000E+00 0.  1.
         22    1    3    3    0    0  0.15031532407E+02 -0.51382183016E+02  0.12212006173E+02  0.54910916882E+02  0.00000000000E+00 0.  1.
</event>
<event>
 7    1  0.7118985E-006  0.8695200E+02  0.7818608E-02  0.1316895E+00
          2   -1    0    0  502    0  0.00000000000E+00  0.00000000000E+00  0.47970782117E+03  0.47970782117E+03  0.00000000000E+00 0. -1.
          1   -1    0    0  501    0 -0.00000000000E+00 -0.00000000000E+00 -0.99436764240E+03  0.99436764240E+03  0.00000000000E+00 0. -1.
         25    2    1    2    0    0  0.38241875343E+02  0.43968697466E+01  0.21971592596E+03  0.25570072308E+03  0.12500399262E+03 0.  0.
          2    1    1    2  501    0 -0.21938809542E+02 -0.84766616692E+02 -0.96739336132E+03  0.97134782967E+03  0.00000000000E+00 0. -1.
          1    1    1    2  502    0 -0.16303065800E+02  0.80369746945E+02  0.23301761412E+03  0.24702691082E+03  0.00000000000E+00 0. -1.
         22    1    3    3    0    0 -0.92473540109E+01  0.42977531110E+02  0.17360722676E+03  0.17908671341E+03  0.00000000000E+00 0. -1.
         22    1    3    3    0    0  0.47489229354E+02 -0.38580661364E+02  0.46108699200E+02  0.76614009671E+02  0.00000000000E+00 0. -1.
</event>
<event>
 7    1  0.7118985E-006  0.5501891E+02  0.7818608E-02  0.1420223E+00
          2   -1    0    0  502    0  0.00000000000E+00  0.00000000000E+00  0.83778986220E+02  0.83778986220E+02  0.00000000000E+00 0. -1.
          1   -1    0    0  501    0 -0.00000000000E+00 -0.00000000000E+00 -0.17152140387E+04  0.17152140387E+04  0.00000000000E+00 0. -1.
         25    2    1    2    0    0  0.27952804269E+02 -0.32754200433E+02 -0.50024517503E+03  0.51742093316E+03  0.12499996007E+03 0.  0.
          2    1    1    2  501    0 -0.55900791089E+02 -0.14637679165E+02 -0.11955242217E+04  0.11969199325E+04  0.00000000000E+00 0. -1.
          1    1    1    2  502    0  0.27947986821E+02  0.47391879597E+02  0.64334344256E+02  0.84652159275E+02  0.00000000000E+00 0. -1.
         22    1    3    3    0    0  0.57616510988E+02  0.19843754792E+02 -0.35387693761E+03  0.35908539919E+03  0.00000000000E+00 0.  1.
         22    1    3    3    0    0 -0.29663706719E+02 -0.52597955225E+02 -0.14636823743E+03  0.15833553397E+03  0.00000000000E+00 0.  1.
</event>
<event>
 7    1  0.7118985E-006  0.4392287E+02  0.7818608E-02  0.1485630E+00
          2   -1    0    0  502    0  0.00000000000E+00  0.00000000000E+00  0.60060567950E+03  0.60060567950E+03  0.00000000000E+00 0. -1.
          1   -1    0    0  501    0 -0.00000000000E+00 -0.00000000000E+00 -0.22301593384E+03  0.22301593384E+03  0.00000000000E+00 0. -1.
         25    2    1    2    0    0  0.46620691754E+02 -0.19013002535E+02  0.25295162170E+03  0.28660674214E+03  0.12499567414E+03 0.  0.
          2    1    1    2  501    0 -0.11181471667E+02  0.42598624058E+02 -0.20244138365E+03  0.20717669245E+03  0.00000000000E+00 0. -1.
          1    1    1    2  502    0 -0.35439220087E+02 -0.23585621523E+02  0.32707950761E+03  0.32983817875E+03  0.00000000000E+00 0. -1.
         22    1    3    3    0    0  0.12242414302E+02  0.13313158596E+02 -0.91651583343E+01  0.20276020986E+02  0.00000000000E+00 0. -1.
         22    1    3    3    0    0  0.34378277452E+02 -0.32326161131E+02  0.26211678003E+03  0.26633072115E+03  0.00000000000E+00 0. -1.
</event>
<event>
 7    1  0.7118985E-006  0.5211945E+02  0.7818608E-02  0.1543442E+00
          2   -1    0    0  502    0  0.00000000000E+00  0.00000000000E+00  0.14676087676E+03  0.14676087676E+03  0.00000000000E+00 0. -1.
          1   -1    0    0  501    0 -0.00000000000E+00 -0.00000000000E+00 -0.27613029105E+03  0.27613029105E+03  0.00000000000E+00 0. -1.
         25    2    1    2    0    0  0.32768832376E+02  0.36146907423E+01  0.57316128879E+02  0.14145863665E+03  0.12505416782E+03 0.  0.
          2    1    1    2  501    0 -0.47512913798E+02 -0.22930234306E+02 -0.22771539831E+03  0.23374681870E+03  0.00000000000E+00 0. -1.
          1    1    1    2  502    0  0.14744081422E+02  0.19315543564E+02  0.41029855139E+02  0.47685712460E+02  0.00000000000E+00 0. -1.
         22    1    3    3    0    0  0.45905720975E+02  0.41644244998E+02 -0.10247931932E+02  0.62821958490E+02  0.00000000000E+00 0.  1.
         22    1    3    3    0    0 -0.13136888599E+02 -0.38029554255E+02  0.67564060811E+02  0.78636678161E+02  0.00000000000E+00 0.  1.
</event>
<event>
 7    1  0.7118985E-006  0.1421741E+03  0.7818608E-02  0.1302229E+00
          2   -1    0    0  502    0  0.00000000000E+00  0.00000000000E+00  0.29688601980E+04  0.29688601980E+04  0.00000000000E+00 0. -1.
          1   -1    0    0  501    0 -0.00000000000E+00 -0.00000000000E+00 -0.45851852551E+03  0.45851852551E+03  0.00000000000E+00 0. -1.
         25    2    1    2    0    0 -0.43090135569E+02  0.18727090383E+03  0.41347750731E+03  0.47276646454E+03  0.12496931518E+03 0.  0.
          2    1    1    2  501    0  0.98770276303E+01 -0.14057948355E+03 -0.41696184461E+03  0.44013330564E+03  0.00000000000E+00 0. -1.
          1    1    1    2  502    0  0.33213107939E+02 -0.46691420277E+02  0.25138260098E+04  0.25144789533E+04  0.00000000000E+00 0. -1.
         22    1    3    3    0    0 -0.53520595299E+01 -0.18213121064E+02  0.22230212595E+02  0.29232596055E+02  0.00000000000E+00 0. -1.
         22    1    3    3    0    0 -0.37738076039E+02  0.20548402489E+03  0.39124729472E+03  0.44353386849E+03  0.00000000000E+00 0. -1.
</event>
<event>
 7    1  0.7118985E-006  0.7304529E+02  0.7818608E-02  0.1370626E+00
          2   -1    0    0  502    0  0.00000000000E+00  0.00000000000E+00  0.10517614004E+04  0.10517614004E+04  0.00000000000E+00 0. -1.
          1   -1    0    0  501    0 -0.00000000000E+00 -0.00000000000E+00 -0.33012541379E+02  0.33012541379E+02  0.00000000000E+00 0. -1.
         25    2    1    2    0    0 -0.17636112622E+02  0.17044201906E+02  0.34728502525E+03  0.36991010685E+03  0.12500024440E+03 0.  0.
          2    1    1    2  501    0 -0.30682854099E+02  0.53233566738E+02  0.31136884956E+02  0.68882187596E+02  0.00000000000E+00 0. -1.
          1    1    1    2  502    0  0.48318966721E+02 -0.70277768644E+02  0.64032694880E+03  0.64598164732E+03  0.00000000000E+00 0. -1.
         22    1    3    3    0    0  0.39352073635E+02  0.59002233176E+01  0.37324914394E+02  0.54557745271E+02  0.00000000000E+00 0. -1.
         22    1    3    3    0    0 -0.56988186257E+02  0.11143978588E+02  0.30996011085E+03  0.31535236158E+03  0.00000000000E+00 0. -1.
</event>
<event>
 7    1  0.7118985E-006  0.1264374E+03  0.7818608E-02  0.1263657E+00
          2   -1    0    0  502    0  0.00000000000E+00  0.00000000000E+00  0.25543350142E+04  0.25543350142E+04  0.00000000000E+00 0. -1.
          1   -1    0    0  501    0 -0.00000000000E+00 -0.00000000000E+00 -0.10191635326E+04  0.10191635326E+04  0.00000000000E+00 0. -1.
         25    2    1    2    0    0 -0.13621377062E+03  0.19052458705E+02  0.61011466448E+03  0.63779459258E+03  0.12499940409E+03 0.  0.
          2    1    1    2  501    0  0.50687089343E+02  0.77793574090E+02 -0.10010106868E+04  0.10053076227E+04  0.00000000000E+00 0. -1.
          1    1    1    2  502    0  0.85526681275E+02 -0.96846032795E+02  0.19260675039E+04  0.19303963316E+04  0.00000000000E+00 0. -1.
         22    1    3    3    0    0 -0.76176922467E+01  0.13756010677E+02  0.32030887523E+03  0.32069460959E+03  0.00000000000E+00 0.  1.
         22    1    3    3    0    0 -0.12859607837E+03  0.52964480285E+01  0.28980578925E+03  0.31709998299E+03  0.00000000000E+00 0.  1.
</event>
<event>
 7    1  0.7118985E-006  0.1016568E+03  0.7818608E-02  0.1303225E+00
          2   -1    0    0  502    0  0.00000000000E+00  0.00000000000E+00  0.45328343921E+03  0.45328343921E+03  0.00000000000E+00 0. -1.
          1   -1    0    0  501    0 -0.00000000000E+00 -0.00000000000E+00 -0.42320638729E+03  0.42320638729E+03  0.00000000000E+00 0. -1.
         25    2    1    2    0    0  0.30938087545E+02 -0.19701935137E+02 -0.16856707145E+03  0.21303930166E+03  0.12500221984E+03 0.  0.
          2    1    1    2  501    0  0.96862417551E+00 -0.79401207229E+02 -0.21903840248E+03  0.23298779303E+03  0.00000000000E+00 0. -1.
          1    1    1    2  502    0 -0.31906711721E+02  0.99103142366E+02  0.41768252584E+03  0.43046273181E+03  0.00000000000E+00 0. -1.
         22    1    3    3    0    0  0.41466998404E+02  0.11371471050E+02 -0.17574675015E+01  0.43033835554E+02  0.00000000000E+00 0. -1.
         22    1    3    3    0    0 -0.10528910859E+02 -0.31073406187E+02 -0.16680960395E+03  0.17000546610E+03  0.00000000000E+00 0. -1.
</event>
<event>
 7    1  0.7118985E-006  0.8966693E+02  0.7818608E-02  0.1434226E+00
          2   -1    0    0  502    0  0.00000000000E+00  0.00000000000E+00  0.17593781699E+03  0.17593781699E+03  0.00000000000E+00 0. -1.
          1   -1    0    0  501    0 -0.00000000000E+00 -0.00000000000E+00 -0.78442430466E+03  0.78442430466E+03  0.00000000000E+00 0. -1.
         25    2    1    2    0    0  0.10446947384E+03 -0.48845551771E+02  0.57568407275E+02  0.17955105149E+03  0.12499879873E+03 0.  0.
          2    1    1    2  501    0 -0.85440074168E+02  0.25270836226E+02 -0.71647223785E+03  0.72199105884E+03  0.00000000000E+00 0. -1.
          1    1    1    2  502    0 -0.19029399676E+02  0.23574715545E+02  0.50417342911E+02  0.58820011316E+02  0.00000000000E+00 0. -1.
         22    1    3    3    0    0  0.94381661333E+02 -0.68359763658E+02  0.85120314465E+02  0.14431362797E+03  0.00000000000E+00 0.  1.
         22    1    3    3    0    0  0.10087812510E+02  0.19514211887E+02 -0.27551907190E+02  0.35237423524E+02  0.00000000000E+00 0.  1.
</event>
<event>
 7    1  0.7118985E-006  0.1052181E+03  0.7818608E-02  0.1394387E+00
          2   -1    0    0  502    0  0.00000000000E+00  0.00000000000E+00  0.90129699057E+03  0.90129699057E+03  0.00000000000E+00 0. -1.
          1   -1    0    0  501    0 -0.00000000000E+00 -0.00000000000E+00 -0.30257149726E+03  0.30257149726E+03  0.00000000000E+00 0. -1.
         25    2    1    2    0    0 -0.12884272884E+03  0.21119309069E+02 -0.12136011656E+03  0.21771469821E+03  0.12499975175E+03 0.  0.
          2    1    1    2  501    0  0.95651854990E+02 -0.94991143753E+01 -0.11525267640E+03  0.15007561413E+03  0.00000000000E+00 0. -1.
          1    1    1    2  502    0  0.33190873846E+02 -0.11620194694E+02  0.83533828627E+03  0.83607817550E+03  0.00000000000E+00 0. -1.
         22    1    3    3    0    0 -0.12687613843E+03  0.55607894928E+02 -0.11978453166E+03  0.18313417623E+03  0.00000000000E+00 0. -1.
         22    1    3    3    0    0 -0.19665904067E+01 -0.34488585860E+02 -0.15755849035E+01  0.34580521977E+02  0.00000000000E+00 0. -1.
</event>
<event>
 7    1  0.7118985E-006  0.1144211E+03  0.7818608E-02  0.1315404E+00
          2   -1    0    0  502    0  0.00000000000E+00  0.00000000000E+00  0.23470888360E+03  0.23470888360E+03  0.00000000000E+00 0. -1.
          1   -1    0    0  501    0 -0.00000000000E+00 -0.00000000000E+00 -0.44251639604E+03  0.44251639604E+03  0.00000000000E+00 0. -1.
         25    2    1    2    0    0  0.61981882140E+02 -0.86528003502E+01  0.30334846973E+02  0.14304688575E+03  0.12500233564E+03 0.  0.
          2    1    1    2  501    0 -0.11898352486E+03 -0.18550193838E+02 -0.36939064074E+03  0.38852365996E+03  0.00000000000E+00 0. -1.
          1    1    1    2  502    0  0.57001642723E+02  0.27202994188E+02  0.13124828132E+03  0.14565473393E+03  0.00000000000E+00 0. -1.
         22    1    3    3    0    0  0.92355092525E+02  0.22939029188E+02  0.27846831445E+02  0.99151944998E+02  0.00000000000E+00 0.  1.
         22    1    3    3    0    0 -0.30373210385E+02 -0.31591829538E+02  0.24880155276E+01  0.43894940756E+02  0.00000000000E+00 0.  1.
</event>
<event>
 7    1  0.7118985E-006  0.9768911E+02  0.7818608E-02  0.1308787E+00
          2   -1    0    0  502    0  0.00000000000E+00  0.00000000000E+00  0.61984300059E+03  0.61984300059E+03  0.00000000000E+00 0. -1.
          1   -1    0    0  501    0 -0.00000000000E+00 -0.00000000000E+00 -0.15138206875E+04  0.15138206875E+04  0.00000000000E+00 0. -1.
         25    2    1    2    0    0  0.20611847551E+02  0.10141818316E+03 -0.37720881695E+03  0.41063554595E+03  0.12499825549E+03 0.  0.
          2    1    1    2  501    0  0.61793260733E+02 -0.48479194984E+02 -0.11145310026E+04  0.11172949455E+04  0.00000000000E+00 0. -1.
          1    1    1    2  502    0 -0.82405108284E+02 -0.52938988174E+02  0.59776213263E+03  0.60573319667E+03  0.00000000000E+00 0. -1.
         22    1    3    3    0    0 -0.19004065260E+02  0.52529887730E+02 -0.32235199761E+03  0.32715646709E+03  0.00000000000E+00 0.  1.
         22    1    3    3    0    0  0.39615912811E+02  0.48888295428E+02 -0.54856819347E+02  0.83479078856E+02  0.00000000000E+00 0.  1.
</event>
<event>
 7    1  0.7118985E-006  0.1196906E+03  0.7818608E-02  0.1368629E+00
          2   -1    0    0  502    0  0.00000000000E+00  0.00000000000E+00  0.10366062186E+04  0.10366062186E+04  0.00000000000E+00 0. -1.
          1   -1    0    0  501    0 -0.00000000000E+00 -0.00000000000E+00 -0.25052486299E+03  0.25052486299E+03  0.00000000000E+00 0. -1.
         25    2    1    2    0    0 -0.11739018154E+03 -0.63657873099E+02  0.24277951509E+03  0.30397279891E+03  0.12499915998E+03 0.  0.
          2    1    1    2  501    0  0.19144468366E+01  0.38074850856E+02 -0.21364853668E+03  0.21702317066E+03  0.00000000000E+00 0. -1.
          1    1    1    2  502    0  0.11547573471E+03  0.25583022242E+02  0.75695037716E+03  0.76613511199E+03  0.00000000000E+00 0. -1.
         22    1    3    3    0    0 -0.12883826129E+03 -0.13683764205E+02  0.19342635841E+03  0.23280957691E+03  0.00000000000E+00 0. -1.
         22    1    3    3    0    0  0.11448079751E+02 -0.49974108893E+02  0.49353156688E+02  0.71163221995E+02  0.00000000000E+00 0. -1.
</event>
<event>
 7    1  0.7118985E-006  0.1019393E+03  0.7818608E-02  0.1337186E+00
          2   -1    0    0  502    0  0.00000000000E+00  0.00000000000E+00  0.96639035651E+02  0.96639035651E+02  0.00000000000E+00 0. -1.
          1   -1    0    0  501    0 -0.00000000000E+00 -0.00000000000E+00 -0.10718378266E+04  0.10718378266E+04  0.00000000000E+00 0. -1.
         25    2    1    2    0    0  0.18126524369E+02 -0.58893918055E+02 -0.10525264371E+03  0.17465558808E+03  0.12501756265E+03 0.  0.
          2    1    1    2  501    0  0.52277861599E+00 -0.58464504307E+02 -0.87299554972E+03  0.87495119944E+03  0.00000000000E+00 0. -1.
          1    1    1    2  502    0 -0.18649302985E+02  0.11735842236E+03  0.30494025246E+01  0.11887007469E+03  0.00000000000E+00 0. -1.
         22    1    3    3    0    0  0.16623006371E+02 -0.51748311715E+02  0.13236876051E+02  0.55941281660E+02  0.00000000000E+00 0. -1.
         22    1    3    3    0    0  0.15035179979E+01 -0.71456063392E+01 -0.11848951976E+03  0.11871430642E+03  0.00000000000E+00 0. -1.
</event>
<event>
 7    1  0.7118985E-006  0.6541480E+02  0.7818608E-02  0.1534690E+00
          2   -1    0    0  502    0  0.00000000000E+00  0.00000000000E+00  0.84388833165E+03  0.84388833165E+03  0.00000000000E+00 0. -1.
          1   -1    0    0  501    0 -0.00000000000E+00 -0.00000000000E+00 -0.96857269980E+02  0.96857269980E+02  0.00000000000E+00 0. -1.
         25    2    1    2    0    0 -0.20283427611E+02 -0.57638691196E+02  0.29386151303E+03  0.32513563084E+03  0.12499981377E+03 0.  0.
          2    1    1    2  501    0  0.14423107915E+01  0.65710402518E+02 -0.67688557836E+02  0.94348704927E+02  0.00000000000E+00 0. -1.
          1    1    1    2  502    0  0.18841116820E+02 -0.80717113218E+01  0.52085810648E+03  0.52126126586E+03  0.00000000000E+00 0. -1.
         22    1    3    3    0    0 -0.50901849635E+02  0.12811859900E+02  0.18214919808E+03  0.18956126295E+03  0.00000000000E+00 0. -1.
         22    1    3    3    0    0  0.30618422024E+02 -0.70450551096E+02  0.11171231495E+03  0.13557436789E+03  0.00000000000E+00 0. -1.
</event>
<event>
 7    1  0.7118985E-006  0.9563217E+02  0.7818608E-02  0.1296775E+00
          2   -1    0    0  502    0  0.00000000000E+00  0.00000000000E+00  0.24647340756E+04  0.24647340756E+04  0.00000000000E+00 0. -1.
          1   -1    0    0  501    0 -0.00000000000E+00 -0.00000000000E+00 -0.15054975023E+03  0.15054975023E+03  0.00000000000E+00 0. -1.
         25    2    1    2    0    0  0.13331994767E+03 -0.50348306746E+02  0.88811913444E+03  0.90812424249E+03  0.12499952963E+03 0.  0.
          2    1    1    2  501    0 -0.44797806619E+02  0.77575370980E+02 -0.12474981231E+03  0.15358156573E+03  0.00000000000E+00 0. -1.
          1    1    1    2  502    0 -0.88522141048E+02 -0.27227064235E+02  0.15508150032E+04  0.15535780176E+04  0.00000000000E+00 0. -1.
         22    1    3    3    0    0  0.12635326736E+02  0.12829734577E+02  0.42513468568E+03  0.42551586873E+03  0.00000000000E+00 0.  1.
         22    1    3    3    0    0  0.12068462093E+03 -0.63178041323E+02  0.46298444875E+03  0.48260837376E+03  0.00000000000E+00 0.  1.
</event>
<event>
 7    1  0.7118985E-006  0.6769659E+02  0.7818608E-02  0.1411294E+00
          2   -1    0    0  502    0  0.00000000000E+00  0.00000000000E+00  0.18529457368E+03  0.18529457368E+03  0.00000000000E+00 0. -1.
          1   -1    0    0  501    0 -0.00000000000E+00 -0.00000000000E+00 -0.10496808665E+03  0.10496808665E+03  0.00000000000E+00 0. -1.
         25    2    1    2    0    0 -0.18358159687E+02 -0.70629532688E+02  0.97600916210E+01  0.14507172374E+03  0.12499997090E+03 0.  0.
          2    1    1    2  501    0  0.47254423803E+02  0.74339259716E+01  0.24711012399E+01  0.47899375420E+02  0.00000000000E+00 0. -1.
          1    1    1    2  502    0 -0.28896264117E+02  0.63195606717E+02  0.68095294169E+02  0.97291561176E+02  0.00000000000E+00 0. -1.
         22    1    3    3    0    0  0.33730352068E+02  0.15571947667E+02  0.22683700473E+02  0.43528984274E+02  0.00000000000E+00 0.  1.
         22    1    3    3    0    0 -0.52088511755E+02 -0.86201480355E+02 -0.12923608852E+02  0.10154273946E+03  0.00000000000E+00 0.  1.
</event>
<event>
 7    1  0.7118985E-006  0.1181088E+03  0.7818608E-02  0.1326346E+00
          2   -1    0    0  502    0  0.00000000000E+00  0.00000000000E+00  0.81266309871E+02  0.81266309871E+02  0.00000000000E+00 0. -1.
          1   -1    0    0  501    0 -0.00000000000E+00 -0.00000000000E+00 -0.12996043685E+04  0.12996043685E+04  0.00000000000E+00 0. -1.
         25    2    1    2    0    0  0.49566633500E+02 -0.15776831671E+03 -0.35476385090E+03  0.41088925054E+03  0.12499957356E+03 0.  0.
          2    1    1    2  501    0 -0.80778868693E+01  0.54906071858E+02 -0.85708255444E+03  0.85887742670E+03  0.00000000000E+00 0. -1.
          1    1    1    2  502    0 -0.41488746631E+02  0.10286224485E+03 -0.64916533296E+01  0.11110400117E+03  0.00000000000E+00 0. -1.
         22    1    3    3    0    0  0.69886100068E+02 -0.11006041929E+03 -0.14580575447E+03  0.19559315150E+03  0.00000000000E+00 0.  1.
         22    1    3    3    0    0 -0.20319466568E+02 -0.47707897415E+02 -0.20895809643E+03  0.21529609904E+03  0.00000000000E+00 0.  1.
</event>
<event>
 7    1  0.7118985E-006  0.8665226E+02  0.7818608E-02  0.1313871E+00
          2   -1    0    0  502    0  0.00000000000E+00  0.00000000000E+00  0.62976858795E+03  0.62976858795E+03  0.00000000000E+00 0. -1.
          1   -1    0    0  501    0 -0.00000000000E+00 -0.00000000000E+00 -0.37478270694E+03  0.37478270694E+03  0.00000000000E+00 0. -1.
         25    2    1    2    0    0 -0.10999371572E+03  0.73724726948E+02 -0.26026549888E+03  0.31764349560E+03  0.12500123009E+03 0.  0.
          2    1    1    2  501    0  0.84104549418E+02  0.87700832021E+01 -0.60961649963E+02  0.10424400394E+03  0.00000000000E+00 0. -1.
          1    1    1    2  502    0  0.25889166303E+02 -0.82494810150E+02  0.57621302986E+03  0.58266379535E+03  0.00000000000E+00 0. -1.
         22    1    3    3    0    0  0.58493553082E+01 -0.98954364255E+01  0.77933827666E+01  0.13887816046E+02  0.00000000000E+00 0.  1.
         22    1    3    3    0    0 -0.11584307103E+03  0.83620163373E+02 -0.26805888165E+03  0.30375567955E+03  0.00000000000E+00 0.  1.
</event>
<event>
 7    1  0.7118985E-006  0.8585204E+02  0.7818608E-02  0.1414658E+00
          2   -1    0    0  502    0  0.00000000000E+00  0.00000000000E+00  0.28067481810E+03  0.28067481810E+03  0.00000000000E+00 0. -1.
          1   -1    0    0  501    0 -0.00000000000E+00 -0.00000000000E+00 -0.28353168375E+03  0.28353168375E+03  0.00000000000E+00 0. -1.
         25    2    1    2    0    0  0.14275819603E+02  0.54301468393E+02 -0.16897138926E+03  0.21755078781E+03  0.12499826556E+03 0.  0.
          2    1    1    2  501    0  0.30606380783E+02  0.20335980829E+02 -0.78675527511E+02  0.86833986952E+02  0.00000000000E+00 0. -1.
          1    1    1    2  502    0 -0.44882200386E+02 -0.74637449222E+02  0.24479005112E+03  0.25982172708E+03  0.00000000000E+00 0. -1.
         22    1    3    3    0    0  0.29946134195E+01  0.89772094287E+02 -0.15219395946E+03  0.17672294112E+03  0.00000000000E+00 0.  1.
         22    1    3    3    0    0  0.11281206184E+02 -0.35470625895E+02 -0.16777429795E+02  0.40827846684E+02  0.00000000000E+00 0.  1.
</event>
<event>
 7    1  0.7118985E-006  0.4649625E+02  0.7818608E-02  0.1484653E+00
          2   -1    0    0  502    0  0.00000000000E+00  0.00000000000E+00  0.10920574836E+03  0.10920574836E+03  0.00000000000E+00 0. -1.
          1   -1    0    0  501    0 -0.00000000000E+00 -0.00000000000E+00 -0.66632937524E+03  0.66632937524E+03  0.00000000000E+00 0. -1.
         25    2    1    2    0    0 -0.18264111834E+02 -0.23708757852E+02 -0.49711693641E+03  0.51346126347E+03  0.12498614980E+03 0.  0.
          2    1    1    2  501    0 -0.20805497435E+02  0.48917219220E+02 -0.15089402908E+03  0.15998365877E+03  0.00000000000E+00 0. -1.
          1    1    1    2  502    0  0.39069609268E+02 -0.25208461368E+02  0.90887338616E+02  0.10209020136E+03  0.00000000000E+00 0. -1.
         22    1    3    3    0    0 -0.41712925708E+01 -0.12277705016E+02 -0.49502533639E+03  0.49519513869E+03  0.00000000000E+00 0. -1.
         22    1    3    3    0    0 -0.14092819263E+02 -0.11431052836E+02 -0.20916000213E+01  0.18266124777E+02  0.00000000000E+00 0. -1.
</event>
<event>
 7    1  0.7118985E-006  0.4672808E+02  0.7818608E-02  0.1491780E+00
          2   -1    0    0  502    0  0.00000000000E+00  0.00000000000E+00  0.23203096923E+03  0.23203096923E+03  0.00000000000E+00 0. -1.
          1   -1    0    0  501    0 -0.00000000000E+00 -0.00000000000E+00 -0.22035441798E+04  0.22035441798E+04  0.00000000000E+00 0. -1.
         25    2    1    2    0    0  0.30208938266E+02  0.41031442336E+02 -0.11785151152E+04  0.11862200788E+04  0.12499615756E+03 0.  0.
          2    1    1    2  501    0 -0.47583343233E+02 -0.68615700058E+01 -0.10189958681E+04  0.10201293226E+04  0.00000000000E+00 0. -1.
          1    1    1    2  502    0  0.17374404967E+02 -0.34169872330E+02  0.22599777268E+03  0.22922574763E+03  0.00000000000E+00 0. -1.
         22    1    3    3    0    0 -0.48229485709E+02  0.45440615342E+01 -0.43501505231E+03  0.43770404102E+03  0.00000000000E+00 0. -1.
         22    1    3    3    0    0  0.78438423975E+02  0.36487380802E+02 -0.74350006285E+03  0.74851603775E+03  0.00000000000E+00 0. -1.
</event>
<event>
 7    1  0.7118985E-006  0.1712242E+03  0.7818608E-02  0.1346514E+00
          2   -1    0    0  502    0  0.00000000000E+00  0.00000000000E+00  0.92447727071E+03  0.92447727071E+03  0.00000000000E+00 0. -1.
          1   -1    0    0  501    0 -0.00000000000E+00 -0.00000000000E+00 -0.17929035671E+03  0.17929035671E+03  0.00000000000E+00 0. -1.
         25    2    1    2    0    0 -0.11851828266E+03 -0.14715503138E+03  0.53066506320E+03  0.57700268668E+03  0.12500201818E+03 0.  0.
          2    1    1    2  501    0  0.26282528296E+02  0.18453694941E+02 -0.13727259478E+03  0.14097898931E+03  0.00000000000E+00 0. -1.
          1    1    1    2  502    0  0.92235754366E+02  0.12870133643E+03  0.35179444557E+03  0.38578595143E+03  0.00000000000E+00 0. -1.
         22    1    3    3    0    0 -0.12881435286E+03 -0.67173419945E+02  0.36151308822E+03  0.38961149727E+03  0.00000000000E+00 0. -1.
         22    1    3    3    0    0  0.10296070200E+02 -0.79981611430E+02  0.16915197498E+03  0.18739118941E+03  0.00000000000E+00 0. -1.
</event>
<event>
 7    1  0.7118985E-006  0.1094288E+03  0.7818608E-02  0.1299302E+00
          2   -1    0    0  502    0  0.00000000000E+00  0.00000000000E+00  0.77483007156E+02  0.77483007156E+02  0.00000000000E+00 0. -1.
          1   -1    0    0  501    0 -0.00000000000E+00 -0.00000000000E+00 -0.29032591279E+04  0.29032591279E+04  0.00000000000E+00 0. -1.
         25    2    1    2    0    0  0.16127921354E+03  0.33040679726E+02 -0.14572376981E+04  0.14718254030E+04  0.12500254754E+03 0.  0.
          2    1    1    2  501    0 -0.54990010732E+02 -0.53151762466E+02 -0.13953695023E+04  0.13974637952E+04  0.00000000000E+00 0. -1.
          1    1    1    2  502    0 -0.10628920281E+03  0.20111082740E+02  0.26831079668E+02  0.11145293679E+03  0.00000000000E+00 0. -1.
         22    1    3    3    0    0  0.85164853378E+02  0.52679836069E+02 -0.42667217468E+03  0.43826631404E+03  0.00000000000E+00 0. -1.
         22    1    3    3    0    0  0.76114360160E+02 -0.19639156343E+02 -0.10305655234E+04  0.10335590890E+04  0.00000000000E+00 0. -1.
</event>
<event>
 7    1  0.7118985E-006  0.8862307E+02  0.7818608E-02  0.1332734E+00
          2   -1    0    0  502    0  0.00000000000E+00  0.00000000000E+00  0.13510772157E+04  0.13510772157E+04  0.00000000000E+00 0. -1.
          1   -1    0    0  501    0 -0.00000000000E+00 -0.00000000000E+00 -0.29513019971E+03  0.29513019971E+03  0.00000000000E+00 0. -1.
         25    2    1    2    0    0 -0.81171448475E+02  0.48064864228E+02  0.35358622584E+03  0.38671303416E+03  0.12499886586E+03 0.  0.
          2    1    1    2  501    0  0.86355772589E+02  0.21659627039E+02 -0.27016599590E+03  0.28445759657E+03  0.00000000000E+00 0. -1.
          1    1    1    2  502    0 -0.51843241147E+01 -0.69724491267E+02  0.97252678604E+03  0.97503678467E+03  0.00000000000E+00 0. -1.
         22    1    3    3    0    0 -0.32762837324E+02 -0.38375342626E+02  0.17899210419E+03  0.18596839461E+03  0.00000000000E+00 0. -1.
         22    1    3    3    0    0 -0.48408611151E+02  0.86440206854E+02  0.17459412165E+03  0.20074463955E+03  0.00000000000E+00 0. -1.
</event>
<event>
 7    1  0.7118985E-006  0.1242237E+03  0.7818608E-02  0.1253172E+00
          2   -1    0    0  502    0  0.00000000000E+00  0.00000000000E+00  0.15231392047E+03  0.15231392047E+03  0.00000000000E+00 0. -1.
          1   -1    0    0  501    0 -0.00000000000E+00 -0.00000000000E+00 -0.43004359295E+04  0.43004359295E+04  0.00000000000E+00 0. -1.
         25    2    1    2    0    0  0.16032928256E+03 -0.12741577295E+03 -0.56004662633E+03  0.60927575415E+03  0.12499785152E+03 0.  0.
          2    1    1    2  501    0 -0.57525084877E+02  0.10711596730E+03 -0.36931072108E+04  0.36951080953E+04  0.00000000000E+00 0. -1.
          1    1    1    2  502    0 -0.10280419769E+03  0.20299805643E+02  0.10503182812E+03  0.14836600045E+03  0.00000000000E+00 0. -1.
         22    1    3    3    0    0  0.16858653719E+03 -0.11195207793E+03 -0.40007634196E+03  0.44834781997E+03  0.00000000000E+00 0.  1.
         22    1    3    3    0    0 -0.82572546292E+01 -0.15463695021E+02 -0.15997028437E+03  0.16092793418E+03  0.00000000000E+00 0.  1.
</event>
<event>
 7    1  0.7118985E-006  0.1862515E+03  0.7818608E-02  0.1242255E+00
          2   -1    0    0  502    0  0.00000000000E+00  0.00000000000E+00  0.34398424540E+03  0.34398424540E+03  0.00000000000E+00 0. -1.
          1   -1    0    0  501    0 -0.00000000000E+00 -0.00000000000E+00 -0.95612529385E+03  0.95612529385E+03  0.00000000000E+00 0. -1.
         25    2    1    2    0    0 -0.90483236250E+02 -0.23027994187E+03 -0.13632282208E+03  0.30890955132E+03  0.12500052562E+03 0.  0.
          2    1    1    2  501    0  0.54442558815E+02  0.55822825306E+02 -0.70029741141E+03  0.70462518012E+03  0.00000000000E+00 0. -1.
          1    1    1    2  502    0  0.36040677435E+02  0.17445711656E+03  0.22447918505E+03  0.28657480780E+03  0.00000000000E+00 0. -1.
         22    1    3    3    0    0 -0.66122701233E+02 -0.70547793351E+02  0.12467610949E+01  0.96699313225E+02  0.00000000000E+00 0.  1.
         22    1    3    3    0    0 -0.24360535018E+02 -0.15973214852E+03 -0.13756958318E+03  0.21221023809E+03  0.00000000000E+00 0.  1.
</event>
<event>
 7    1  0.7118985E-006  0.2769680E+02  0.7818608E-02  0.1670500E+00
          2   -1    0    0  502    0  0.00000000000E+00  0.00000000000E+00  0.29389766516E+03  0.29389766516E+03  0.00000000000E+00 0. -1.
          1   -1    0    0  501    0 -0.00000000000E+00 -0.00000000000E+00 -0.77046379601E+03  0.77046379601E+03  0.00000000000E+00 0. -1.
         25    2    1    2    0    0  0.42369310608E+02  0.22718941497E+02 -0.31558033232E+02  0.13759849828E+03  0.12500451385E+03 0.  0.
          2    1    1    2  501    0 -0.26185458686E+02 -0.87025467344E+01 -0.68513152311E+03  0.68568696687E+03  0.00000000000E+00 0. -1.
          1    1    1    2  502    0 -0.16183851922E+02 -0.14016394763E+02  0.24012342550E+03  0.24107599602E+03  0.00000000000E+00 0. -1.
         22    1    3    3    0    0 -0.30884127625E+02  0.10380567304E+02  0.27548637621E+02  0.42667469476E+02  0.00000000000E+00 0.  1.
         22    1    3    3    0    0  0.73253438233E+02  0.12338374194E+02 -0.59106670853E+02  0.94931028805E+02  0.00000000000E+00 0.  1.
</event>
<event>
 7    1  0.7118985E-006  0.9616684E+02  0.7818608E-02  0.1424591E+00
          2   -1    0    0  502    0  0.00000000000E+00  0.00000000000E+00  0.23953142168E+04  0.23953142168E+04  0.00000000000E+00 0. -1.
          1   -1    0    0  501    0 -0.00000000000E+00 -0.00000000000E+00 -0.39604855759E+02  0.39604855759E+02  0.00000000000E+00 0. -1.
         25    2    1    2    0    0 -0.67959259075E+02  0.10198835303E+03  0.53756874458E+03  0.56535454318E+03  0.12500207714E+03 0.  0.
          2    1    1    2  501    0  0.23529444436E+02 -0.19235075527E+02 -0.15088652934E+02  0.33930669510E+02  0.00000000000E+00 0. -1.
          1    1    1    2  502    0  0.44429814638E+02 -0.82753277499E+02  0.18332292694E+04  0.18356338599E+04  0.00000000000E+00 0. -1.
         22    1    3    3    0    0  0.17538334154E+01 -0.26608570470E+02  0.11934148137E+03  0.12228442718E+03  0.00000000000E+00 0.  1.
         22    1    3    3    0    0 -0.69713092490E+02  0.12859692350E+03  0.41822726321E+03  0.44307011600E+03  0.00000000000E+00 0.  1.
</event>
<event>
 7    1  0.7118985E-006  0.3707967E+02  0.7818608E-02  0.1532650E+00
          2   -1    0    0  502    0  0.00000000000E+00  0.00000000000E+00  0.39918693145E+04  0.39918693145E+04  0.00000000000E+00 0. -1.
          1   -1    0    0  501    0 -0.00000000000E+00 -0.00000000000E+00 -0.21186645729E+02  0.21186645729E+02  0.00000000000E+00 0. -1.
         25    2    1    2    0    0  0.17890053588E+02 -0.34321964919E+01  0.30151809970E+04  0.30178257970E+04  0.12499704869E+03 0.  0.
          2    1    1    2  501    0  0.93165841281E+01 -0.35444390083E+02 -0.18578382735E+01  0.36695436926E+02  0.00000000000E+00 0. -1.
          1    1    1    2  502    0 -0.27206637716E+02  0.38876586574E+02  0.95735951005E+03  0.95853472635E+03  0.00000000000E+00 0. -1.
         22    1    3    3    0    0  0.60584522193E+02 -0.15905135890E+02  0.24827901677E+04  0.24835801728E+04  0.00000000000E+00 0.  1.
         22    1    3    3    0    0 -0.42694468604E+02  0.12472939398E+02  0.53239082926E+03  0.53424562417E+03  0.00000000000E+00 0.  1.
</event>
<event>
 7    1  0.7118985E-006  0.1109296E+03  0.7818608E-02  0.1399845E+00
          2   -1    0    0  502    0  0.00000000000E+00  0.00000000000E+00  0.26292251229E+04  0.26292251229E+04  0.00000000000E+00 0. -1.
          1   -1    0    0  501    0 -0.00000000000E+00 -0.00000000000E+00 -0.24984438625E+03  0.24984438625E+03  0.00000000000E+00 0. -1.
         25    2    1    2    0    0 -0.57186737486E+01  0.13118095897E+03  0.10641511912E+04  0.10794821790E+04  0.12499147895E+03 0.  0.
          2    1    1    2  501    0  0.27011136827E+02 -0.10737487658E+03 -0.22935030208E+03  0.25467729914E+03  0.00000000000E+00 0. -1.
          1    1    1    2  502    0 -0.21292463078E+02 -0.23806082391E+02  0.15445798476E+04  0.15449100311E+04  0.00000000000E+00 0. -1.
         22    1    3    3    0    0 -0.25073193436E+02  0.11137401504E+02  0.56750206086E+03  0.56816484916E+03  0.00000000000E+00 0.  1.
         22    1    3    3    0    0  0.19354519688E+02  0.12004355746E+03  0.49664913030E+03  0.51131732979E+03  0.00000000000E+00 0.  1.
</event>
<event>
 7    1  0.7118985E-006  0.1278947E+03  0.7818608E-02  0.1267612E+00
          2   -1    0    0  502    0  0.00000000000E+00  0.00000000000E+00  0.47182979146E+03  0.47182979146E+03  0.00000000000E+00 0. -1.
          1   -1    0    0  501    0 -0.00000000000E+00 -0.00000000000E+00 -0.16627085702E+04  0.16627085702E+04  0.00000000000E+00 0. -1.
         25    2    1    2    0    0 -0.13294008249E+03  0.46978039542E+02 -0.31562877726E+03  0.36759645044E+03  0.12500249441E+03 0.  0.
          2    1    1    2  501    0  0.70024089258E+02 -0.10896649114E+03 -0.13135047526E+04  0.13198756776E+04  0.00000000000E+00 0. -1.
          1    1    1    2  502    0  0.62915993233E+02  0.61988451595E+02  0.43825475113E+03  0.44706623360E+03  0.00000000000E+00 0. -1.
         22    1    3    3    0    0 -0.93222134359E+02  0.88243248178E+02 -0.18728096264E+03  0.22704932537E+03  0.00000000000E+00 0.  1.
         22    1    3    3    0    0 -0.39717948131E+02 -0.41265208636E+02 -0.12834781462E+03  0.14054712507E+03  0.00000000000E+00 0.  1.
</event>
<event>
 7    1  0.7118985E-006  0.2074957E+03  0.7818608E-02  0.1168756E+00
          2   -1    0    0  502    0  0.00000000000E+00  0.00000000000E+00  0.11727491478E+04  0.11727491478E+04  0.00000000000E+00 0. -1.
          1   -1    0    0  501    0 -0.00000000000E+00 -0.00000000000E+00 -0.16739778566E+04  0.16739778566E+04  0.00000000000E+00 0. -1.
         25    2    1    2    0    0  0.97445627838E+02  0.37526652147E+02 -0.49721858987E+03  0.52321635385E+03  0.12500050726E+03 0.  0.
          2    1    1    2  501    0  0.94844253390E+02 -0.12190011117E+03 -0.11490457671E+04  0.11593796809E+04  0.00000000000E+00 0. -1.
          1    1    1    2  502    0 -0.19228988123E+03  0.84373459026E+02  0.11450356482E+04  0.11641309697E+04  0.00000000000E+00 0. -1.
         22    1    3    3    0    0  0.60065220521E+01  0.26723417145E+02 -0.12995047166E+02  0.30316506757E+02  0.00000000000E+00 0.  1.
         22    1    3    3    0    0  0.91439105786E+02  0.10803235002E+02 -0.48422354270E+03  0.49289984709E+03  0.00000000000E+00 0.  1.
</event>
<event>
 7    1  0.7118985E-006  0.6349170E+02  0.7818608E-02  0.1400968E+00
          2   -1    0    0  502    0  0.00000000000E+00  0.00000000000E+00  0.85137054283E+03  0.85137054283E+03  0.00000000000E+00 0. -1.
          1   -1    0    0  501    0 -0.00000000000E+00 -0.00000000000E+00 -0.79879173351E+03  0.79879173351E+03  0.00000000000E+00 0. -1.
         25    2    1    2    0    0 -0.22484002886E+02  0.11525480809E+03 -0.83540245721E+01  0.17170580160E+03  0.12499556553E+03 0.  0.
          2    1    1    2  501    0  0.16413789120E+02 -0.52816882154E+02 -0.70640084835E+03  0.70856276650E+03  0.00000000000E+00 0. -1.
          1    1    1    2  502    0  0.60702137664E+01 -0.62437925933E+02  0.76733368224E+03  0.76989370825E+03  0.00000000000E+00 0. -1.
         22    1    3    3    0    0 -0.33032851560E+02  0.13465394506E+01  0.36123070505E+02  0.48967935155E+02  0.00000000000E+00 0.  1.
         22    1    3    3    0    0  0.10548848674E+02  0.11390826864E+03 -0.44477095077E+02  0.12273786644E+03  0.00000000000E+00 0.  1.
</event>
<event>
 7    1  0.1434708E-005  0.5719535E+02  0.7818608E-02  0.1445127E+00
          2   -1    0    0  502    0  0.00000000000E+00  0.00000000000E+00  0.11471985277E+04  0.11471985277E+04  0.00000000000E+00 0. -1.
          1   -1    0    0  501    0 -0.00000000000E+00 -0.00000000000E+00 -0.19871707300E+04  0.19871707300E+04  0.00000000000E+00 0. -1.
         25    2    1    2    0    0 -0.40896322078E+00  0.29936924056E+02 -0.51459727930E+03  0.53040463097E+03  0.12498930363E+03 0.  0.
          2    1    1    2  501    0  0.42375999246E+02 -0.42403168858E+02 -0.14636353893E+04  0.14648625556E+04  0.00000000000E+00 0. -1.
          1    1    1    2  502    0 -0.41967036025E+02  0.12466244802E+02  0.11382604662E+04  0.11391020711E+04  0.00000000000E+00 0. -1.
         22    1    3    3    0    0 -0.36916154043E+02  0.65340488332E+01 -0.43966182437E+02  0.57779939612E+02  0.00000000000E+00 0.  1.
         22    1    3    3    0    0  0.36507190822E+02  0.23402875223E+02 -0.47063109686E+03  0.47262469136E+03  0.00000000000E+00 0.  1.
</event>
<event>
 7    1  0.7118985E-006  0.9176547E+02  0.7818608E-02  0.1309398E+00
          2   -1    0    0  502    0  0.00000000000E+00  0.00000000000E+00  0.20613872230E+04  0.20613872230E+04  0.00000000000E+00 0. -1.
          1   -1    0    0  501    0 -0.00000000000E+00 -0.00000000000E+00 -0.26186789076E+03  0.26186789076E+03  0.00000000000E+00 0. -1.
         25    2    1    2    0    0 -0.49440753103E+02 -0.62581488429E+02 -0.76661037000E+01  0.14848225705E+03  0.12500952264E+03 0.  0.
          2    1    1    2  501    0 -0.42566109045E+02  0.71426271250E+02 -0.17325633450E+03  0.19217529318E+03  0.00000000000E+00 0. -1.
          1    1    1    2  502    0  0.92006862148E+02 -0.88447828211E+01  0.19804417704E+04  0.19825975636E+04  0.00000000000E+00 0. -1.
         22    1    3    3    0    0  0.19941923601E+02 -0.54217895501E+02 -0.41212418804E+02  0.70962835154E+02  0.00000000000E+00 0.  1.
         22    1    3    3    0    0 -0.69382676704E+02 -0.83635929280E+01  0.33546315104E+02  0.77519421891E+02  0.00000000000E+00 0.  1.
</event>
<event>
 7    1  0.1148293E-005  0.5358399E+02  0.7818608E-02  0.1494592E+00
          2   -1    0    0  502    0  0.00000000000E+00  0.00000000000E+00  0.18150218647E+04  0.18150218647E+04  0.00000000000E+00 0. -1.
          1   -1    0    0  501    0 -0.00000000000E+00 -0.00000000000E+00 -0.10784057314E+04  0.10784057314E+04  0.00000000000E+00 0. -1.
         25    2    1    2    0    0  0.16528382679E+02 -0.35494634826E+02 -0.57278396069E+02  0.14296756343E+03  0.12500341195E+03 0.  0.
          2    1    1    2  501    0  0.31023065181E+02  0.10597192262E+02 -0.97760150297E+03  0.97815102600E+03  0.00000000000E+00 0. -1.
          1    1    1    2  502    0 -0.47551447860E+02  0.24897442564E+02  0.17714960323E+04  0.17723090067E+04  0.00000000000E+00 0. -1.
         22    1    3    3    0    0  0.56055289280E+02 -0.54867559184E+02 -0.60162099347E+02  0.98854047489E+02  0.00000000000E+00 0.  1.
         22    1    3    3    0    0 -0.39526906601E+02  0.19372924358E+02  0.28837032780E+01  0.44113515936E+02  0.00000000000E+00 0.  1.
</event>
<event>
 7    1  0.7118985E-006  0.1770732E+03  0.7818608E-02  0.1326243E+00
          2   -1    0    0  502    0  0.00000000000E+00  0.00000000000E+00  0.19432106388E+04  0.19432106388E+04  0.00000000000E+00 0. -1.
          1   -1    0    0  501    0 -0.00000000000E+00 -0.00000000000E+00 -0.75393910999E+03  0.75393910999E+03  0.00000000000E+00 0. -1.
         25    2    1    2    0    0  0.14637031931E+03  0.35009665965E+02  0.20048151223E+03  0.28012113076E+03  0.12500025625E+03 0.  0.
          2    1    1    2  501    0  0.33100252634E+02 -0.16647135121E+02 -0.70885600182E+03  0.70982362960E+03  0.00000000000E+00 0. -1.
          1    1    1    2  502    0 -0.17947057194E+03 -0.18362530844E+02  0.16976460184E+04  0.17072049885E+04  0.00000000000E+00 0. -1.
         22    1    3    3    0    0  0.98423329495E+02  0.37060599431E+02  0.20651530258E+03  0.23175247576E+03  0.00000000000E+00 0. -1.
         22    1    3    3    0    0  0.47946989815E+02 -0.20509334656E+01 -0.60337903512E+01  0.48368654999E+02  0.00000000000E+00 0. -1.
</event>
<event>
 7    1  0.7118985E-006  0.6864690E+02  0.7818608E-02  0.1368473E+00
          2   -1    0    0  502    0  0.00000000000E+00  0.00000000000E+00  0.16844153217E+04  0.16844153217E+04  0.00000000000E+00 0. -1.
          1   -1    0    0  501    0 -0.00000000000E+00 -0.00000000000E+00 -0.83615775683E+02  0.83615775683E+02  0.00000000000E+00 0. -1.
         25    2    1    2    0    0 -0.36484323615E+02 -0.24346637338E+02  0.25825985705E+03  0.29025505339E+03  0.12500391047E+03 0.  0.
          2    1    1    2  501    0  0.61804115983E+02 -0.37205238993E+02 -0.47352261891E+02  0.86291455354E+02  0.00000000000E+00 0. -1.
          1    1    1    2  502    0 -0.25319792368E+02  0.61551876331E+02  0.13898919509E+04  0.13914845887E+04  0.00000000000E+00 0. -1.
         22    1    3    3    0    0 -0.48407369003E+02 -0.57591932966E+02  0.23784640832E+03  0.24946145607E+03  0.00000000000E+00 0. -1.
         22    1    3    3    0    0  0.11923045388E+02  0.33245295627E+02  0.20413448734E+02  0.40793597315E+02  0.00000000000E+00 0. -1.
</event>
<event>
 7    1  0.7118985E-006  0.4889962E+02  0.7818608E-02  0.1503488E+00
          2   -1    0    0  502    0  0.00000000000E+00  0.00000000000E+00  0.12700388116E+04  0.12700388116E+04  0.00000000000E+00 0. -1.
          1   -1    0    0  501    0 -0.00000000000E+00 -0.00000000000E+00 -0.62518895519E+02  0.62518895519E+02  0.00000000000E+00 0. -1.
         25    2    1    2    0    0 -0.57198380125E+02  0.53811728990E+02  0.50533237651E+03  0.52645382764E+03  0.12500186007E+03 0.  0.
          2    1    1    2  501    0  0.29987383907E+02 -0.15574724806E+02 -0.45649791645E+02  0.56795411113E+02  0.00000000000E+00 0. -1.
          1    1    1    2  502    0  0.27210996219E+02 -0.38237004184E+02  0.74783733126E+03  0.74930846841E+03  0.00000000000E+00 0. -1.
         22    1    3    3    0    0 -0.88095755104E+02  0.68513930725E+02  0.34855015722E+03  0.36598119196E+03  0.00000000000E+00 0.  1.
         22    1    3    3    0    0  0.30897374979E+02 -0.14702201736E+02  0.15678221929E+03  0.16047263568E+03  0.00000000000E+00 0.  1.
</event>
<event>
 7    1  0.7118985E-006  0.9611400E+02  0.7818608E-02  0.1328336E+00
          2   -1    0    0  502    0  0.00000000000E+00  0.00000000000E+00  0.28780967721E+03  0.28780967721E+03  0.00000000000E+00 0. -1.
          1   -1    0    0  501    0 -0.00000000000E+00 -0.00000000000E+00 -0.74387491281E+03  0.74387491281E+03  0.00000000000E+00 0. -1.
         25    2    1    2    0    0 -0.31451987545E+02 -0.96080872999E+02 -0.15357993664E+01  0.16077477656E+03  0.12500163367E+03 0.  0.
          2    1    1    2  501    0 -0.51328150272E+02  0.43077027006E+02 -0.64929610898E+03  0.65274470231E+03  0.00000000000E+00 0. -1.
          1    1    1    2  502    0  0.82780137816E+02  0.53003845993E+02  0.19476667274E+03  0.21816511114E+03  0.00000000000E+00 0. -1.
         22    1    3    3    0    0 -0.24737023432E+02  0.13453620236E+02 -0.36041732517E+02  0.45737585294E+02  0.00000000000E+00 0.  1.
         22    1    3    3    0    0 -0.67149641122E+01 -0.10953449324E+03  0.34505933150E+02  0.11503719126E+03  0.00000000000E+00 0.  1.
</event>
<event>
 7    1  0.7118985E-006  0.5395441E+02  0.7818608E-02  0.1472628E+00
          2   -1    0    0  502    0  0.00000000000E+00  0.00000000000E+00  0.21547666405E+04  0.21547666405E+04  0.00000000000E+00 0. -1.
          1   -1    0    0  501    0 -0.00000000000E+00 -0.00000000000E+00 -0.83922676793E+03  0.83922676793E+03  0.00000000000E+00 0. -1.
         25    2    1    2    0    0 -0.63401191992E+01 -0.29765236564E+02 -0.61843085369E+03  0.63167150765E+03  0.12500402539E+03 0.  0.
          2    1    1    2  501    0 -0.37978676654E+02 -0.10370950429E+01 -0.21214874404E+03  0.21552388509E+03  0.00000000000E+00 0. -1.
          1    1    1    2  502    0  0.44318795853E+02  0.30802331607E+02  0.21461194703E+04  0.21467980156E+04  0.00000000000E+00 0. -1.
         22    1    3    3    0    0 -0.38715110595E+02 -0.68172294010E+02 -0.38296017801E+03  0.39090257022E+03  0.00000000000E+00 0.  1.
         22    1    3    3    0    0  0.32374991396E+02  0.38407057446E+02 -0.23547067568E+03  0.24076893744E+03  0.00000000000E+00 0.  1.
</event>
<event>
 7    1  0.7118985E-006  0.8156570E+02  0.7818608E-02  0.1465859E+00
          2   -1    0    0  502    0  0.00000000000E+00  0.00000000000E+00  0.28276007564E+04  0.28276007564E+04  0.00000000000E+00 0. -1.
          1   -1    0    0  501    0 -0.00000000000E+00 -0.00000000000E+00 -0.43549816708E+03  0.43549816708E+03  0.00000000000E+00 0. -1.
         25    2    1    2    0    0  0.69674929366E+01  0.10479846382E+03  0.88137774439E+03  0.89637187586E+03  0.12499819016E+03 0.  0.
          2    1    1    2  501    0 -0.15765294714E+02 -0.79927106998E+02 -0.42403368264E+03  0.43178866470E+03  0.00000000000E+00 0. -1.
          1    1    1    2  502    0  0.87978017776E+01 -0.24871356826E+02  0.19347585276E+04  0.19349383830E+04  0.00000000000E+00 0. -1.
         22    1    3    3    0    0  0.23222470333E+01  0.17283709484E+02  0.62844002999E+03  0.62868194720E+03  0.00000000000E+00 0. -1.
         22    1    3    3    0    0  0.46452459033E+01  0.87514754340E+02  0.25293771440E+03  0.26768992866E+03  0.00000000000E+00 0. -1.
</event>
<event>
 7    1  0.7118985E-006  0.8903336E+02  0.7818608E-02  0.1340372E+00
          2   -1    0    0  502    0  0.00000000000E+00  0.00000000000E+00  0.66561192685E+02  0.66561192685E+02  0.00000000000E+00 0. -1.
          1   -1    0    0  501    0 -0.00000000000E+00 -0.00000000000E+00 -0.18814013963E+04  0.18814013963E+04  0.00000000000E+00 0. -1.
         25    2    1    2    0    0 -0.84579103003E+02 -0.55941568588E+02 -0.35172161567E+03  0.38680270684E+03  0.12500062131E+03 0.  0.
          2    1    1    2  501    0 -0.49242130093E+01  0.64930204166E+02 -0.14695357519E+04  0.14709777379E+04  0.00000000000E+00 0. -1.
          1    1    1    2  502    0  0.89503316012E+02 -0.89886355779E+01  0.64171639579E+01  0.90182144241E+02  0.00000000000E+00 0. -1.
         22    1    3    3    0    0 -0.50163983826E+02 -0.93331403951E+02 -0.19337806642E+03  0.22050454147E+03  0.00000000000E+00 0. -1.
         22    1    3    3    0    0 -0.34415119177E+02  0.37389835364E+02 -0.15834354925E+03  0.16629816537E+03  0.00000000000E+00 0. -1.
</event>
<event>
 7    1  0.7118985E-006  0.5072057E+02  0.7818608E-02  0.1492136E+00
          2   -1    0    0  502    0  0.00000000000E+00  0.00000000000E+00  0.35232094662E+04  0.35232094662E+04  0.00000000000E+00 0. -1.
          1   -1    0    0  501    0 -0.00000000000E+00 -0.00000000000E+00 -0.10273129995E+04  0.10273129995E+04  0.00000000000E+00 0. -1.
         25    2    1    2    0    0  0.15528703739E+01 -0.15642008817E+02  0.96310867321E+02  0.15857899640E+03  0.12499772433E+03 0.  0.
          2    1    1    2  501    0  0.18144173736E+01 -0.35181936707E+02 -0.99567639888E+03  0.99629942892E+03  0.00000000000E+00 0. -1.
          1    1    1    2  502    0 -0.33672877475E+01  0.50823945523E+02  0.33952619983E+04  0.33956440404E+04  0.00000000000E+00 0. -1.
         22    1    3    3    0    0 -0.30051082126E+02 -0.28311416238E+02 -0.13636177488E+02  0.43480445752E+02  0.00000000000E+00 0.  1.
         22    1    3    3    0    0  0.31603952500E+02  0.12669407421E+02  0.10994704481E+03  0.11509855064E+03  0.00000000000E+00 0.  1.
</event>
<event>
 7    1  0.7118985E-006  0.6003345E+02  0.7818608E-02  0.1399199E+00
          2   -1    0    0  502    0  0.00000000000E+00  0.00000000000E+00  0.57086476786E+03  0.57086476786E+03  0.00000000000E+00 0. -1.
          1   -1    0    0  501    0 -0.00000000000E+00 -0.00000000000E+00 -0.45557883430E+03  0.45557883430E+03  0.00000000000E+00 0. -1.
         25    2    1    2    0    0 -0.10025540645E+03  0.70419077357E+01  0.22650204753E+03  0.27754090867E+03  0.12500017385E+03 0.  0.
          2    1    1    2  501    0  0.48184935900E+02 -0.35457603882E+02 -0.42518807207E+03  0.42937620608E+03  0.00000000000E+00 0. -1.
          1    1    1    2  502    0  0.52070470552E+02  0.28415696146E+02  0.31397195809E+03  0.31952648741E+03  0.00000000000E+00 0. -1.
         22    1    3    3    0    0  0.13655553176E+02 -0.15018804676E+02  0.11446265708E+03  0.11624860641E+03  0.00000000000E+00 0. -1.
         22    1    3    3    0    0 -0.11391095963E+03  0.22060712412E+02  0.11203939045E+03  0.16129230226E+03  0.00000000000E+00 0. -1.
</event>
<event>
 7    1  0.7118985E-006  0.5286376E+02  0.7818608E-02  0.1476010E+00
          2   -1    0    0  502    0  0.00000000000E+00  0.00000000000E+00  0.28872457494E+02  0.28872457494E+02  0.00000000000E+00 0. -1.
          1   -1    0    0  501    0 -0.00000000000E+00 -0.00000000000E+00 -0.11793817948E+04  0.11793817948E+04  0.00000000000E+00 0. -1.
         25    2    1    2    0    0 -0.44657855435E+02 -0.66593935058E+02 -0.29535264206E+03  0.33058519528E+03  0.12499724768E+03 0.  0.
          2    1    1    2  501    0  0.32479317065E+02  0.19443019183E+02 -0.81115009392E+03  0.81203288843E+03  0.00000000000E+00 0. -1.
          1    1    1    2  502    0  0.12178538369E+02  0.47150915875E+02 -0.44006601307E+02  0.65636168560E+02  0.00000000000E+00 0. -1.
         22    1    3    3    0    0 -0.34386575676E+02 -0.53424420822E+02 -0.30483101508E+03  0.31138168392E+03  0.00000000000E+00 0. -1.
         22    1    3    3    0    0 -0.10271279759E+02 -0.13169514236E+02  0.94783730255E+01  0.19203511353E+02  0.00000000000E+00 0. -1.
</event>
<event>
 7    1  0.7118985E-006  0.9437198E+02  0.7818608E-02  0.1314725E+00
          2   -1    0    0  502    0  0.00000000000E+00  0.00000000000E+00  0.27790200399E+04  0.27790200399E+04  0.00000000000E+00 0. -1.
          1   -1    0    0  501    0 -0.00000000000E+00 -0.00000000000E+00 -0.15198936996E+04  0.15198936996E+04  0.00000000000E+00 0. -1.
         25    2    1    2    0    0  0.15224751114E+03  0.55429059896E+02  0.11589336229E+04  0.11768619207E+04  0.12500061171E+03 0.  0.
          2    1    1    2  501    0 -0.75213022866E+02 -0.56874256695E+02 -0.15085354238E+04  0.15114796740E+04  0.00000000000E+00 0. -1.
          1    1    1    2  502    0 -0.77034488275E+02  0.14451967989E+01  0.16087281412E+04  0.16105721447E+04  0.00000000000E+00 0. -1.
         22    1    3    3    0    0  0.13004662615E+03  0.92133954990E+02  0.83213816910E+03  0.84726307787E+03  0.00000000000E+00 0.  1.
         22    1    3    3    0    0  0.22200884989E+02 -0.36704895093E+02  0.32679545377E+03  0.32959884287E+03  0.00000000000E+00 0.  1.
</event>
<event>
 7    1  0.7118985E-006  0.9015557E+02  0.7818608E-02  0.1302896E+00
          2   -1    0    0  502    0  0.00000000000E+00  0.00000000000E+00  0.70954378451E+03  0.70954378451E+03  0.00000000000E+00 0. -1.
          1   -1    0    0  501    0 -0.00000000000E+00 -0.00000000000E+00 -0.82643870649E+03  0.82643870649E+03  0.00000000000E+00 0. -1.
         25    2    1    2    0    0 -0.52545244182E+02 -0.48880522005E+02 -0.39079052644E+02  0.14934236747E+03  0.12500264896E+03 0.  0.
          2    1    1    2  501    0 -0.32239676687E+02  0.84194004959E+02 -0.72620423196E+03  0.73177907440E+03  0.00000000000E+00 0. -1.
          1    1    1    2  502    0  0.84784920868E+02 -0.35313482954E+02  0.64838836262E+03  0.65486104913E+03  0.00000000000E+00 0. -1.
         22    1    3    3    0    0 -0.59712510144E+02 -0.86905561431E+02 -0.28881080864E+02  0.10932647121E+03  0.00000000000E+00 0. -1.
         22    1    3    3    0    0  0.71672659623E+01  0.38025039426E+02 -0.10197971780E+02  0.40015896256E+02  0.00000000000E+00 0. -1.
</event>
<event>
 7    1  0.7118985E-006  0.1971806E+03  0.7818608E-02  0.1229035E+00
          2   -1    0    0  502    0  0.00000000000E+00  0.00000000000E+00  0.21895120227E+03  0.21895120227E+03  0.00000000000E+00 0. -1.
          1   -1    0    0  501    0 -0.00000000000E+00 -0.00000000000E+00 -0.48271955208E+03  0.48271955208E+03  0.00000000000E+00 0. -1.
         25    2    1    2    0    0 -0.14142930540E+03 -0.66366580906E+02  0.79366244477E+02  0.21524087372E+03  0.12499144559E+03 0.  0.
          2    1    1    2  501    0  0.14196297831E+03  0.15068265786E+03 -0.34470798873E+03  0.40209743606E+03  0.00000000000E+00 0. -1.
          1    1    1    2  502    0 -0.53367291546E+00 -0.84316076951E+02  0.15733944409E+01  0.84332444583E+02  0.00000000000E+00 0. -1.
         22    1    3    3    0    0 -0.38725025173E+02 -0.84434482582E+02  0.19225288943E+02  0.94860008215E+02  0.00000000000E+00 0.  1.
         22    1    3    3    0    0 -0.10270428022E+03  0.18067901676E+02  0.60140955534E+02  0.12038086551E+03  0.00000000000E+00 0.  1.
</event>
<event>
 7    1  0.7118985E-006  0.5527101E+03  0.7818608E-02  0.1128068E+00
          2   -1    0    0  502    0  0.00000000000E+00  0.00000000000E+00  0.11944133456E+04  0.11944133456E+04  0.00000000000E+00 0. -1.
          1   -1    0    0  501    0 -0.00000000000E+00 -0.00000000000E+00 -0.13597490438E+04  0.13597490438E+04  0.00000000000E+00 0. -1.
         25    2    1    2    0    0 -0.57392543490E+03  0.22645860144E+03 -0.33631767236E+03  0.71372875870E+03  0.12500104504E+03 0.  0.
          2    1    1    2  501    0  0.49378422622E+03 -0.17725855252E+03 -0.74965816305E+03  0.91500317920E+03  0.00000000000E+00 0. -1.
          1    1    1    2  502    0  0.80141208682E+02 -0.49200048917E+02  0.92064013722E+03  0.92543045142E+03  0.00000000000E+00 0. -1.
         22    1    3    3    0    0 -0.84101781250E+02  0.49975473764E+01 -0.87192888118E+02  0.12124638068E+03  0.00000000000E+00 0. -1.
         22    1    3    3    0    0 -0.48982365365E+03  0.22146105406E+03 -0.24912478424E+03  0.59248237802E+03  0.00000000000E+00 0. -1.
</event>
<event>
 7    1  0.7118985E-006  0.1000224E+03  0.7818608E-02  0.1316031E+00
          2   -1    0    0  502    0  0.00000000000E+00  0.00000000000E+00  0.33393681761E+03  0.33393681761E+03  0.00000000000E+00 0. -1.
          1   -1    0    0  501    0 -0.00000000000E+00 -0.00000000000E+00 -0.26628840588E+04  0.26628840588E+04  0.00000000000E+00 0. -1.
         25    2    1    2    0    0  0.53209579685E+02 -0.10122129166E+03 -0.49041026881E+02  0.17637217105E+03  0.12500044458E+03 0.  0.
          2    1    1    2  501    0  0.38880434055E+02  0.60416406091E+02 -0.25402672368E+04  0.25412830352E+04  0.00000000000E+00 0. -1.
          1    1    1    2  502    0 -0.92090013740E+02  0.40804885574E+02  0.26036102257E+03  0.27916567015E+03  0.00000000000E+00 0. -1.
         22    1    3    3    0    0 -0.63952197833E+01 -0.97474131555E+02 -0.61408709060E+02  0.11538255807E+03  0.00000000000E+00 0.  1.
         22    1    3    3    0    0  0.59604799469E+02 -0.37471601098E+01  0.12367682179E+02  0.60989612977E+02  0.00000000000E+00 0.  1.
</event>
<event>
 7    1  0.7118985E-006  0.2345419E+03  0.7818608E-02  0.1215975E+00
          2   -1    0    0  502    0  0.00000000000E+00  0.00000000000E+00  0.60169909894E+03  0.60169909894E+03  0.00000000000E+00 0. -1.
          1   -1    0    0  501    0 -0.00000000000E+00 -0.00000000000E+00 -0.20668881869E+04  0.20668881869E+04  0.00000000000E+00 0. -1.
         25    2    1    2    0    0 -0.19107641994E+03 -0.51871895460E+02  0.19020981553E+01  0.23415768954E+03  0.12500125518E+03 0.  0.
          2    1    1    2  501    0  0.19669463822E+03  0.13293492867E+03 -0.19400599631E+04  0.19545314365E+04  0.00000000000E+00 0. -1.
          1    1    1    2  502    0 -0.56182182773E+01 -0.81063033208E+02  0.47296877699E+03  0.47989815976E+03  0.00000000000E+00 0. -1.
         22    1    3    3    0    0 -0.15219188855E+03 -0.48528537492E+02 -0.51657845583E+02  0.16788663706E+03  0.00000000000E+00 0. -1.
         22    1    3    3    0    0 -0.38884531390E+02 -0.33433579681E+01  0.53559943738E+02  0.66271052482E+02  0.00000000000E+00 0. -1.
</event>
<event>
 7    1  0.7118985E-006  0.8694099E+02  0.7818608E-02  0.1390535E+00
          2   -1    0    0  502    0  0.00000000000E+00  0.00000000000E+00  0.44864614305E+03  0.44864614305E+03  0.00000000000E+00 0. -1.
          1   -1    0    0  501    0 -0.00000000000E+00 -0.00000000000E+00 -0.14656554816E+03  0.14656554816E+03  0.00000000000E+00 0. -1.
         25    2    1    2    0    0 -0.93982473997E+02 -0.32643733807E+02  0.27456852276E+03  0.31766541276E+03  0.12500048799E+03 0.  0.
          2    1    1    2  501    0  0.11114599078E+02  0.42461264011E+02 -0.10902474524E+03  0.11752824481E+03  0.00000000000E+00 0. -1.
          1    1    1    2  502    0  0.82867874919E+02 -0.98175302047E+01  0.13653681736E+03  0.16001803364E+03  0.00000000000E+00 0. -1.
         22    1    3    3    0    0 -0.18708411287E+02 -0.18619844364E+02  0.22479737764E+03  0.22634169800E+03  0.00000000000E+00 0. -1.
         22    1    3    3    0    0 -0.75274062710E+02 -0.14023889442E+02  0.49771145116E+02  0.91323714763E+02  0.00000000000E+00 0. -1.
</event>
<event>
 7    1  0.7118985E-006  0.8423365E+02  0.7818608E-02  0.1390706E+00
          2   -1    0    0  502    0  0.00000000000E+00  0.00000000000E+00  0.18686638184E+03  0.18686638184E+03  0.00000000000E+00 0. -1.
          1   -1    0    0  501    0 -0.00000000000E+00 -0.00000000000E+00 -0.11617494996E+04  0.11617494996E+04  0.00000000000E+00 0. -1.
         25    2    1    2    0    0 -0.46653844000E+02 -0.27548744851E+02 -0.13245312357E+03  0.19001428223E+03  0.12500433195E+03 0.  0.
          2    1    1    2  501    0  0.46839435940E+02  0.72788934179E+02 -0.99536194870E+03  0.99911839669E+03  0.00000000000E+00 0. -1.
          1    1    1    2  502    0 -0.18559194016E+00 -0.45240189328E+02  0.15293195450E+03  0.15948320251E+03  0.00000000000E+00 0. -1.
         22    1    3    3    0    0 -0.13627366962E+02  0.30385406498E+01  0.23697520043E+02  0.27504732607E+02  0.00000000000E+00 0.  1.
         22    1    3    3    0    0 -0.33026477039E+02 -0.30587285501E+02 -0.15615064361E+03  0.16250954963E+03  0.00000000000E+00 0.  1.
</event>
<event>
 7    1  0.7118985E-006  0.5004884E+02  0.7818608E-02  0.1484779E+00
          2   -1    0    0  502    0  0.00000000000E+00  0.00000000000E+00  0.31987447649E+04  0.31987447649E+04  0.00000000000E+00 0. -1.
          1   -1    0    0  501    0 -0.00000000000E+00 -0.00000000000E+00 -0.61423391626E+03  0.61423391626E+03  0.00000000000E+00 0. -1.
         25    2    1    2    0    0  0.24445943585E+02 -0.67806716040E+01  0.23822677519E+03  0.27022321036E+03  0.12500002135E+03 0.  0.
          2    1    1    2  501    0  0.19064401769E+02  0.32388793682E+02 -0.59742875764E+03  0.59860972747E+03  0.00000000000E+00 0. -1.
          1    1    1    2  502    0 -0.43510345354E+02 -0.25608122078E+02  0.29437128311E+04  0.29441457433E+04  0.00000000000E+00 0. -1.
         22    1    3    3    0    0  0.73307802147E+02  0.16102076955E+01  0.10498188190E+03  0.12805398140E+03  0.00000000000E+00 0.  1.
         22    1    3    3    0    0 -0.48861858562E+02 -0.83908792994E+01  0.13324489328E+03  0.14216922896E+03  0.00000000000E+00 0.  1.
</event>
<event>
 7    1  0.7118985E-006  0.9436714E+02  0.7818608E-02  0.1400657E+00
          2   -1    0    0  502    0  0.00000000000E+00  0.00000000000E+00  0.51095221119E+02  0.51095221119E+02  0.00000000000E+00 0. -1.
          1   -1    0    0  501    0 -0.00000000000E+00 -0.00000000000E+00 -0.11345719587E+04  0.11345719587E+04  0.00000000000E+00 0. -1.
         25    2    1    2    0    0 -0.24127651786E+02  0.72042712046E+02 -0.77241469980E+03  0.78614412930E+03  0.12500331048E+03 0.  0.
          2    1    1    2  501    0 -0.37264637615E+02  0.17158236790E+01 -0.30069420065E+03  0.30299933922E+03  0.00000000000E+00 0. -1.
          1    1    1    2  502    0  0.61392289400E+02 -0.73758535725E+02 -0.10367837106E+02  0.96523711265E+02  0.00000000000E+00 0. -1.
         22    1    3    3    0    0  0.35086565975E+02 -0.13354789871E+02 -0.30591526110E+03  0.30821026021E+03  0.00000000000E+00 0.  1.
         22    1    3    3    0    0 -0.59214217761E+02  0.85397501917E+02 -0.46649943869E+03  0.47793386909E+03  0.00000000000E+00 0.  1.
</event>
<event>
 7    1  0.7118985E-006  0.6304010E+02  0.7818608E-02  0.1453165E+00
          2   -1    0    0  502    0  0.00000000000E+00  0.00000000000E+00  0.41672084848E+03  0.41672084848E+03  0.00000000000E+00 0. -1.
          1   -1    0    0  501    0 -0.00000000000E+00 -0.00000000000E+00 -0.73327427199E+03  0.73327427199E+03  0.00000000000E+00 0. -1.
         25    2    1    2    0    0 -0.20013283058E+02 -0.31320036513E+02  0.15893652229E+03  0.20556625102E+03  0.12496075086E+03 0.  0.
          2    1    1    2  501    0  0.57204718308E+02  0.27065878849E+02 -0.70704296504E+03  0.70986949224E+03  0.00000000000E+00 0. -1.
          1    1    1    2  502    0 -0.37191435250E+02  0.42541576644E+01  0.23155301925E+03  0.23455937721E+03  0.00000000000E+00 0. -1.
         22    1    3    3    0    0  0.71805206032E+01 -0.45817051286E+02  0.16732116653E+03  0.17362930292E+03  0.00000000000E+00 0. -1.
         22    1    3    3    0    0 -0.27193803661E+02  0.14497014773E+02 -0.83846442406E+01  0.31936948099E+02  0.00000000000E+00 0. -1.
</event>
<event>
 7    1  0.7118985E-006  0.1213993E+03  0.7818608E-02  0.1269040E+00
          2   -1    0    0  502    0  0.00000000000E+00  0.00000000000E+00  0.76708462948E+02  0.76708462948E+02  0.00000000000E+00 0. -1.
          1   -1    0    0  501    0 -0.00000000000E+00 -0.00000000000E+00 -0.41921808909E+04  0.41921808909E+04  0.00000000000E+00 0. -1.
         25    2    1    2    0    0  0.11392360204E+03  0.14777112754E+03 -0.14348213701E+04  0.14522919677E+04  0.12499880917E+03 0.  0.
          2    1    1    2  501    0 -0.98591483211E+02 -0.57291200759E+02 -0.27158985998E+04  0.27182913322E+04  0.00000000000E+00 0. -1.
          1    1    1    2  502    0 -0.15332118830E+02 -0.90479926781E+02  0.35247541954E+02  0.98306053892E+02  0.00000000000E+00 0. -1.
         22    1    3    3    0    0  0.12587330989E+03  0.82231859466E+02 -0.11497775294E+04  0.11595665294E+04  0.00000000000E+00 0. -1.
         22    1    3    3    0    0 -0.11949707850E+02  0.65539268074E+02 -0.28504384065E+03  0.29272543837E+03  0.00000000000E+00 0. -1.
</event>
<event>
 7    1  0.7118985E-006  0.1060322E+03  0.7818608E-02  0.1342237E+00
          2   -1    0    0  502    0  0.00000000000E+00  0.00000000000E+00  0.61160293166E+03  0.61160293166E+03  0.00000000000E+00 0. -1.
          1   -1    0    0  501    0 -0.00000000000E+00 -0.00000000000E+00 -0.76275455568E+02  0.76275455568E+02  0.00000000000E+00 0. -1.
         25    2    1    2    0    0  0.65471637375E+02  0.46652709730E+02  0.22446527809E+03  0.26920758299E+03  0.12500020418E+03 0.  0.
          2    1    1    2  501    0  0.50807405939E+02 -0.17701294246E+02 -0.26993289880E+02  0.60194401856E+02  0.00000000000E+00 0. -1.
          1    1    1    2  502    0 -0.11627904331E+03 -0.28951415484E+02  0.33785548788E+03  0.35847640238E+03  0.00000000000E+00 0. -1.
         22    1    3    3    0    0 -0.13330737960E+01 -0.19505272797E+02  0.14439528764E+03  0.14571284036E+03  0.00000000000E+00 0.  1.
         22    1    3    3    0    0  0.66804711171E+02  0.66157982527E+02  0.80069990449E+02  0.12349474263E+03  0.00000000000E+00 0.  1.
</event>
<event>
 7    1  0.7118985E-006  0.4236285E+02  0.7818608E-02  0.1505105E+00
          2   -1    0    0  502    0  0.00000000000E+00  0.00000000000E+00  0.10968126803E+03  0.10968126803E+03  0.00000000000E+00 0. -1.
          1   -1    0    0  501    0 -0.00000000000E+00 -0.00000000000E+00 -0.75049036067E+03  0.75049036067E+03  0.00000000000E+00 0. -1.
         25    2    1    2    0    0  0.65680447283E+02 -0.13425442612E+02 -0.10325217292E+03  0.17544201944E+03  0.12499890923E+03 0.  0.
          2    1    1    2  501    0 -0.35418345424E+02 -0.15286487163E+02 -0.60456671171E+03  0.60579620731E+03  0.00000000000E+00 0. -1.
          1    1    1    2  502    0 -0.30262101859E+02  0.28711929775E+02  0.67009791988E+02  0.78933401945E+02  0.00000000000E+00 0. -1.
         22    1    3    3    0    0 -0.20081764154E+02  0.36083222425E+02 -0.42535494573E+02  0.59283593773E+02  0.00000000000E+00 0.  1.
         22    1    3    3    0    0  0.85762211437E+02 -0.49508665037E+02 -0.60716678346E+02  0.11615842567E+03  0.00000000000E+00 0.  1.
</event>
<event>
 7    1  0.7118985E-006  0.2442234E+02  0.7818608E-02  0.1680727E+00
          2   -1    0    0  502    0  0.00000000000E+00  0.00000000000E+00  0.82112852224E+03  0.82112852224E+03  0.00000000000E+00 0. -1.
          1   -1    0    0  501    0 -0.00000000000E+00 -0.00000000000E+00 -0.10164134187E+03  0.10164134187E+03  0.00000000000E+00 0. -1.
         25    2    1    2    0    0 -0.33559729769E+02 -0.30194206497E+02  0.11003042879E+03  0.17253875887E+03  0.12499992993E+03 0.  0.
          2    1    1    2  501    0  0.12745057842E+02  0.20505273146E+02 -0.68116663218E+02  0.72268821314E+02  0.00000000000E+00 0. -1.
          1    1    1    2  502    0  0.20814671927E+02  0.96889333509E+01  0.67757341480E+03  0.67796228393E+03  0.00000000000E+00 0. -1.
         22    1    3    3    0    0 -0.30169813847E+02 -0.24592655912E+01 -0.22104648764E+02  0.37481744247E+02  0.00000000000E+00 0.  1.
         22    1    3    3    0    0 -0.33899159217E+01 -0.27734940906E+02  0.13213507756E+03  0.13505701462E+03  0.00000000000E+00 0.  1.
</event>
<event>
 7    1  0.7118985E-006  0.6802536E+02  0.7818608E-02  0.1420606E+00
          2   -1    0    0  502    0  0.00000000000E+00  0.00000000000E+00  0.49989831735E+03  0.49989831735E+03  0.00000000000E+00 0. -1.
          1   -1    0    0  501    0 -0.00000000000E+00 -0.00000000000E+00 -0.36697226158E+03  0.36697226158E+03  0.00000000000E+00 0. -1.
         25    2    1    2    0    0  0.10666128915E+03  0.17102307371E+02  0.44240554418E+02  0.17103525394E+03  0.12500684747E+03 0.  0.
          2    1    1    2  501    0 -0.40352524860E+02 -0.18269454062E+02 -0.29912913626E+03  0.30239103720E+03  0.00000000000E+00 0. -1.
          1    1    1    2  502    0 -0.66308764289E+02  0.11671466910E+01  0.38781463761E+03  0.39344428779E+03  0.00000000000E+00 0. -1.
         22    1    3    3    0    0  0.52939345347E+02  0.70322387482E+02  0.35502761873E+02  0.94911846297E+02  0.00000000000E+00 0. -1.
         22    1    3    3    0    0  0.53721943803E+02 -0.53220080111E+02  0.87377925449E+01  0.76123407645E+02  0.00000000000E+00 0. -1.
</event>
<event>
 7    1  0.7118985E-006  0.7121414E+02  0.7818608E-02  0.1432827E+00
          2   -1    0    0  502    0  0.00000000000E+00  0.00000000000E+00  0.22747614091E+03  0.22747614091E+03  0.00000000000E+00 0. -1.
          1   -1    0    0  501    0 -0.00000000000E+00 -0.00000000000E+00 -0.14200478170E+04  0.14200478170E+04  0.00000000000E+00 0. -1.
         25    2    1    2    0    0 -0.26931672717E+02  0.10268410117E+03 -0.18249942481E+03  0.24535711883E+03  0.12499894430E+03 0.  0.
          2    1    1    2  501    0  0.20301002826E+02 -0.32773351479E+02 -0.11995112859E+04  0.12001306380E+04  0.00000000000E+00 0. -1.
          1    1    1    2  502    0  0.66306698912E+01 -0.69910749691E+02  0.18943903462E+03  0.20203620107E+03  0.00000000000E+00 0. -1.
         22    1    3    3    0    0 -0.55406845849E+01  0.78618807531E+02 -0.19538068826E+03  0.21067802312E+03  0.00000000000E+00 0. -1.
         22    1    3    3    0    0 -0.21390988132E+02  0.24065293640E+02  0.12881263446E+02  0.34679095709E+02  0.00000000000E+00 0. -1.
</event>
<event>
 7    1  0.7118985E-006  0.9486902E+02  0.7818608E-02  0.1296816E+00
          2   -1    0    0  502    0  0.00000000000E+00  0.00000000000E+00  0.18059630905E+04  0.18059630905E+04  0.00000000000E+00 0. -1.
          1   -1    0    0  501    0 -0.00000000000E+00 -0.00000000000E+00 -0.12206361238E+03  0.12206361238E+03  0.00000000000E+00 0. -1.
         25    2    1    2    0    0 -0.17387342629E+02 -0.62504689262E+02  0.51187547637E+02  0.14984788303E+03  0.12500026861E+03 0.  0.
          2    1    1    2  501    0  0.90260051546E+02 -0.11299681135E+01 -0.42783302788E+02  0.99892766157E+02  0.00000000000E+00 0. -1.
          1    1    1    2  502    0 -0.72872708917E+02  0.63634657376E+02  0.16754952333E+04  0.16782860537E+04  0.00000000000E+00 0. -1.
         22    1    3    3    0    0 -0.71634360593E+02 -0.40520311709E+02  0.29633272165E+02  0.87472899219E+02  0.00000000000E+00 0. -1.
         22    1    3    3    0    0  0.54247017964E+02 -0.21984377553E+02  0.21554275472E+02  0.62374983812E+02  0.00000000000E+00 0. -1.
</event>
<event>
 7    1  0.7118985E-006  0.6424232E+02  0.7818608E-02  0.1418531E+00
          2   -1    0    0  502    0  0.00000000000E+00  0.00000000000E+00  0.46125034793E+03  0.46125034793E+03  0.00000000000E+00 0. -1.
          1   -1    0    0  501    0 -0.00000000000E+00 -0.00000000000E+00 -0.57368923393E+03  0.57368923393E+03  0.00000000000E+00 0. -1.
         25    2    1    2    0    0  0.59613526633E+02  0.89224995218E+02  0.90002828204E+02  0.18772412488E+03  0.12499986260E+03 0.  0.
          2    1    1    2  501    0 -0.34551133613E+02 -0.32826964121E+02 -0.52077682870E+03  0.52295305308E+03  0.00000000000E+00 0. -1.
          1    1    1    2  502    0 -0.25062393020E+02 -0.56398031097E+02  0.31833511450E+03  0.32426240390E+03  0.00000000000E+00 0. -1.
         22    1    3    3    0    0  0.13948573690E+01  0.10143323416E+03  0.36779549324E+02  0.10790450346E+03  0.00000000000E+00 0.  1.
         22    1    3    3    0    0  0.58218669264E+02 -0.12208238941E+02  0.53223278881E+02  0.79819621420E+02  0.00000000000E+00 0.  1.
</event>
<event>
 7    1  0.7118985E-006  0.5668476E+02  0.7818608E-02  0.1421257E+00
          2   -1    0    0  502    0  0.00000000000E+00  0.00000000000E+00  0.11565896986E+04  0.11565896986E+04  0.00000000000E+00 0. -1.
          1   -1    0    0  501    0 -0.00000000000E+00 -0.00000000000E+00 -0.10417559064E+03  0.10417559064E+03  0.00000000000E+00 0. -1.
         25    2    1    2    0    0 -0.43406577049E+02 -0.50900355036E+02  0.61098498653E+03  0.62721911111E+03  0.12500472990E+03 0.  0.
          2    1    1    2  501    0  0.56866022952E+02 -0.25123971591E+00 -0.86202565850E+02  0.10326998619E+03  0.00000000000E+00 0. -1.
          1    1    1    2  502    0 -0.13459445903E+02  0.51151594751E+02  0.52763168723E+03  0.53027619190E+03  0.00000000000E+00 0. -1.
         22    1    3    3    0    0 -0.49791323714E+02  0.25830715378E+02  0.37013374254E+03  0.37435997267E+03  0.00000000000E+00 0.  1.
         22    1    3    3    0    0  0.63847466653E+01 -0.76731070413E+02  0.24085124399E+03  0.25285913844E+03  0.00000000000E+00 0.  1.
</event>
<event>
 7    1  0.7118985E-006  0.1473754E+03  0.7818608E-02  0.1255790E+00
          2   -1    0    0  502    0  0.00000000000E+00  0.00000000000E+00  0.73532259941E+03  0.73532259941E+03  0.00000000000E+00 0. -1.
          1   -1    0    0  501    0 -0.00000000000E+00 -0.00000000000E+00 -0.19606478548E+04  0.19606478548E+04  0.00000000000E+00 0. -1.
         25    2    1    2    0    0 -0.15080476065E+02  0.11302392521E+03 -0.84057530400E+03  0.85743397296E+03  0.12499739143E+03 0.  0.
          2    1    1    2  501    0 -0.85916954807E+02 -0.50351444313E+01 -0.11024296574E+04  0.11057839868E+04  0.00000000000E+00 0. -1.
          1    1    1    2  502    0  0.10099743087E+03 -0.10798878078E+03  0.71767970600E+03  0.73275249452E+03  0.00000000000E+00 0. -1.
         22    1    3    3    0    0  0.33801842989E+02 -0.10319246434E+02 -0.13893389265E+03  0.14335856432E+03  0.00000000000E+00 0.  1.
         22    1    3    3    0    0 -0.48882319054E+02  0.12334317164E+03 -0.70164141135E+03  0.71407540864E+03  0.00000000000E+00 0.  1.
</event>
<event>
 7    1  0.7118985E-006  0.1089481E+03  0.7818608E-02  0.1316634E+00
          2   -1    0    0  502    0  0.00000000000E+00  0.00000000000E+00  0.33422172920E+03  0.33422172920E+03  0.00000000000E+00 0. -1.
          1   -1    0    0  501    0 -0.00000000000E+00 -0.00000000000E+00 -0.68836245152E+03  0.68836245152E+03  0.00000000000E+00 0. -1.
         25    2    1    2    0    0 -0.96169598520E+02  0.16941788366E+02  0.24767375187E+03  0.29411273143E+03  0.12499758218E+03 0.  0.
          2    1    1    2  501    0  0.75540930281E+02 -0.79218012138E+02 -0.64218104578E+03  0.65144333687E+03  0.00000000000E+00 0. -1.
          1    1    1    2  502    0  0.20628668239E+02  0.62276223772E+02  0.40366571591E+02  0.77028112418E+02  0.00000000000E+00 0. -1.
         22    1    3    3    0    0 -0.16194108917E+02  0.58731534822E+02  0.14582958129E+03  0.15804401009E+03  0.00000000000E+00 0.  1.
         22    1    3    3    0    0 -0.79975489603E+02 -0.41789746456E+02  0.10184417058E+03  0.13606872134E+03  0.00000000000E+00 0.  1.
</event>
<event>
 7    1  0.7118985E-006  0.8663866E+02  0.7818608E-02  0.1360669E+00
          2   -1    0    0  502    0  0.00000000000E+00  0.00000000000E+00  0.22507737809E+03  0.22507737809E+03  0.00000000000E+00 0. -1.
          1   -1    0    0  501    0 -0.00000000000E+00 -0.00000000000E+00 -0.11008493513E+04  0.11008493513E+04  0.00000000000E+00 0. -1.
         25    2    1    2    0    0 -0.71970450881E+02 -0.12111738093E+03 -0.24996154856E+03  0.31298098555E+03  0.12500862287E+03 0.  0.
          2    1    1    2  501    0  0.32139420845E+02  0.46205553909E+02 -0.80905631406E+03  0.81101172304E+03  0.00000000000E+00 0. -1.
          1    1    1    2  502    0  0.39831030036E+02  0.74911827024E+02  0.18324588940E+03  0.20193402081E+03  0.00000000000E+00 0. -1.
         22    1    3    3    0    0 -0.10718233884E+03 -0.77451205242E+02 -0.17755819272E+03  0.22139027701E+03  0.00000000000E+00 0.  1.
         22    1    3    3    0    0  0.35211887960E+02 -0.43666175691E+02 -0.72403355846E+02  0.91590708540E+02  0.00000000000E+00 0.  1.
</event>
<event>
 7    1  0.9445237E-006  0.1506833E+03  0.7818608E-02  0.1267741E+00
          2   -1    0    0  502    0  0.00000000000E+00  0.00000000000E+00  0.14254578628E+04  0.14254578628E+04  0.00000000000E+00 0. -1.
          1   -1    0    0  501    0 -0.00000000000E+00 -0.00000000000E+00 -0.14258925290E+04  0.14258925290E+04  0.00000000000E+00 0. -1.
         25    2    1    2    0    0 -0.22227405709E+03 -0.40093227016E+01 -0.49268303982E+03  0.55478217490E+03  0.12499941096E+03 0.  0.
          2    1    1    2  501    0  0.73346855382E+02 -0.15035941868E+02 -0.89655344039E+03  0.89967433676E+03  0.00000000000E+00 0. -1.
          1    1    1    2  502    0  0.14892720170E+03  0.19045264570E+02  0.13888018141E+04  0.13968938801E+04  0.00000000000E+00 0. -1.
         22    1    3    3    0    0 -0.20544460365E+03  0.21107299783E+02 -0.32988551385E+03  0.38920104769E+03  0.00000000000E+00 0.  1.
         22    1    3    3    0    0 -0.16829453440E+02 -0.25116622484E+02 -0.16279752597E+03  0.16558112722E+03  0.00000000000E+00 0.  1.
</event>
<event>
 7    1  0.7118985E-006  0.9257872E+02  0.7818608E-02  0.1375244E+00
          2   -1    0    0  502    0  0.00000000000E+00  0.00000000000E+00  0.79676406878E+03  0.79676406878E+03  0.00000000000E+00 0. -1.
          1   -1    0    0  501    0 -0.00000000000E+00 -0.00000000000E+00 -0.22757517008E+04  0.22757517008E+04  0.00000000000E+00 0. -1.
         25    2    1    2    0    0  0.58998690315E+02 -0.29534524063E+02  0.98041963941E+01  0.14168405576E+03  0.12500046328E+03 0.  0.
          2    1    1    2  501    0  0.35145576641E+02  0.30704053796E+02 -0.22064903791E+04  0.22069838566E+04  0.00000000000E+00 0. -1.
          1    1    1    2  502    0 -0.94144266956E+02 -0.11695297333E+01  0.71769855063E+03  0.72384785721E+03  0.00000000000E+00 0. -1.
         22    1    3    3    0    0 -0.28554368949E+02 -0.34949923284E+02 -0.19548135969E+02  0.49183114415E+02  0.00000000000E+00 0.  1.
         22    1    3    3    0    0  0.87553059264E+02  0.54153992218E+01  0.29352332363E+02  0.92500941349E+02  0.00000000000E+00 0.  1.
</event>
<event>
 7    1  0.7216569E-006  0.7237521E+02  0.7818608E-02  0.1370122E+00
          2   -1    0    0  502    0  0.00000000000E+00  0.00000000000E+00  0.81438236134E+03  0.81438236134E+03  0.00000000000E+00 0. -1.
          1   -1    0    0  501    0 -0.00000000000E+00 -0.00000000000E+00 -0.83593379146E+03  0.83593379146E+03  0.00000000000E+00 0. -1.
         25    2    1    2    0    0  0.12324055026E+03 -0.39423477666E+02 -0.22901116166E+03  0.29123152999E+03  0.12500899198E+03 0.  0.
          2    1    1    2  501    0 -0.67795924996E+02  0.11076361088E+02 -0.57251828586E+03  0.57662480077E+03  0.00000000000E+00 0. -1.
          1    1    1    2  502    0 -0.55444625261E+02  0.28347116578E+02  0.77997801740E+03  0.78245982205E+03  0.00000000000E+00 0. -1.
         22    1    3    3    0    0  0.13906133069E+03 -0.26115907501E+02 -0.23054475729E+03  0.27050134830E+03  0.00000000000E+00 0.  1.
         22    1    3    3    0    0 -0.15820780437E+02 -0.13307570165E+02  0.15335956301E+01  0.20730181689E+02  0.00000000000E+00 0.  1.
</event>
<event>
 7    1  0.7118985E-006  0.4180524E+02  0.7818608E-02  0.1609349E+00
          2   -1    0    0  502    0  0.00000000000E+00  0.00000000000E+00  0.67804347407E+03  0.67804347407E+03  0.00000000000E+00 0. -1.
          1   -1    0    0  501    0 -0.00000000000E+00 -0.00000000000E+00 -0.20223325661E+02  0.20223325661E+02  0.00000000000E+00 0. -1.
         25    2    1    2    0    0  0.38408603219E+02 -0.36015533164E+02  0.33811750023E+03  0.36430780971E+03  0.12499758729E+03 0.  0.
          2    1    1    2  501    0 -0.63747956720E+00  0.20114668017E+02  0.11775478636E+02  0.23316692449E+02  0.00000000000E+00 0. -1.
          1    1    1    2  502    0 -0.37771123651E+02  0.15900865146E+02  0.30792716955E+03  0.31064229757E+03  0.00000000000E+00 0. -1.
         22    1    3    3    0    0  0.27454927610E+02  0.62343972851E+01  0.53097687560E+01  0.28650207745E+02  0.00000000000E+00 0. -1.
         22    1    3    3    0    0  0.10953675608E+02 -0.42249930449E+02  0.33280773147E+03  0.33565760197E+03  0.00000000000E+00 0. -1.
</event>
<event>
 7    1  0.7118985E-006  0.8884771E+02  0.7818608E-02  0.1419846E+00
          2   -1    0    0  502    0  0.00000000000E+00  0.00000000000E+00  0.21138793488E+04  0.21138793488E+04  0.00000000000E+00 0. -1.
          1   -1    0    0  501    0 -0.00000000000E+00 -0.00000000000E+00 -0.21742893926E+03  0.21742893926E+03  0.00000000000E+00 0. -1.
         25    2    1    2    0    0  0.46207276989E+02 -0.48202258727E+02  0.11259654095E+03  0.18100139366E+03  0.12499981311E+03 0.  0.
          2    1    1    2  501    0  0.33382582805E+02  0.70232987052E+01 -0.18060838173E+03  0.18380182565E+03  0.00000000000E+00 0. -1.
          1    1    1    2  502    0 -0.79589859794E+02  0.41178960022E+02  0.19644622504E+04  0.19665050688E+04  0.00000000000E+00 0. -1.
         22    1    3    3    0    0  0.17563924333E+02  0.16004606036E+02 -0.19908349028E+02  0.30999696988E+02  0.00000000000E+00 0.  1.
         22    1    3    3    0    0  0.28643352656E+02 -0.64206864763E+02  0.13250488998E+03  0.15000169667E+03  0.00000000000E+00 0.  1.
</event>
<event>
 7    1  0.7118985E-006  0.1062795E+03  0.7818608E-02  0.1368604E+00
          2   -1    0    0  502    0  0.00000000000E+00  0.00000000000E+00  0.14281542832E+04  0.14281542832E+04  0.00000000000E+00 0. -1.
          1   -1    0    0  501    0 -0.00000000000E+00 -0.00000000000E+00 -0.48005741133E+03  0.48005741133E+03  0.00000000000E+00 0. -1.
         25    2    1    2    0    0  0.75655226729E+02  0.29195233840E+02  0.69125957989E+03  0.70713548915E+03  0.12499887288E+03 0.  0.
          2    1    1    2  501    0  0.34170001300E+02  0.26009126134E+02 -0.46594334077E+03  0.46791800611E+03  0.00000000000E+00 0. -1.
          1    1    1    2  502    0 -0.10982522803E+03 -0.55204359974E+02  0.72278063274E+03  0.73315819925E+03  0.00000000000E+00 0. -1.
         22    1    3    3    0    0  0.21927431890E+02  0.66928980788E+02  0.49966068382E+03  0.50459994024E+03  0.00000000000E+00 0. -1.
         22    1    3    3    0    0  0.53727794839E+02 -0.37733746947E+02  0.19159889607E+03  0.20253554891E+03  0.00000000000E+00 0. -1.
</event>
<event>
 7    1  0.7118985E-006  0.5470518E+02  0.7818608E-02  0.1545225E+00
          2   -1    0    0  502    0  0.00000000000E+00  0.00000000000E+00  0.49684183161E+02  0.49684183161E+02  0.00000000000E+00 0. -1.
          1   -1    0    0  501    0 -0.00000000000E+00 -0.00000000000E+00 -0.32131976278E+03  0.32131976278E+03  0.00000000000E+00 0. -1.
         25    2    1    2    0    0 -0.21592681976E+02 -0.67701046756E+02 -0.24086686883E+03  0.28052004588E+03  0.12499988797E+03 0.  0.
          2    1    1    2  501    0 -0.58110857958E+01  0.22135535043E+02 -0.29449307313E+02  0.37296277709E+02  0.00000000000E+00 0. -1.
          1    1    1    2  502    0  0.27403767772E+02  0.45565511713E+02 -0.13194034718E+01  0.53187622350E+02  0.00000000000E+00 0. -1.
         22    1    3    3    0    0  0.22103745436E+02 -0.48051148110E+02 -0.23397355192E+02  0.57835323350E+02  0.00000000000E+00 0. -1.
         22    1    3    3    0    0 -0.43696427412E+02 -0.19649898646E+02 -0.21746951364E+03  0.22268472253E+03  0.00000000000E+00 0. -1.
</event>
<event>
 7    1  0.7118985E-006  0.1073943E+03  0.7818608E-02  0.1282781E+00
          2   -1    0    0  502    0  0.00000000000E+00  0.00000000000E+00  0.17816177389E+04  0.17816177389E+04  0.00000000000E+00 0. -1.
          1   -1    0    0  501    0 -0.00000000000E+00 -0.00000000000E+00 -0.36222490326E+02  0.36222490326E+02  0.00000000000E+00 0. -1.
         25    2    1    2    0    0  0.12776844478E+03  0.12988165724E+03  0.82314988924E+03  0.85228969432E+03  0.12501184946E+03 0.  0.
          2    1    1    2  501    0 -0.49618316497E+02 -0.83369349073E+02  0.10384781441E+03  0.14211542582E+03  0.00000000000E+00 0. -1.
          1    1    1    2  502    0 -0.78150128280E+02 -0.46512308167E+02  0.81839754491E+03  0.82343510908E+03  0.00000000000E+00 0. -1.
         22    1    3    3    0    0  0.12596651538E+03  0.14633747320E+03  0.80452645530E+03  0.82737236861E+03  0.00000000000E+00 0. -1.
         22    1    3    3    0    0  0.18019293951E+01 -0.16455815963E+02  0.18623433948E+02  0.24917325710E+02  0.00000000000E+00 0. -1.
</event>
<event>
 7    1  0.7118985E-006  0.1748816E+03  0.7818608E-02  0.1275561E+00
          2   -1    0    0  502    0  0.00000000000E+00  0.00000000000E+00  0.69810239183E+03  0.69810239183E+03  0.00000000000E+00 0. -1.
          1   -1    0    0  501    0 -0.00000000000E+00 -0.00000000000E+00 -0.13755407070E+04  0.13755407070E+04  0.00000000000E+00 0. -1.
         25    2    1    2    0    0 -0.50544401845E+02  0.22713485130E+03  0.10786238851E+03  0.28531422427E+03  0.12499973792E+03 0.  0.
          2    1    1    2  501    0  0.32528545107E+02 -0.17008645789E+03 -0.12791755455E+04  0.12908437495E+04  0.00000000000E+00 0. -1.
          1    1    1    2  502    0  0.18015856737E+02 -0.57048393416E+02  0.49387484182E+03  0.49748512507E+03  0.00000000000E+00 0. -1.
         22    1    3    3    0    0  0.83169741963E+01  0.19840298794E+03  0.78399760531E+02  0.21349341942E+03  0.00000000000E+00 0.  1.
         22    1    3    3    0    0 -0.58861376041E+02  0.28731863358E+02  0.29462627978E+02  0.71820804847E+02  0.00000000000E+00 0.  1.
</event>
<event>
 7    1  0.7118985E-006  0.6845986E+02  0.7818608E-02  0.1464100E+00
          2   -1    0    0  502    0  0.00000000000E+00  0.00000000000E+00  0.16363795354E+04  0.16363795354E+04  0.00000000000E+00 0. -1.
          1   -1    0    0  501    0 -0.00000000000E+00 -0.00000000000E+00 -0.37520853706E+03  0.37520853706E+03  0.00000000000E+00 0. -1.
         25    2    1    2    0    0  0.19700328438E+02 -0.66958312347E+02  0.15148649140E+03  0.20843738708E+03  0.12500587475E+03 0.  0.
          2    1    1    2  501    0  0.27074631861E+02  0.16742819959E+02 -0.34519192382E+03  0.34665663412E+03  0.00000000000E+00 0. -1.
          1    1    1    2  502    0 -0.46774960299E+02  0.50215492388E+02  0.14548764308E+04  0.14564940513E+04  0.00000000000E+00 0. -1.
         22    1    3    3    0    0  0.21669285860E+02 -0.10097065708E+03  0.13663693558E+03  0.17127254219E+03  0.00000000000E+00 0.  1.
         22    1    3    3    0    0 -0.19689574218E+01  0.34012344736E+02  0.14849555819E+02  0.37164844891E+02  0.00000000000E+00 0.  1.
</event>
<event>
 7    1  0.7118985E-006  0.3894697E+03  0.7818608E-02  0.1163723E+00
          2   -1    0    0  502    0  0.00000000000E+00  0.00000000000E+00  0.54978273833E+03  0.54978273833E+03  0.00000000000E+00 0. -1.
          1   -1    0    0  501    0 -0.00000000000E+00 -0.00000000000E+00 -0.77643021066E+03  0.77643021066E+03  0.00000000000E+00 0. -1.
         25    2    1    2    0    0 -0.24253889880E+03  0.20520412898E+03  0.18662346581E+03  0.38908515603E+03  0.12500035467E+03 0.  0.
          2    1    1    2  501    0  0.31171970611E+03 -0.25827739848E+03 -0.60417270333E+03  0.72725583201E+03  0.00000000000E+00 0. -1.
          1    1    1    2  502    0 -0.69180807308E+02  0.53073269506E+02  0.19090176520E+03  0.20987196095E+03  0.00000000000E+00 0. -1.
         22    1    3    3    0    0 -0.18672894778E+03  0.21158063246E+03  0.17394859439E+03  0.33149989059E+03  0.00000000000E+00 0. -1.
         22    1    3    3    0    0 -0.55809951023E+02 -0.63765034844E+01  0.12674871419E+02  0.57585265437E+02  0.00000000000E+00 0. -1.
</event>
<event>
 7    1  0.7118985E-006  0.4492472E+02  0.7818608E-02  0.1575317E+00
          2   -1    0    0  502    0  0.00000000000E+00  0.00000000000E+00  0.11402094068E+03  0.11402094068E+03  0.00000000000E+00 0. -1.
          1   -1    0    0  501    0 -0.00000000000E+00 -0.00000000000E+00 -0.15909926372E+04  0.15909926372E+04  0.00000000000E+00 0. -1.
         25    2    1    2    0    0 -0.25918838321E+02  0.10508300454E+02 -0.49042859720E+03  0.50687977909E+03  0.12499876376E+03 0.  0.
          2    1    1    2  501    0 -0.48094793949E+01  0.22522108225E+02 -0.10874016036E+04  0.10876454496E+04  0.00000000000E+00 0. -1.
          1    1    1    2  502    0  0.30728317716E+02 -0.33030408678E+02  0.10085850433E+03  0.11048834917E+03  0.00000000000E+00 0. -1.
         22    1    3    3    0    0  0.21453874643E+01  0.62514701685E+02 -0.17216149701E+03  0.18317279183E+03  0.00000000000E+00 0. -1.
         22    1    3    3    0    0 -0.28064225785E+02 -0.52006401231E+02 -0.31826710019E+03  0.32370698726E+03  0.00000000000E+00 0. -1.
</event>
<event>
 7    1  0.7118985E-006  0.1244109E+03  0.7818608E-02  0.1305816E+00
          2   -1    0    0  502    0  0.00000000000E+00  0.00000000000E+00  0.63661534531E+02  0.63661534531E+02  0.00000000000E+00 0. -1.
          1   -1    0    0  501    0 -0.00000000000E+00 -0.00000000000E+00 -0.15834889153E+04  0.15834889153E+04  0.00000000000E+00 0. -1.
         25    2    1    2    0    0  0.10840647952E+03  0.93740752858E+02 -0.39835338732E+03  0.44141624212E+03  0.12499433614E+03 0.  0.
          2    1    1    2  501    0 -0.11937217716E+03 -0.31332935982E+02 -0.11343762371E+04  0.11410700753E+04  0.00000000000E+00 0. -1.
          1    1    1    2  502    0  0.10965697632E+02 -0.62407816876E+02  0.12902243598E+02  0.64664132420E+02  0.00000000000E+00 0. -1.
         22    1    3    3    0    0  0.50995562090E+02  0.70843034165E+02 -0.84339918837E+02  0.12137752985E+03  0.00000000000E+00 0.  1.
         22    1    3    3    0    0  0.57410917435E+02  0.22897718693E+02 -0.31401346848E+03  0.32003871227E+03  0.00000000000E+00 0.  1.
</event>
<event>
 7    1  0.7118985E-006  0.1207382E+03  0.7818608E-02  0.1439100E+00
          2   -1    0    0  502    0  0.00000000000E+00  0.00000000000E+00  0.18342529466E+04  0.18342529466E+04  0.00000000000E+00 0. -1.
          1   -1    0    0  501    0 -0.00000000000E+00 -0.00000000000E+00 -0.54971176958E+03  0.54971176958E+03  0.00000000000E+00 0. -1.
         25    2    1    2    0    0  0.88335982339E+02 -0.11076877234E+03 -0.35076690808E+03  0.39841468015E+03  0.12499546730E+03 0.  0.
          2    1    1    2  501    0 -0.94175680343E+01  0.19540321369E+02 -0.17243142683E+03  0.17379042466E+03  0.00000000000E+00 0. -1.
          1    1    1    2  502    0 -0.78918414305E+02  0.91228450974E+02  0.18077395119E+04  0.18117596114E+04  0.00000000000E+00 0. -1.
         22    1    3    3    0    0  0.34353657466E+02 -0.14598353242E+02 -0.23716781142E+03  0.24008718515E+03  0.00000000000E+00 0.  1.
         22    1    3    3    0    0  0.53982324873E+02 -0.96170419102E+02 -0.11359909666E+03  0.15832749499E+03  0.00000000000E+00 0.  1.
</event>
<event>
 7    1  0.7118985E-006  0.2576159E+03  0.7818608E-02  0.1218395E+00
          2   -1    0    0  502    0  0.00000000000E+00  0.00000000000E+00  0.53618840115E+03  0.53618840115E+03  0.00000000000E+00 0. -1.
          1   -1    0    0  501    0 -0.00000000000E+00 -0.00000000000E+00 -0.15226356189E+04  0.15226356189E+04  0.00000000000E+00 0. -1.
         25    2    1    2    0    0  0.27934597278E+03  0.13662609191E+03 -0.17203678837E+03  0.37672652887E+03  0.12500143800E+03 0.  0.
          2    1    1    2  501    0 -0.40542671859E+02 -0.59639483094E+02 -0.12108143274E+04  0.12129599794E+04  0.00000000000E+00 0. -1.
          1    1    1    2  502    0 -0.23880330092E+03 -0.76986608812E+02  0.39640389810E+03  0.46913751171E+03  0.00000000000E+00 0. -1.
         22    1    3    3    0    0  0.22246880539E+03  0.62685366951E+02 -0.77160361421E+02  0.24367097893E+03  0.00000000000E+00 0.  1.
         22    1    3    3    0    0  0.56877167388E+02  0.73940724955E+02 -0.94876426949E+02  0.13305554993E+03  0.00000000000E+00 0.  1.
</event>
<event>
 7    1  0.7118985E-006  0.1527392E+03  0.7818608E-02  0.1273806E+00
          2   -1    0    0  502    0  0.00000000000E+00  0.00000000000E+00  0.14772350773E+04  0.14772350773E+04  0.00000000000E+00 0. -1.
          1   -1    0    0  501    0 -0.00000000000E+00 -0.00000000000E+00 -0.11282110084E+03  0.11282110084E+03  0.00000000000E+00 0. -1.
         25    2    1    2    0    0  0.59066543717E+02  0.15057120170E+03  0.36811783017E+03  0.42106709847E+03  0.12500488453E+03 0.  0.
          2    1    1    2  501    0  0.52821172844E+02 -0.45417350226E+02 -0.65815698505E+02  0.95835891877E+02  0.00000000000E+00 0. -1.
          1    1    1    2  502    0 -0.11188771656E+03 -0.10515385148E+03  0.10621118448E+04  0.10731531878E+04  0.00000000000E+00 0. -1.
         22    1    3    3    0    0  0.47138761520E+02  0.15735626258E+03  0.37212799838E+03  0.40677057832E+03  0.00000000000E+00 0. -1.
         22    1    3    3    0    0  0.11927782197E+02 -0.67850608792E+01 -0.40101682087E+01  0.14296520147E+02  0.00000000000E+00 0. -1.
</event>
<event>
 7    1  0.7118985E-006  0.1475376E+03  0.7818608E-02  0.1294764E+00
          2   -1    0    0  502    0  0.00000000000E+00  0.00000000000E+00  0.13000930621E+04  0.13000930621E+04  0.00000000000E+00 0. -1.
          1   -1    0    0  501    0 -0.00000000000E+00 -0.00000000000E+00 -0.30358007962E+03  0.30358007962E+03  0.00000000000E+00 0. -1.
         25    2    1    2    0    0  0.19582139228E+03 -0.22325571706E+02  0.13931980404E+03  0.27180900016E+03  0.12500270376E+03 0.  0.
          2    1    1    2  501    0 -0.14249134922E+03 -0.32814486951E+01 -0.21504776499E+03  0.25799242960E+03  0.00000000000E+00 0. -1.
          1    1    1    2  502    0 -0.53330043062E+02  0.25607020401E+02  0.10722409435E+04  0.10738717120E+04  0.00000000000E+00 0. -1.
         22    1    3    3    0    0  0.15949656534E+03 -0.26835930949E+02  0.16186256981E+03  0.22882048215E+03  0.00000000000E+00 0.  1.
         22    1    3    3    0    0  0.36324826941E+02  0.45103592425E+01 -0.22542765769E+02  0.42988518017E+02  0.00000000000E+00 0.  1.
</event>
<event>
 7    1  0.7118985E-006  0.1416164E+03  0.7818608E-02  0.1236740E+00
          2   -1    0    0  502    0  0.00000000000E+00  0.00000000000E+00  0.14348115656E+04  0.14348115656E+04  0.00000000000E+00 0. -1.
          1   -1    0    0  501    0 -0.00000000000E+00 -0.00000000000E+00 -0.64191662224E+03  0.64191662224E+03  0.00000000000E+00 0. -1.
         25    2    1    2    0    0  0.17764783349E+03  0.16898346420E+03  0.41115321165E+02  0.27826298345E+03  0.12500261760E+03 0.  0.
          2    1    1    2  501    0 -0.87651096483E+02 -0.63890048222E+02 -0.51391194651E+03  0.52523341644E+03  0.00000000000E+00 0. -1.
          1    1    1    2  502    0 -0.89996737009E+02 -0.10509341598E+03  0.12656915687E+04  0.12732317880E+04  0.00000000000E+00 0. -1.
         22    1    3    3    0    0  0.40779271185E+01  0.70119500693E+02 -0.12728458413E+02  0.71381983166E+02  0.00000000000E+00 0. -1.
         22    1    3    3    0    0  0.17356990637E+03  0.98863963506E+02  0.53843779579E+02  0.20688100028E+03  0.00000000000E+00 0. -1.
</event>
<event>
 7    1  0.7118985E-006  0.3923547E+02  0.7818608E-02  0.1590337E+00
          2   -1    0    0  502    0  0.00000000000E+00  0.00000000000E+00  0.17030483848E+04  0.17030483848E+04  0.00000000000E+00 0. -1.
          1   -1    0    0  501    0 -0.00000000000E+00 -0.00000000000E+00 -0.72282869484E+02  0.72282869484E+02  0.00000000000E+00 0. -1.
         25    2    1    2    0    0 -0.68700734130E+01 -0.16845419284E+02  0.19741702893E+03  0.23437017380E+03  0.12499971598E+03 0.  0.
          2    1    1    2  501    0  0.27683514512E+02  0.28879447636E+02 -0.46259188774E+02  0.61158090369E+02  0.00000000000E+00 0. -1.
          1    1    1    2  502    0 -0.20813441099E+02 -0.12034028352E+02  0.14796076752E+04  0.14798029901E+04  0.00000000000E+00 0. -1.
         22    1    3    3    0    0  0.24467546764E+02 -0.34597477078E+02  0.19356417472E+03  0.19814826772E+03  0.00000000000E+00 0. -1.
         22    1    3    3    0    0 -0.31337620177E+02  0.17752057794E+02  0.38528542077E+01  0.36221906077E+02  0.00000000000E+00 0. -1.
</event>
<event>
 7    1  0.7118985E-006  0.2776152E+02  0.7818608E-02  0.1661063E+00
          2   -1    0    0  502    0  0.00000000000E+00  0.00000000000E+00  0.16398535511E+04  0.16398535511E+04  0.00000000000E+00 0. -1.
          1   -1    0    0  501    0 -0.00000000000E+00 -0.00000000000E+00 -0.16252697454E+04  0.16252697454E+04  0.00000000000E+00 0. -1.
         25    2    1    2    0    0 -0.24864565992E+02 -0.29025305664E+02  0.57139484644E+01  0.13083645872E+03  0.12499925885E+03 0.  0.
          2    1    1    2  501    0  0.26955201027E+02  0.66171002088E+01 -0.15625046634E+04  0.15627511613E+04  0.00000000000E+00 0. -1.
          1    1    1    2  502    0 -0.20906350351E+01  0.22408205455E+02  0.15713745206E+04  0.15715356765E+04  0.00000000000E+00 0. -1.
         22    1    3    3    0    0 -0.35729630496E+01 -0.25895541660E+01  0.63588895000E+02  0.63741818479E+02  0.00000000000E+00 0.  1.
         22    1    3    3    0    0 -0.21291602943E+02 -0.26435751498E+02 -0.57874946536E+02  0.67094640245E+02  0.00000000000E+00 0.  1.
</event>
<event>
 7    1  0.7118985E-006  0.1696820E+03  0.7818608E-02  0.1357358E+00
          2   -1    0    0  502    0  0.00000000000E+00  0.00000000000E+00  0.56309441549E+02  0.56309441549E+02  0.00000000000E+00 0. -1.
          1   -1    0    0  501    0 -0.00000000000E+00 -0.00000000000E+00 -0.22501787571E+04  0.22501787571E+04  0.00000000000E+00 0. -1.
         25    2    1    2    0    0  0.14684611007E+03  0.78281366225E+02 -0.13464501100E+04  0.13624405935E+04  0.12499887917E+03 0.  0.
          2    1    1    2  501    0 -0.12727830930E+02  0.26668578786E+02 -0.74445343416E+03  0.74503968110E+03  0.00000000000E+00 0. -1.
          1    1    1    2  502    0 -0.13411827914E+03 -0.10494994501E+03 -0.10296577141E+03  0.19900792406E+03  0.00000000000E+00 0. -1.
         22    1    3    3    0    0  0.15099677034E+03  0.10314688814E+03 -0.11930369627E+04  0.12069699663E+04  0.00000000000E+00 0. -1.
         22    1    3    3    0    0 -0.41506602708E+01 -0.24865521918E+02 -0.15341314731E+03  0.15547062723E+03  0.00000000000E+00 0. -1.
</event>
<event>
 7    1  0.7118985E-006  0.4389571E+03  0.7818608E-02  0.1175365E+00
          2   -1    0    0  502    0  0.00000000000E+00  0.00000000000E+00  0.81743960232E+03  0.81743960232E+03  0.00000000000E+00 0. -1.
          1   -1    0    0  501    0 -0.00000000000E+00 -0.00000000000E+00 -0.15827661261E+04  0.15827661261E+04  0.00000000000E+00 0. -1.
         25    2    1    2    0    0  0.29828002600E+03 -0.23492525497E+03 -0.50713575523E+03  0.64573413647E+03  0.12500020577E+03 0.  0.
          2    1    1    2  501    0  0.42006457466E+02 -0.53107324192E+02 -0.93858584786E+03  0.94102514534E+03  0.00000000000E+00 0. -1.
          1    1    1    2  502    0 -0.34028648347E+03  0.28803257916E+03  0.68039507933E+03  0.81344644659E+03  0.00000000000E+00 0. -1.
         22    1    3    3    0    0  0.15362841574E+03 -0.12587175994E+03 -0.36476453362E+03  0.41532945364E+03  0.00000000000E+00 0. -1.
         22    1    3    3    0    0  0.14465161027E+03 -0.10905349502E+03 -0.14237122161E+03  0.23040468283E+03  0.00000000000E+00 0. -1.
</event>
<event>
 7    1  0.7118985E-006  0.7448812E+02  0.7818608E-02  0.1366154E+00
          2   -1    0    0  502    0  0.00000000000E+00  0.00000000000E+00  0.47410682567E+03  0.47410682567E+03  0.00000000000E+00 0. -1.
          1   -1    0    0  501    0 -0.00000000000E+00 -0.00000000000E+00 -0.31161090416E+03  0.31161090416E+03  0.00000000000E+00 0. -1.
         25    2    1    2    0    0 -0.11438979693E+03  0.67254500833E+02 -0.11777942956E+03  0.21703419341E+03  0.12499461412E+03 0.  0.
          2    1    1    2  501    0  0.44924085743E+02 -0.43496022636E+02 -0.13404303359E+03  0.14791082557E+03  0.00000000000E+00 0. -1.
          1    1    1    2  502    0  0.69465711186E+02 -0.23758478196E+02  0.41431838467E+03  0.42077271085E+03  0.00000000000E+00 0. -1.
         22    1    3    3    0    0 -0.46191050446E+02 -0.10063305103E+02 -0.10241313503E+03  0.11279775476E+03  0.00000000000E+00 0.  1.
         22    1    3    3    0    0 -0.68198746483E+02  0.77317805935E+02 -0.15366294533E+02  0.10423643866E+03  0.00000000000E+00 0.  1.
</event>
<event>
 7    1  0.7118985E-006  0.8517687E+02  0.7818608E-02  0.1435317E+00
          2   -1    0    0  502    0  0.00000000000E+00  0.00000000000E+00  0.96173921861E+03  0.96173921861E+03  0.00000000000E+00 0. -1.
          1   -1    0    0  501    0 -0.00000000000E+00 -0.00000000000E+00 -0.28435929830E+03  0.28435929830E+03  0.00000000000E+00 0. -1.
         25    2    1    2    0    0  0.32258248038E+02 -0.44774810099E+02  0.16906532120E+03  0.21737812044E+03  0.12499914491E+03 0.  0.
          2    1    1    2  501    0 -0.56072014106E+02  0.65596371327E+02 -0.25271033219E+03  0.26703832439E+03  0.00000000000E+00 0. -1.
          1    1    1    2  502    0  0.23813766068E+02 -0.20821561228E+02  0.76102493130E+03  0.76168207208E+03  0.00000000000E+00 0. -1.
         22    1    3    3    0    0 -0.17254395711E+02  0.22237560997E+02  0.11419796638E+03  0.11761547013E+03  0.00000000000E+00 0.  1.
         22    1    3    3    0    0  0.49512643749E+02 -0.67012371095E+02  0.54867354828E+02  0.99762650309E+02  0.00000000000E+00 0.  1.
</event>
<event>
 7    1  0.8440198E-006  0.9010817E+02  0.7818608E-02  0.1317988E+00
          2   -1    0    0  502    0  0.00000000000E+00  0.00000000000E+00  0.27546898217E+04  0.27546898217E+04  0.00000000000E+00 0. -1.
          1   -1    0    0  501    0 -0.00000000000E+00 -0.00000000000E+00 -0.16616803437E+04  0.16616803437E+04  0.00000000000E+00 0. -1.
         25    2    1    2    0    0 -0.72546265317E+02 -0.38253229523E+02 -0.89353683485E+02  0.17416752234E+03  0.12499589955E+03 0.  0.
          2    1    1    2  501    0  0.59384810377E+02 -0.51128495391E+02 -0.15281631893E+04  0.15301710401E+04  0.00000000000E+00 0. -1.
          1    1    1    2  502    0  0.13161454940E+02  0.89381724914E+02  0.27105263509E+04  0.27120316029E+04  0.00000000000E+00 0. -1.
         22    1    3    3    0    0 -0.27731482902E+02  0.20717480964E+02  0.21571665145E+02  0.40787080045E+02  0.00000000000E+00 0.  1.
         22    1    3    3    0    0 -0.44814782415E+02 -0.58970710487E+02 -0.11092534863E+03  0.13338044230E+03  0.00000000000E+00 0.  1.
</event>
<event>
 7    1  0.1447162E-005  0.6682563E+02  0.7818608E-02  0.1386876E+00
          2   -1    0    0  502    0  0.00000000000E+00  0.00000000000E+00  0.16525690416E+04  0.16525690416E+04  0.00000000000E+00 0. -1.
          1   -1    0    0  501    0 -0.00000000000E+00 -0.00000000000E+00 -0.45592764827E+03  0.45592764827E+03  0.00000000000E+00 0. -1.
         25    2    1    2    0    0  0.48531904202E+02  0.33935301206E+02 -0.13413624374E+03  0.19268581519E+03  0.12501336366E+03 0.  0.
          2    1    1    2  501    0 -0.48660207911E+02  0.33029537092E+02 -0.28886168687E+03  0.29478778858E+03  0.00000000000E+00 0. -1.
          1    1    1    2  502    0  0.12830370916E+00 -0.66964838298E+02  0.16196393239E+04  0.16210230861E+04  0.00000000000E+00 0. -1.
         22    1    3    3    0    0  0.29488284442E+02 -0.40185580199E+02 -0.93697275057E+02  0.10613019895E+03  0.00000000000E+00 0.  1.
         22    1    3    3    0    0  0.19043619761E+02  0.74120881406E+02 -0.40438968688E+02  0.86555616239E+02  0.00000000000E+00 0.  1.
</event>
<event>
 7    1  0.7118985E-006  0.8354130E+02  0.7818608E-02  0.1469339E+00
          2   -1    0    0  502    0  0.00000000000E+00  0.00000000000E+00  0.49388519080E+03  0.49388519080E+03  0.00000000000E+00 0. -1.
          1   -1    0    0  501    0 -0.00000000000E+00 -0.00000000000E+00 -0.17681537634E+04  0.17681537634E+04  0.00000000000E+00 0. -1.
         25    2    1    2    0    0  0.88777802256E+02 -0.22835239878E+01 -0.30316050992E+03  0.33973203652E+03  0.12499939682E+03 0.  0.
          2    1    1    2  501    0 -0.80606229171E+02 -0.21471800716E+02 -0.14451721837E+04  0.14475776466E+04  0.00000000000E+00 0. -1.
          1    1    1    2  502    0 -0.81715730852E+01  0.23755324704E+02  0.47406412098E+03  0.47472927112E+03  0.00000000000E+00 0. -1.
         22    1    3    3    0    0  0.10585681100E+03  0.34682375320E+02 -0.20190554849E+03  0.23059571138E+03  0.00000000000E+00 0. -1.
         22    1    3    3    0    0 -0.17079008744E+02 -0.36965899308E+02 -0.10125496143E+03  0.10913632514E+03  0.00000000000E+00 0. -1.
</event>
<event>
 7    1  0.7118985E-006  0.2708210E+03  0.7818608E-02  0.1157210E+00
          2   -1    0    0  502    0  0.00000000000E+00  0.00000000000E+00  0.28311918070E+04  0.28311918070E+04  0.00000000000E+00 0. -1.
          1   -1    0    0  501    0 -0.00000000000E+00 -0.00000000000E+00 -0.33754790957E+03  0.33754790957E+03  0.00000000000E+00 0. -1.
         25    2    1    2    0    0  0.22063340477E+03 -0.27101971432E+03  0.18201653139E+04  0.18576213800E+04  0.12499854732E+03 0.  0.
          2    1    1    2  501    0 -0.10709292091E+03  0.82625072660E+02 -0.29151794646E+03  0.32136973947E+03  0.00000000000E+00 0. -1.
          1    1    1    2  502    0 -0.11354048385E+03  0.18839464166E+03  0.96499652995E+03  0.98974859702E+03  0.00000000000E+00 0. -1.
         22    1    3    3    0    0  0.17848602663E+03 -0.18602779116E+03  0.15497665863E+04  0.15710633573E+04  0.00000000000E+00 0. -1.
         22    1    3    3    0    0  0.42147378139E+02 -0.84991923154E+02  0.27039872760E+03  0.28655802270E+03  0.00000000000E+00 0. -1.
</event>
<event>
 7    1  0.7118985E-006  0.8156834E+02  0.7818608E-02  0.1406927E+00
          2   -1    0    0  502    0  0.00000000000E+00  0.00000000000E+00  0.56632138517E+03  0.56632138517E+03  0.00000000000E+00 0. -1.
          1   -1    0    0  501    0 -0.00000000000E+00 -0.00000000000E+00 -0.41505022150E+03  0.41505022150E+03  0.00000000000E+00 0. -1.
         25    2    1    2    0    0  0.10831097487E+03 -0.30903138286E+02 -0.14220215857E+03  0.22029906814E+03  0.12499581709E+03 0.  0.
          2    1    1    2  501    0 -0.39351143008E+02 -0.11786534637E+02 -0.22884109674E+03  0.23249877938E+03  0.00000000000E+00 0. -1.
          1    1    1    2  502    0 -0.68959831861E+02  0.42689672923E+02  0.52231441898E+03  0.52857375914E+03  0.00000000000E+00 0. -1.
         22    1    3    3    0    0  0.10247033937E+03 -0.10445551803E+02 -0.31702260214E+02  0.10776972351E+03  0.00000000000E+00 0.  1.
         22    1    3    3    0    0  0.58406355016E+01 -0.20457586484E+02 -0.11049989835E+03  0.11252934463E+03  0.00000000000E+00 0.  1.
</event>
<event>
 7    1  0.7118985E-006  0.1809368E+03  0.7818608E-02  0.1262944E+00
          2   -1    0    0  502    0  0.00000000000E+00  0.00000000000E+00  0.96350005683E+02  0.96350005683E+02  0.00000000000E+00 0. -1.
          1   -1    0    0  501    0 -0.00000000000E+00 -0.00000000000E+00 -0.17437730597E+04  0.17437730597E+04  0.00000000000E+00 0. -1.
         25    2    1    2    0    0  0.84177977569E+01 -0.21105095138E+03 -0.53125399642E+03  0.58520893300E+03  0.12500129262E+03 0.  0.
          2    1    1    2  501    0 -0.55784055147E+02  0.16604834008E+03 -0.11619856162E+04  0.11751146686E+04  0.00000000000E+00 0. -1.
          1    1    1    2  502    0  0.47366257390E+02  0.45002611303E+02  0.45816558672E+02  0.79799463731E+02  0.00000000000E+00 0. -1.
         22    1    3    3    0    0 -0.32967959890E+02 -0.10822488782E+03 -0.38753871664E+03  0.40371496086E+03  0.00000000000E+00 0.  1.
         22    1    3    3    0    0  0.41385757647E+02 -0.10282606357E+03 -0.14371527978E+03  0.18149397215E+03  0.00000000000E+00 0.  1.
</event>
<event>
 7    1  0.7118985E-006  0.5350106E+02  0.7818608E-02  0.1470676E+00
          2   -1    0    0  502    0  0.00000000000E+00  0.00000000000E+00  0.36363467975E+04  0.36363467975E+04  0.00000000000E+00 0. -1.
          1   -1    0    0  501    0 -0.00000000000E+00 -0.00000000000E+00 -0.49241697103E+02  0.49241697103E+02  0.00000000000E+00 0. -1.
         25    2    1    2    0    0  0.65435996856E+02  0.63386639304E+02  0.22586314086E+04  0.22639209979E+04  0.12499083708E+03 0.  0.
          2    1    1    2  501    0 -0.33292668398E+02 -0.41560891630E+02 -0.31014156786E+02  0.61624568180E+02  0.00000000000E+00 0. -1.
          1    1    1    2  502    0 -0.32143328458E+02 -0.21825747673E+02  0.13594878486E+04  0.13600429285E+04  0.00000000000E+00 0. -1.
         22    1    3    3    0    0 -0.59393350338E+01  0.18747089877E+02  0.15753885706E+04  0.15755113067E+04  0.00000000000E+00 0.  1.
         22    1    3    3    0    0  0.71375331890E+02  0.44639549427E+02  0.68324283797E+03  0.68840969125E+03  0.00000000000E+00 0.  1.
</event>
<event>
 7    1  0.7118985E-006  0.6411496E+02  0.7818608E-02  0.1512358E+00
          2   -1    0    0  502    0  0.00000000000E+00  0.00000000000E+00  0.78739224126E+03  0.78739224126E+03  0.00000000000E+00 0. -1.
          1   -1    0    0  501    0 -0.00000000000E+00 -0.00000000000E+00 -0.24389869987E+02  0.24389869987E+02  0.00000000000E+00 0. -1.
         25    2    1    2    0    0  0.78614079767E+02 -0.17720968939E+02  0.29510720485E+03  0.33046318386E+03  0.12499378886E+03 0.  0.
          2    1    1    2  501    0 -0.16325846793E+02  0.17949994793E+02  0.28063240733E+02  0.37098262318E+02  0.00000000000E+00 0. -1.
          1    1    1    2  502    0 -0.62288232974E+02 -0.22902585418E+00  0.43983192569E+03  0.44422066507E+03  0.00000000000E+00 0. -1.
         22    1    3    3    0    0  0.29611290082E+02  0.49106664913E+02  0.17794481831E+03  0.18695628206E+03  0.00000000000E+00 0.  1.
         22    1    3    3    0    0  0.49002789685E+02 -0.66827633852E+02  0.11716238653E+03  0.14350690179E+03  0.00000000000E+00 0.  1.
</event>
<event>
 7    1  0.7118985E-006  0.3178534E+02  0.7818608E-02  0.1657397E+00
          2   -1    0    0  502    0  0.00000000000E+00  0.00000000000E+00  0.33068353328E+03  0.33068353328E+03  0.00000000000E+00 0. -1.
          1   -1    0    0  501    0 -0.00000000000E+00 -0.00000000000E+00 -0.30034162882E+03  0.30034162882E+03  0.00000000000E+00 0. -1.
         25    2    1    2    0    0 -0.43035945416E+02 -0.15586341291E+02  0.61633927799E+02  0.14669546594E+03  0.12500316812E+03 0.  0.
          2    1    1    2  501    0  0.31670027806E+02 -0.94645639940E+00 -0.25638953675E+03  0.25833985561E+03  0.00000000000E+00 0. -1.
          1    1    1    2  502    0  0.11365917610E+02  0.16532797691E+02  0.22509751341E+03  0.22598984054E+03  0.00000000000E+00 0. -1.
         22    1    3    3    0    0  0.94907678275E+01  0.33802661444E+02 -0.17846619207E+02  0.39385230884E+02  0.00000000000E+00 0.  1.
         22    1    3    3    0    0 -0.52526713244E+02 -0.49389002736E+02  0.79480547007E+02  0.10731023506E+03  0.00000000000E+00 0.  1.
</event>
<event>
 7    1  0.7118985E-006  0.5794942E+02  0.7818608E-02  0.1507974E+00
          2   -1    0    0  502    0  0.00000000000E+00  0.00000000000E+00  0.11200983327E+03  0.11200983327E+03  0.00000000000E+00 0. -1.
          1   -1    0    0  501    0 -0.00000000000E+00 -0.00000000000E+00 -0.63428590028E+03  0.63428590028E+03  0.00000000000E+00 0. -1.
         25    2    1    2    0    0  0.62650911319E+02  0.55584946838E+02 -0.11314062771E+03  0.18825664169E+03  0.12499975399E+03 0.  0.
          2    1    1    2  501    0 -0.19980553117E+02 -0.19119874754E+02 -0.47254638626E+03  0.47335491893E+03  0.00000000000E+00 0. -1.
          1    1    1    2  502    0 -0.42670358202E+02 -0.36465072084E+02  0.63410946961E+02  0.84684172934E+02  0.00000000000E+00 0. -1.
         22    1    3    3    0    0  0.39373672910E+02 -0.31236620794E+02 -0.75739563646E+02  0.90898262351E+02  0.00000000000E+00 0. -1.
         22    1    3    3    0    0  0.23277238409E+02  0.86821567632E+02 -0.37401064064E+02  0.97358379338E+02  0.00000000000E+00 0. -1.
</event>
<event>
 7    1  0.7118985E-006  0.2094995E+03  0.7818608E-02  0.1199995E+00
          2   -1    0    0  502    0  0.00000000000E+00  0.00000000000E+00  0.52180479151E+03  0.52180479151E+03  0.00000000000E+00 0. -1.
          1   -1    0    0  501    0 -0.00000000000E+00 -0.00000000000E+00 -0.98773253074E+03  0.98773253074E+03  0.00000000000E+00 0. -1.
         25    2    1    2    0    0 -0.29798071753E+03 -0.64876279612E+02 -0.14991316285E+03  0.36207994503E+03  0.12500596194E+03 0.  0.
          2    1    1    2  501    0  0.19113430662E+03  0.49424760367E+02 -0.71104369897E+03  0.73794191638E+03  0.00000000000E+00 0. -1.
          1    1    1    2  502    0  0.10684641091E+03  0.15451519244E+02  0.39502912259E+03  0.40951546084E+03  0.00000000000E+00 0. -1.
         22    1    3    3    0    0 -0.50058284412E+02 -0.13217986164E+02 -0.86830212220E+02  0.10109417763E+03  0.00000000000E+00 0.  1.
         22    1    3    3    0    0 -0.24792243312E+03 -0.51658293448E+02 -0.63082950630E+02  0.26098576740E+03  0.00000000000E+00 0.  1.
</event>
<event>
 7    1  0.7118985E-006  0.8258605E+02  0.7818608E-02  0.1465108E+00
          2   -1    0    0  502    0  0.00000000000E+00  0.00000000000E+00  0.40475154292E+03  0.40475154292E+03  0.00000000000E+00 0. -1.
          1   -1    0    0  501    0 -0.00000000000E+00 -0.00000000000E+00 -0.54452816786E+03  0.54452816786E+03  0.00000000000E+00 0. -1.
         25    2    1    2    0    0 -0.10785769195E+03 -0.97685787314E+01  0.17786220767E+03  0.24287869513E+03  0.12500555502E+03 0.  0.
          2    1    1    2  501    0  0.81666980588E+02  0.91920575436E+01 -0.50781849764E+03  0.51442552054E+03  0.00000000000E+00 0. -1.
          1    1    1    2  502    0  0.26190711364E+02  0.57652118777E+00  0.19017966502E+03  0.19197549512E+03  0.00000000000E+00 0. -1.
         22    1    3    3    0    0 -0.88034644062E+02 -0.40315446823E+02  0.18207553117E+03  0.20622059271E+03  0.00000000000E+00 0.  1.
         22    1    3    3    0    0 -0.19823047891E+02  0.30546868092E+02 -0.42133234963E+01  0.36658102417E+02  0.00000000000E+00 0.  1.
</event>
<event>
 7    1  0.7118985E-006  0.2148536E+03  0.7818608E-02  0.1154476E+00
          2   -1    0    0  502    0  0.00000000000E+00  0.00000000000E+00  0.11952289824E+04  0.11952289824E+04  0.00000000000E+00 0. -1.
          1   -1    0    0  501    0 -0.00000000000E+00 -0.00000000000E+00 -0.11701324866E+04  0.11701324866E+04  0.00000000000E+00 0. -1.
         25    2    1    2    0    0  0.36966927583E+03  0.98370072995E+02 -0.38735744875E+03  0.55857246311E+03  0.12500143473E+03 0.  0.
          2    1    1    2  501    0 -0.15974873652E+03 -0.73985806562E+02 -0.67572338276E+03  0.69828049407E+03  0.00000000000E+00 0. -1.
          1    1    1    2  502    0 -0.20992053931E+03 -0.24384266433E+02  0.10881773273E+04  0.11085085119E+04  0.00000000000E+00 0. -1.
         22    1    3    3    0    0  0.11107451489E+03 -0.14859068797E+02 -0.62947274769E+02  0.12853287200E+03  0.00000000000E+00 0. -1.
         22    1    3    3    0    0  0.25859476094E+03  0.11322914179E+03 -0.32441017398E+03  0.43003959110E+03  0.00000000000E+00 0. -1.
</event>
<event>
 7    1  0.7118985E-006  0.1411690E+03  0.7818608E-02  0.1303082E+00
          2   -1    0    0  502    0  0.00000000000E+00  0.00000000000E+00  0.40442521326E+03  0.40442521326E+03  0.00000000000E+00 0. -1.
          1   -1    0    0  501    0 -0.00000000000E+00 -0.00000000000E+00 -0.27173016108E+03  0.27173016108E+03  0.00000000000E+00 0. -1.
         25    2    1    2    0    0  0.11816844247E+03 -0.91680298370E+02  0.10650608118E+03  0.22212011231E+03  0.12499896425E+03 0.  0.
          2    1    1    2  501    0 -0.70097412169E+02  0.12278570325E+03 -0.18635216320E+03  0.23391687593E+03  0.00000000000E+00 0. -1.
          1    1    1    2  502    0 -0.48071030300E+02 -0.31105404879E+02  0.21254113421E+03  0.22011838609E+03  0.00000000000E+00 0. -1.
         22    1    3    3    0    0  0.96276690293E+01  0.30053955594E+02  0.13088840091E+02  0.34165040505E+02  0.00000000000E+00 0.  1.
         22    1    3    3    0    0  0.10854077344E+03 -0.12173425396E+03  0.93417241085E+02  0.18795507181E+03  0.00000000000E+00 0.  1.
</event>
<event>
 7    1  0.7118985E-006  0.7063882E+02  0.7818608E-02  0.1451616E+00
          2   -1    0    0  502    0  0.00000000000E+00  0.00000000000E+00  0.12547868229E+04  0.12547868229E+04  0.00000000000E+00 0. -1.
          1   -1    0    0  501    0 -0.00000000000E+00 -0.00000000000E+00 -0.78910237409E+02  0.78910237409E+02  0.00000000000E+00 0. -1.
         25    2    1    2    0    0  0.10016901148E+03 -0.14404355650E+02  0.32754363448E+03  0.36490014168E+03  0.12500385828E+03 0.  0.
          2    1    1    2  501    0 -0.31672744036E+02  0.11770328959E+02 -0.54088876573E+02  0.63775464933E+02  0.00000000000E+00 0. -1.
          1    1    1    2  502    0 -0.68496267448E+02  0.26340266917E+01  0.90242182757E+03  0.90502145368E+03  0.00000000000E+00 0. -1.
         22    1    3    3    0    0  0.54043461747E+02 -0.20799703931E+02  0.30964297263E+03  0.31501126002E+03  0.00000000000E+00 0.  1.
         22    1    3    3    0    0  0.46125549738E+02  0.63953482810E+01  0.17900661847E+02  0.49888881655E+02  0.00000000000E+00 0.  1.
</event>
<event>
 7    1  0.7118985E-006  0.3308940E+03  0.7818608E-02  0.1184760E+00
          2   -1    0    0  502    0  0.00000000000E+00  0.00000000000E+00  0.13059208283E+04  0.13059208283E+04  0.00000000000E+00 0. -1.
          1   -1    0    0  501    0 -0.00000000000E+00 -0.00000000000E+00 -0.43155255453E+03  0.43155255453E+03  0.00000000000E+00 0. -1.
         25    2    1    2    0    0  0.34962906236E+03 -0.12193944482E+02  0.27666812614E+03  0.46320498183E+03  0.12499771855E+03 0.  0.
          2    1    1    2  501    0 -0.31692997630E+03  0.86108672719E+02 -0.25621304020E+03  0.41653863609E+03  0.00000000000E+00 0. -1.
          1    1    1    2  502    0 -0.32699086060E+02 -0.73914728237E+02  0.85391318782E+03  0.85772976491E+03  0.00000000000E+00 0. -1.
         22    1    3    3    0    0  0.21940823991E+03  0.16132621758E+02  0.99356349378E+02  0.24139577748E+03  0.00000000000E+00 0. -1.
         22    1    3    3    0    0  0.13022082245E+03 -0.28326566240E+02  0.17731177677E+03  0.22180920435E+03  0.00000000000E+00 0. -1.
</event>
<event>
 7    1  0.7118985E-006  0.7960396E+02  0.7818608E-02  0.1375449E+00
          2   -1    0    0  502    0  0.00000000000E+00  0.00000000000E+00  0.55582831885E+03  0.55582831885E+03  0.00000000000E+00 0. -1.
          1   -1    0    0  501    0 -0.00000000000E+00 -0.00000000000E+00 -0.97548919011E+03  0.97548919011E+03  0.00000000000E+00 0. -1.
         25    2    1    2    0    0  0.14265885987E+02 -0.26920363661E+02 -0.74590042879E+02  0.14872331152E+03  0.12500690945E+03 0.  0.
          2    1    1    2  501    0 -0.65946116065E+01 -0.53780956778E+02 -0.85980755797E+03  0.86151315542E+03  0.00000000000E+00 0. -1.
          1    1    1    2  502    0 -0.76712743805E+01  0.80701320439E+02  0.51473672958E+03  0.52108104202E+03  0.00000000000E+00 0. -1.
         22    1    3    3    0    0 -0.90330120484E+01 -0.64169405353E+02 -0.81632931567E+02  0.10422688428E+03  0.00000000000E+00 0.  1.
         22    1    3    3    0    0  0.23298898035E+02  0.37249041691E+02  0.70428886886E+01  0.44496427246E+02  0.00000000000E+00 0.  1.
</event>
<event>
 7    1  0.7118985E-006  0.1114499E+03  0.7818608E-02  0.1319424E+00
          2   -1    0    0  502    0  0.00000000000E+00  0.00000000000E+00  0.16707619114E+04  0.16707619114E+04  0.00000000000E+00 0. -1.
          1   -1    0    0  501    0 -0.00000000000E+00 -0.00000000000E+00 -0.32462580075E+02  0.32462580075E+02  0.00000000000E+00 0. -1.
         25    2    1    2    0    0  0.81251500275E+02 -0.13226022960E+03  0.62860084349E+03  0.65943799284E+03  0.12499948536E+03 0.  0.
          2    1    1    2  501    0 -0.29617272094E+02  0.96960320143E+02  0.14555891507E+03  0.17738625721E+03  0.00000000000E+00 0. -1.
          1    1    1    2  502    0 -0.51634228181E+02  0.35299909452E+02  0.86413957272E+03  0.86640024139E+03  0.00000000000E+00 0. -1.
         22    1    3    3    0    0  0.59504421953E+02 -0.12529898917E+03  0.30532213238E+03  0.33535386898E+03  0.00000000000E+00 0.  1.
         22    1    3    3    0    0  0.21747078322E+02 -0.69612404292E+01  0.32327871111E+03  0.32408412386E+03  0.00000000000E+00 0.  1.
</event>
<event>
 7    1  0.7118985E-006  0.1326624E+03  0.7818608E-02  0.1332677E+00
          2   -1    0    0  502    0  0.00000000000E+00  0.00000000000E+00  0.38498974315E+03  0.38498974315E+03  0.00000000000E+00 0. -1.
          1   -1    0    0  501    0 -0.00000000000E+00 -0.00000000000E+00 -0.86614446779E+03  0.86614446779E+03  0.00000000000E+00 0. -1.
         25    2    1    2    0    0  0.83169078126E+02  0.12089609865E+03 -0.42783206396E+03  0.46925792050E+03  0.12501903364E+03 0.  0.
          2    1    1    2  501    0 -0.46297077688E+02  0.63479737526E+01 -0.40416369545E+03  0.40685625090E+03  0.00000000000E+00 0. -1.
          1    1    1    2  502    0 -0.36872000438E+02 -0.12724407241E+03  0.35084103477E+03  0.37502003954E+03  0.00000000000E+00 0. -1.
         22    1    3    3    0    0  0.30953511166E+00  0.10821914005E+03 -0.22060605232E+03  0.24572038663E+03  0.00000000000E+00 0. -1.
         22    1    3    3    0    0  0.82859543014E+02  0.12676958607E+02 -0.20722601164E+03  0.22353753387E+03  0.00000000000E+00 0. -1.
</event>
<event>
 7    1  0.7118985E-006  0.7209690E+02  0.7818608E-02  0.1370409E+00
          2   -1    0    0  502    0  0.00000000000E+00  0.00000000000E+00  0.12649437834E+04  0.12649437834E+04  0.00000000000E+00 0. -1.
          1   -1    0    0  501    0 -0.00000000000E+00 -0.00000000000E+00 -0.29127250434E+03  0.29127250434E+03  0.00000000000E+00 0. -1.
         25    2    1    2    0    0 -0.66101006927E+02 -0.20713378733E+02 -0.20666310485E+03  0.25126116474E+03  0.12499658726E+03 0.  0.
          2    1    1    2  501    0  0.40977273048E+02 -0.47011021366E+02 -0.45372108958E+02  0.77121989780E+02  0.00000000000E+00 0. -1.
          1    1    1    2  502    0  0.25123733878E+02  0.67724400099E+02  0.12257064929E+04  0.12278331332E+04  0.00000000000E+00 0. -1.
         22    1    3    3    0    0 -0.41746414041E+02 -0.72580956211E+02 -0.10224999780E+03  0.13215831544E+03  0.00000000000E+00 0.  1.
         22    1    3    3    0    0 -0.24354592885E+02  0.51867577479E+02 -0.10441310705E+03  0.11910284930E+03  0.00000000000E+00 0.  1.
</event>
<event>
 7    1  0.7118985E-006  0.1704131E+03  0.7818608E-02  0.1201430E+00
          2   -1    0    0  502    0  0.00000000000E+00  0.00000000000E+00  0.11189987741E+04  0.11189987741E+04  0.00000000000E+00 0. -1.
          1   -1    0    0  501    0 -0.00000000000E+00 -0.00000000000E+00 -0.38148196934E+04  0.38148196934E+04  0.00000000000E+00 0. -1.
         25    2    1    2    0    0 -0.30846422959E+02  0.27412755610E+03  0.28603904266E+03  0.41658203912E+03  0.12499937025E+03 0.  0.
          2    1    1    2  501    0  0.56305705744E+02 -0.11791636669E+03 -0.37402374789E+04  0.37425193387E+04  0.00000000000E+00 0. -1.
          1    1    1    2  502    0 -0.25459282786E+02 -0.15621118941E+03  0.75837751696E+03  0.77471708966E+03  0.00000000000E+00 0. -1.
         22    1    3    3    0    0 -0.27743266744E+02  0.24376128243E+02  0.95620980043E+02  0.10250490867E+03  0.00000000000E+00 0. -1.
         22    1    3    3    0    0 -0.31031562141E+01  0.24975142786E+03  0.19041806262E+03  0.31407713044E+03  0.00000000000E+00 0. -1.
</event>
<event>
 7    1  0.7118985E-006  0.1255962E+03  0.7818608E-02  0.1305255E+00
          2   -1    0    0  502    0  0.00000000000E+00  0.00000000000E+00  0.22911493020E+04  0.22911493020E+04  0.00000000000E+00 0. -1.
          1   -1    0    0  501    0 -0.00000000000E+00 -0.00000000000E+00 -0.96949575223E+02  0.96949575223E+02  0.00000000000E+00 0. -1.
         25    2    1    2    0    0 -0.13828017592E+03 -0.99447042233E+02  0.12082276344E+04  0.12265600137E+04  0.12499731767E+03 0.  0.
          2    1    1    2  501    0  0.75194725094E+02  0.98879520042E+02 -0.42379960384E+02  0.13125344646E+03  0.00000000000E+00 0. -1.
          1    1    1    2  502    0  0.63085450823E+02  0.56752219058E+00  0.10283520527E+04  0.10302854170E+04  0.00000000000E+00 0. -1.
         22    1    3    3    0    0 -0.30703990269E+02 -0.38828616221E+02  0.76072753549E+03  0.76233639537E+03  0.00000000000E+00 0.  1.
         22    1    3    3    0    0 -0.10757618565E+03 -0.60618426011E+02  0.44750009889E+03  0.46422361831E+03  0.00000000000E+00 0.  1.
</event>
<event>
 7    1  0.7118985E-006  0.3809693E+02  0.7818608E-02  0.1584131E+00
          2   -1    0    0  502    0  0.00000000000E+00  0.00000000000E+00  0.15835249076E+04  0.15835249076E+04  0.00000000000E+00 0. -1.
          1   -1    0    0  501    0 -0.00000000000E+00 -0.00000000000E+00 -0.32560375505E+02  0.32560375505E+02  0.00000000000E+00 0. -1.
         25    2    1    2    0    0  0.20149033453E+02  0.57713557979E+02  0.18392471669E+03  0.23062774186E+03  0.12499606227E+03 0.  0.
          2    1    1    2  501    0 -0.16069881119E+02 -0.20079750090E+02  0.95411717791E+01  0.27431212182E+02  0.00000000000E+00 0. -1.
          1    1    1    2  502    0 -0.40791523335E+01 -0.37633807889E+02  0.13574986436E+04  0.13580263291E+04  0.00000000000E+00 0. -1.
         22    1    3    3    0    0 -0.33482199642E+02  0.56811383770E+02  0.40226343703E+02  0.77244739280E+02  0.00000000000E+00 0. -1.
         22    1    3    3    0    0  0.53631233095E+02  0.90217420977E+00  0.14369837299E+03  0.15338300258E+03  0.00000000000E+00 0. -1.
</event>
<event>
 7    1  0.7118985E-006  0.1106104E+03  0.7818608E-02  0.1309425E+00
          2   -1    0    0  502    0  0.00000000000E+00  0.00000000000E+00  0.91516392265E+03  0.91516392265E+03  0.00000000000E+00 0. -1.
          1   -1    0    0  501    0 -0.00000000000E+00 -0.00000000000E+00 -0.39946753123E+02  0.39946753123E+02  0.00000000000E+00 0. -1.
         25    2    1    2    0    0 -0.72192851149E+01 -0.96158885254E+02  0.42428905990E+03  0.45270825316E+03  0.12499962738E+03 0.  0.
          2    1    1    2  501    0 -0.61238599648E+02  0.10450501001E+03  0.14566446946E+03  0.18944550896E+03  0.00000000000E+00 0. -1.
          1    1    1    2  502    0  0.68457884763E+02 -0.83461247581E+01  0.30526364018E+03  0.31295691365E+03  0.00000000000E+00 0. -1.
         22    1    3    3    0    0  0.46453267829E+02 -0.65064204451E+02  0.13544385250E+03  0.15727776058E+03  0.00000000000E+00 0.  1.
         22    1    3    3    0    0 -0.53672552944E+02 -0.31094680803E+02  0.28884520740E+03  0.29543049259E+03  0.00000000000E+00 0.  1.
</event>
<event>
 7    1  0.7118985E-006  0.6518280E+02  0.7818608E-02  0.1380142E+00
          2   -1    0    0  502    0  0.00000000000E+00  0.00000000000E+00  0.36328878650E+03  0.36328878650E+03  0.00000000000E+00 0. -1.
          1   -1    0    0  501    0 -0.00000000000E+00 -0.00000000000E+00 -0.15625424499E+04  0.15625424499E+04  0.00000000000E+00 0. -1.
         25    2    1    2    0    0 -0.34584522618E+02 -0.19591552262E+02 -0.37696613415E+03  0.39913533888E+03  0.12500253729E+03 0.  0.
          2    1    1    2  501    0  0.56922840068E+02 -0.40040847108E+02 -0.11705714099E+04  0.11726384374E+04  0.00000000000E+00 0. -1.
          1    1    1    2  502    0 -0.22338317450E+02  0.59632399370E+02  0.34828388070E+03  0.35405746008E+03  0.00000000000E+00 0. -1.
         22    1    3    3    0    0 -0.68338461696E+02 -0.48075767113E+02 -0.28695597788E+03  0.29887314696E+03  0.00000000000E+00 0. -1.
         22    1    3    3    0    0  0.33753939078E+02  0.28484214852E+02 -0.90010156263E+02  0.10026219192E+03  0.00000000000E+00 0. -1.
</event>
<event>
 7    1  0.7118985E-006  0.1871698E+03  0.7818608E-02  0.1275606E+00
          2   -1    0    0  502    0  0.00000000000E+00  0.00000000000E+00  0.21362100769E+04  0.21362100769E+04  0.00000000000E+00 0. -1.
          1   -1    0    0  501    0 -0.00000000000E+00 -0.00000000000E+00 -0.23292185497E+03  0.23292185497E+03  0.00000000000E+00 0. -1.
         25    2    1    2    0    0  0.17579566525E+03  0.10149255855E+03  0.41935352671E+03  0.48237469804E+03  0.12499245408E+03 0.  0.
          2    1    1    2  501    0 -0.18059418495E+03 -0.45824857624E+02 -0.15774540035E+03  0.24412658304E+03  0.00000000000E+00 0. -1.
          1    1    1    2  502    0  0.47985196969E+01 -0.55667700924E+02  0.16416800956E+04  0.16426306508E+04  0.00000000000E+00 0. -1.
         22    1    3    3    0    0  0.15430561843E+03  0.11800238830E+03  0.28236475844E+03  0.34273115460E+03  0.00000000000E+00 0.  1.
         22    1    3    3    0    0  0.21490046821E+02 -0.16509829751E+02  0.13698876827E+03  0.13964354344E+03  0.00000000000E+00 0.  1.
</event>
<event>
 7    1  0.7118985E-006  0.1462027E+03  0.7818608E-02  0.1355773E+00
          2   -1    0    0  502    0  0.00000000000E+00  0.00000000000E+00  0.13737319962E+04  0.13737319962E+04  0.00000000000E+00 0. -1.
          1   -1    0    0  501    0 -0.00000000000E+00 -0.00000000000E+00 -0.57729774147E+02  0.57729774147E+02  0.00000000000E+00 0. -1.
         25    2    1    2    0    0  0.39777916771E+02 -0.15837067720E+03  0.35884985716E+03  0.41359565738E+03  0.12499837503E+03 0.  0.
          2    1    1    2  501    0 -0.56326431929E+02  0.12780471497E+03  0.13261544569E+03  0.19259690688E+03  0.00000000000E+00 0. -1.
          1    1    1    2  502    0  0.16548515158E+02  0.30565962228E+02  0.82453691922E+03  0.82526920611E+03  0.00000000000E+00 0. -1.
         22    1    3    3    0    0  0.59529634814E+02 -0.25983853001E+02  0.71489327409E+02  0.96590175335E+02  0.00000000000E+00 0.  1.
         22    1    3    3    0    0 -0.19751718043E+02 -0.13238682420E+03  0.28736052975E+03  0.31700548204E+03  0.00000000000E+00 0.  1.
</event>
<event>
 7    1  0.7118985E-006  0.1031179E+03  0.7818608E-02  0.1388489E+00
          2   -1    0    0  502    0  0.00000000000E+00  0.00000000000E+00  0.59567846284E+03  0.59567846284E+03  0.00000000000E+00 0. -1.
          1   -1    0    0  501    0 -0.00000000000E+00 -0.00000000000E+00 -0.18932830326E+03  0.18932830326E+03  0.00000000000E+00 0. -1.
         25    2    1    2    0    0 -0.72513039572E+02 -0.95383197700E+02 -0.84218048300E+02  0.19254479102E+03  0.12499888631E+03 0.  0.
          2    1    1    2  501    0  0.37600713235E+02 -0.12103095645E+01 -0.38315863488E+02  0.53697149644E+02  0.00000000000E+00 0. -1.
          1    1    1    2  502    0  0.34912326338E+02  0.96593507265E+02  0.52888407137E+03  0.53876482543E+03  0.00000000000E+00 0. -1.
         22    1    3    3    0    0 -0.62334769715E+02  0.76935705642E+01 -0.66851450516E+01  0.63162534052E+02  0.00000000000E+00 0. -1.
         22    1    3    3    0    0 -0.10178269857E+02 -0.10307676826E+03 -0.77532903248E+02  0.12938225697E+03  0.00000000000E+00 0. -1.
</event>
<event>
 7    1  0.7118985E-006  0.1133222E+03  0.7818608E-02  0.1385227E+00
          2   -1    0    0  502    0  0.00000000000E+00  0.00000000000E+00  0.33958145866E+04  0.33958145866E+04  0.00000000000E+00 0. -1.
          1   -1    0    0  501    0 -0.00000000000E+00 -0.00000000000E+00 -0.10457038472E+03  0.10457038472E+03  0.00000000000E+00 0. -1.
         25    2    1    2    0    0 -0.11729643005E+03 -0.67097487704E+01  0.19322880735E+04  0.19398882017E+04  0.12500225152E+03 0.  0.
          2    1    1    2  501    0  0.10991565555E+03 -0.27652512736E+02 -0.68615702386E+02  0.13249236737E+03  0.00000000000E+00 0. -1.
          1    1    1    2  502    0  0.73807745012E+01  0.34362261506E+02  0.14275718307E+04  0.14280044022E+04  0.00000000000E+00 0. -1.
         22    1    3    3    0    0 -0.12517282314E+03 -0.11159587901E+02  0.10415214379E+04  0.10490756301E+04  0.00000000000E+00 0.  1.
         22    1    3    3    0    0  0.78763930882E+01  0.44498391308E+01  0.89076663558E+03  0.89081257159E+03  0.00000000000E+00 0.  1.
</event>
<event>
 7    1  0.7118985E-006  0.8589143E+02  0.7818608E-02  0.1394710E+00
          2   -1    0    0  502    0  0.00000000000E+00  0.00000000000E+00  0.69245505138E+02  0.69245505138E+02  0.00000000000E+00 0. -1.
          1   -1    0    0  501    0 -0.00000000000E+00 -0.00000000000E+00 -0.58948797191E+03  0.58948797191E+03  0.00000000000E+00 0. -1.
         25    2    1    2    0    0  0.10235061335E+03 -0.29438928984E+02 -0.20472326564E+03  0.26244645959E+03  0.12499692021E+03 0.  0.
          2    1    1    2  501    0 -0.36943957008E+02 -0.21940795089E+02 -0.30996372804E+03  0.31292773470E+03  0.00000000000E+00 0. -1.
          1    1    1    2  502    0 -0.65406656344E+02  0.51379724073E+02 -0.55554730906E+01  0.83359282753E+02  0.00000000000E+00 0. -1.
         22    1    3    3    0    0  0.22312876959E+02 -0.63296353693E+02 -0.13597919764E+03  0.15163982017E+03  0.00000000000E+00 0.  1.
         22    1    3    3    0    0  0.80037736392E+02  0.33857424710E+02 -0.68744068003E+02  0.11080663942E+03  0.00000000000E+00 0.  1.
</event>
<event>
 7    1  0.7118985E-006  0.1046738E+03  0.7818608E-02  0.1296230E+00
          2   -1    0    0  502    0  0.00000000000E+00  0.00000000000E+00  0.34167350488E+03  0.34167350488E+03  0.00000000000E+00 0. -1.
          1   -1    0    0  501    0 -0.00000000000E+00 -0.00000000000E+00 -0.83938598292E+03  0.83938598292E+03  0.00000000000E+00 0. -1.
         25    2    1    2    0    0  0.14092001267E+03 -0.75234036502E+02 -0.23579355985E+03  0.31103404726E+03  0.12499986187E+03 0.  0.
          2    1    1    2  501    0 -0.81700239920E+02 -0.95563421306E+01 -0.55405219664E+03  0.56012506593E+03  0.00000000000E+00 0. -1.
          1    1    1    2  502    0 -0.59219772746E+02  0.84790378633E+02  0.29213327846E+03  0.30990037460E+03  0.00000000000E+00 0. -1.
         22    1    3    3    0    0  0.12044813707E+02 -0.66172236785E+02 -0.46165586306E+02  0.81578819662E+02  0.00000000000E+00 0. -1.
         22    1    3    3    0    0  0.12887519896E+03 -0.90617997172E+01 -0.18962797355E+03  0.22945522760E+03  0.00000000000E+00 0. -1.
</event>
<event>
 7    1  0.7118985E-006  0.2750177E+03  0.7818608E-02  0.1193498E+00
          2   -1    0    0  502    0  0.00000000000E+00  0.00000000000E+00  0.28630921939E+04  0.28630921939E+04  0.00000000000E+00 0. -1.
          1   -1    0    0  501    0 -0.00000000000E+00 -0.00000000000E+00 -0.22824512402E+03  0.22824512402E+03  0.00000000000E+00 0. -1.
         25    2    1    2    0    0  0.26366583195E+03  0.10755911919E+03  0.92516882006E+03  0.97603877186E+03  0.12500281393E+03 0.  0.
          2    1    1    2  501    0 -0.53623142067E+02  0.70134880931E+02 -0.18275954692E+03  0.20296648708E+03  0.00000000000E+00 0. -1.
          1    1    1    2  502    0 -0.21004268989E+03 -0.17769400012E+03  0.18924377967E+04  0.19123320590E+04  0.00000000000E+00 0. -1.
         22    1    3    3    0    0  0.26821784718E+03  0.85981590407E+02  0.78193566833E+03  0.83111794400E+03  0.00000000000E+00 0.  1.
         22    1    3    3    0    0 -0.45520152241E+01  0.21577528782E+02  0.14323315173E+03  0.14492082786E+03  0.00000000000E+00 0.  1.
</event>
<event>
 7    1  0.7118985E-006  0.9662007E+02  0.7818608E-02  0.1404779E+00
          2   -1    0    0  502    0  0.00000000000E+00  0.00000000000E+00  0.72255693755E+03  0.72255693755E+03  0.00000000000E+00 0. -1.
          1   -1    0    0  501    0 -0.00000000000E+00 -0.00000000000E+00 -0.22197163452E+03  0.22197163452E+03  0.00000000000E+00 0. -1.
         25    2    1    2    0    0  0.47691536797E+02 -0.10620765538E+03  0.53871986653E+03  0.56515456237E+03  0.12500414406E+03 0.  0.
          2    1    1    2  501    0 -0.19670056154E+02  0.29274173790E+02 -0.19727652550E+03  0.20040438088E+03  0.00000000000E+00 0. -1.
          1    1    1    2  502    0 -0.28021480643E+02  0.76933481586E+02  0.15914196201E+03  0.17896962882E+03  0.00000000000E+00 0. -1.
         22    1    3    3    0    0  0.26828256008E+02 -0.78760045258E+02  0.12597448611E+03  0.15097175630E+03  0.00000000000E+00 0.  1.
         22    1    3    3    0    0  0.20863280789E+02 -0.27447610118E+02  0.41274538042E+03  0.41418280607E+03  0.00000000000E+00 0.  1.
</event>
<event>
 7    1  0.7118985E-006  0.5324320E+02  0.7818608E-02  0.1497356E+00
          2   -1    0    0  502    0  0.00000000000E+00  0.00000000000E+00  0.45599796763E+03  0.45599796763E+03  0.00000000000E+00 0. -1.
          1   -1    0    0  501    0 -0.00000000000E+00 -0.00000000000E+00 -0.41311839516E+03  0.41311839516E+03  0.00000000000E+00 0. -1.
         25    2    1    2    0    0  0.27704858831E+02  0.14094876155E+02 -0.24787515070E+03  0.27934562656E+03  0.12500265600E+03 0.  0.
          2    1    1    2  501    0 -0.59682551094E+02 -0.19111005295E+02 -0.14231044029E+03  0.15549758468E+03  0.00000000000E+00 0. -1.
          1    1    1    2  502    0  0.31977692263E+02  0.50161291400E+01  0.43306516346E+03  0.43427315155E+03  0.00000000000E+00 0. -1.
         22    1    3    3    0    0  0.69271093413E+02  0.34024485829E+02 -0.11324410558E+03  0.13704151731E+03  0.00000000000E+00 0.  1.
         22    1    3    3    0    0 -0.41566234581E+02 -0.19929609674E+02 -0.13463104512E+03  0.14230410925E+03  0.00000000000E+00 0.  1.
</event>
<event>
 7    1  0.7118985E-006  0.7180316E+02  0.7818608E-02  0.1480169E+00
          2   -1    0    0  502    0  0.00000000000E+00  0.00000000000E+00  0.14542686998E+04  0.14542686998E+04  0.00000000000E+00 0. -1.
          1   -1    0    0  501    0 -0.00000000000E+00 -0.00000000000E+00 -0.74481892184E+03  0.74481892184E+03  0.00000000000E+00 0. -1.
         25    2    1    2    0    0  0.57358170483E+02 -0.50162036831E+02  0.75335987190E+03  0.76745210735E+03  0.12500180326E+03 0.  0.
          2    1    1    2  501    0 -0.23675891529E+02 -0.13104415520E+02 -0.73567245857E+03  0.73616998026E+03  0.00000000000E+00 0. -1.
          1    1    1    2  502    0 -0.33682278954E+02  0.63266452351E+02  0.69176236459E+03  0.69546553400E+03  0.00000000000E+00 0. -1.
         22    1    3    3    0    0 -0.24614599999E+02  0.18444479092E+01  0.36586026800E+02  0.44134089751E+02  0.00000000000E+00 0.  1.
         22    1    3    3    0    0  0.81972770482E+02 -0.52006484740E+02  0.71677384510E+03  0.72331801760E+03  0.00000000000E+00 0.  1.
</event>
<event>
 7    1  0.7118985E-006  0.1047635E+03  0.7818608E-02  0.1369052E+00
          2   -1    0    0  502    0  0.00000000000E+00  0.00000000000E+00  0.61301451345E+03  0.61301451345E+03  0.00000000000E+00 0. -1.
          1   -1    0    0  501    0 -0.00000000000E+00 -0.00000000000E+00 -0.68813101798E+03  0.68813101798E+03  0.00000000000E+00 0. -1.
         25    2    1    2    0    0 -0.75629586524E+02 -0.75942217263E+01  0.44145058605E+03  0.46506026199E+03  0.12499968320E+03 0.  0.
          2    1    1    2  501    0  0.94014143991E+02  0.46910693258E+02 -0.66920177744E+03  0.67739965408E+03  0.00000000000E+00 0. -1.
          1    1    1    2  502    0 -0.18384557468E+02 -0.39316471532E+02  0.15263468687E+03  0.15868561536E+03  0.00000000000E+00 0. -1.
         22    1    3    3    0    0  0.28351110099E+01  0.18082300028E+02  0.30520161914E+03  0.30574995626E+03  0.00000000000E+00 0. -1.
         22    1    3    3    0    0 -0.78464697534E+02 -0.25676521755E+02  0.13624896691E+03  0.15931030573E+03  0.00000000000E+00 0. -1.
</event>
<event>
 7    1  0.7118985E-006  0.9835765E+02  0.7818608E-02  0.1461586E+00
          2   -1    0    0  502    0  0.00000000000E+00  0.00000000000E+00  0.13812903075E+04  0.13812903075E+04  0.00000000000E+00 0. -1.
          1   -1    0    0  501    0 -0.00000000000E+00 -0.00000000000E+00 -0.50910739482E+03  0.50910739482E+03  0.00000000000E+00 0. -1.
         25    2    1    2    0    0 -0.96823814341E+02 -0.75160283756E+00 -0.31560493599E+03  0.35299665215E+03  0.12499897951E+03 0.  0.
          2    1    1    2  501    0  0.97907050975E+02  0.23289284208E+02 -0.16021952051E+03  0.18920485232E+03  0.00000000000E+00 0. -1.
          1    1    1    2  502    0 -0.10832366332E+01 -0.22537681371E+02  0.13480073691E+04  0.13481961978E+04  0.00000000000E+00 0. -1.
         22    1    3    3    0    0 -0.11880477622E+03  0.10282582947E+02 -0.30243883754E+03  0.32509930301E+03  0.00000000000E+00 0. -1.
         22    1    3    3    0    0  0.21980961876E+02 -0.11034185784E+02 -0.13166098456E+02  0.27897349148E+02  0.00000000000E+00 0. -1.
</event>
<event>
 7    1  0.7118985E-006  0.1061348E+03  0.7818608E-02  0.1437225E+00
          2   -1    0    0  502    0  0.00000000000E+00  0.00000000000E+00  0.34979041952E+03  0.34979041952E+03  0.00000000000E+00 0. -1.
          1   -1    0    0  501    0 -0.00000000000E+00 -0.00000000000E+00 -0.83751404273E+02  0.83751404273E+02  0.00000000000E+00 0. -1.
         25    2    1    2    0    0 -0.18938782600E+02 -0.12124163212E+03  0.11269801688E+03  0.20829042077E+03  0.12500338208E+03 0.  0.
          2    1    1    2  501    0  0.83349949439E+01  0.98574065602E+02  0.36001661646E+02  0.10527315988E+03  0.00000000000E+00 0. -1.
          1    1    1    2  502    0  0.10603787656E+02  0.22667566514E+02  0.11733933673E+03  0.11997824314E+03  0.00000000000E+00 0. -1.
         22    1    3    3    0    0  0.11068341305E+00 -0.95917938454E+02  0.13777784852E+03  0.16787792801E+03  0.00000000000E+00 0. -1.
         22    1    3    3    0    0 -0.19049466013E+02 -0.25323693662E+02 -0.25079831646E+02  0.40412492765E+02  0.00000000000E+00 0. -1.
</event>
<event>
 7    1  0.7118985E-006  0.7900747E+02  0.7818608E-02  0.1331967E+00
          2   -1    0    0  502    0  0.00000000000E+00  0.00000000000E+00  0.20200727040E+04  0.20200727040E+04  0.00000000000E+00 0. -1.
          1   -1    0    0  501    0 -0.00000000000E+00 -0.00000000000E+00 -0.11977599915E+03  0.11977599915E+03  0.00000000000E+00 0. -1.
         25    2    1    2    0    0  0.16510360568E+02  0.86938324773E+02  0.57193175230E+03  0.59208015485E+03  0.12498846412E+03 0.  0.
          2    1    1    2  501    0 -0.73706589069E+02 -0.28306665058E+02 -0.94162942187E+02  0.12288445077E+03  0.00000000000E+00 0. -1.
          1    1    1    2  502    0  0.57196228501E+02 -0.58631659715E+02  0.14225278947E+04  0.14248840975E+04  0.00000000000E+00 0. -1.
         22    1    3    3    0    0 -0.11002963073E+02 -0.25473657563E+02  0.21676478322E+03  0.21853362138E+03  0.00000000000E+00 0. -1.
         22    1    3    3    0    0  0.27513323641E+02  0.11241198234E+03  0.35516696907E+03  0.37354653348E+03  0.00000000000E+00 0. -1.
</event>
<event>
 7    1  0.7118985E-006  0.1004359E+03  0.7818608E-02  0.1315564E+00
          2   -1    0    0  502    0  0.00000000000E+00  0.00000000000E+00  0.22551342098E+04  0.22551342098E+04  0.00000000000E+00 0. -1.
          1   -1    0    0  501    0 -0.00000000000E+00 -0.00000000000E+00 -0.24451989518E+03  0.24451989518E+03  0.00000000000E+00 0. -1.
         25    2    1    2    0    0  0.52496916721E+02 -0.12742308409E+03  0.36749618115E+03  0.41191255897E+03  0.12500377776E+03 0.  0.
          2    1    1    2  501    0 -0.65706015604E+02  0.29074321335E+02 -0.21514753677E+03  0.22682825932E+03  0.00000000000E+00 0. -1.
          1    1    1    2  502    0  0.13209098883E+02  0.98348762758E+02  0.18582656702E+04  0.18609132867E+04  0.00000000000E+00 0. -1.
         22    1    3    3    0    0  0.62771039713E+02 -0.21021140619E+02  0.72646098334E+02  0.98282996407E+02  0.00000000000E+00 0. -1.
         22    1    3    3    0    0 -0.10274122992E+02 -0.10640194347E+03  0.29485008282E+03  0.31362956256E+03  0.00000000000E+00 0. -1.
</event>
<event>
 7    1  0.7118985E-006  0.1007572E+03  0.7818608E-02  0.1362241E+00
          2   -1    0    0  502    0  0.00000000000E+00  0.00000000000E+00  0.12045751920E+04  0.12045751920E+04  0.00000000000E+00 0. -1.
          1   -1    0    0  501    0 -0.00000000000E+00 -0.00000000000E+00 -0.20420664305E+03  0.20420664305E+03  0.00000000000E+00 0. -1.
         25    2    1    2    0    0  0.12995972851E+03 -0.73513454849E+01  0.23451336058E+03  0.29591503341E+03  0.12500246956E+03 0.  0.
          2    1    1    2  501    0 -0.38069112528E+02 -0.28846141302E+02 -0.16756334192E+03  0.17423785683E+03  0.00000000000E+00 0. -1.
          1    1    1    2  502    0 -0.91890615978E+02  0.36197486787E+02  0.93341853029E+03  0.93862894482E+03  0.00000000000E+00 0. -1.
         22    1    3    3    0    0  0.13707292712E+03 -0.41639112565E+02  0.20513225569E+03  0.25020400750E+03  0.00000000000E+00 0. -1.
         22    1    3    3    0    0 -0.71131986101E+01  0.34287767080E+02  0.29381104883E+02  0.45711025913E+02  0.00000000000E+00 0. -1.
</event>
<event>
 7    1  0.7118985E-006  0.5010945E+02  0.7818608E-02  0.1482093E+00
          2   -1    0    0  502    0  0.00000000000E+00  0.00000000000E+00  0.33262323362E+03  0.33262323362E+03  0.00000000000E+00 0. -1.
          1   -1    0    0  501    0 -0.00000000000E+00 -0.00000000000E+00 -0.17225498696E+03  0.17225498696E+03  0.00000000000E+00 0. -1.
         25    2    1    2    0    0  0.39746776277E+02  0.56211652417E+02  0.96221626249E+02  0.17211310738E+03  0.12499905713E+03 0.  0.
          2    1    1    2  501    0  0.60665746572E+01 -0.37769161226E+02 -0.12840452983E+03  0.13398147689E+03  0.00000000000E+00 0. -1.
          1    1    1    2  502    0 -0.45813350935E+02 -0.18442491191E+02  0.19255115024E+03  0.19878363631E+03  0.00000000000E+00 0. -1.
         22    1    3    3    0    0  0.15567623932E+01  0.19142787897E+02 -0.29721061146E+02  0.35386597933E+02  0.00000000000E+00 0.  1.
         22    1    3    3    0    0  0.38190013884E+02  0.37068864520E+02  0.12594268740E+03  0.13672650945E+03  0.00000000000E+00 0.  1.
</event>
<event>
 7    1  0.7118985E-006  0.5919163E+02  0.7818608E-02  0.1462770E+00
          2   -1    0    0  502    0  0.00000000000E+00  0.00000000000E+00  0.44255457276E+04  0.44255457276E+04  0.00000000000E+00 0. -1.
          1   -1    0    0  501    0 -0.00000000000E+00 -0.00000000000E+00 -0.49530099011E+02  0.49530099011E+02  0.00000000000E+00 0. -1.
         25    2    1    2    0    0 -0.26183249503E+02 -0.57175430694E+01  0.19284502156E+03  0.23136733806E+03  0.12499355953E+03 0.  0.
          2    1    1    2  501    0 -0.20968582074E+02 -0.30695034253E+02 -0.18564359473E+02  0.41551197391E+02  0.00000000000E+00 0. -1.
          1    1    1    2  502    0  0.47151831577E+02  0.36412577322E+02  0.42017349665E+04  0.42021572912E+04  0.00000000000E+00 0. -1.
         22    1    3    3    0    0  0.42399188696E+02  0.13608942284E+02  0.12611583877E+03  0.13374639920E+03  0.00000000000E+00 0.  1.
         22    1    3    3    0    0 -0.68582438199E+02 -0.19326485353E+02  0.66729182800E+02  0.97620938853E+02  0.00000000000E+00 0.  1.
</event>
<event>
 7    1  0.7118985E-006  0.1141380E+03  0.7818608E-02  0.1330189E+00
          2   -1    0    0  502    0  0.00000000000E+00  0.00000000000E+00  0.22138622326E+04  0.22138622326E+04  0.00000000000E+00 0. -1.
          1   -1    0    0  501    0 -0.00000000000E+00 -0.00000000000E+00 -0.27132863075E+03  0.27132863075E+03  0.00000000000E+00 0. -1.
         25    2    1    2    0    0  0.12132609155E+02 -0.13922685111E+03  0.97419438614E+03  0.99207324626E+03  0.12499323049E+03 0.  0.
          2    1    1    2  501    0  0.34224591159E+02  0.10868533158E+03 -0.24935616800E+03  0.27415747749E+03  0.00000000000E+00 0. -1.
          1    1    1    2  502    0 -0.46357200314E+02  0.30541519534E+02  0.12176953837E+04  0.12189601396E+04  0.00000000000E+00 0. -1.
         22    1    3    3    0    0 -0.50617039782E+02 -0.38480082751E+02  0.45904089298E+03  0.46342350276E+03  0.00000000000E+00 0.  1.
         22    1    3    3    0    0  0.62749648937E+02 -0.10074676836E+03  0.51515349317E+03  0.52864974350E+03  0.00000000000E+00 0.  1.
</event>
<event>
 7    1  0.7118985E-006  0.5994806E+02  0.7818608E-02  0.1542857E+00
          2   -1    0    0  502    0  0.00000000000E+00  0.00000000000E+00  0.93611004565E+03  0.93611004565E+03  0.00000000000E+00 0. -1.
          1   -1    0    0  501    0 -0.00000000000E+00 -0.00000000000E+00 -0.22314897432E+02  0.22314897432E+02  0.00000000000E+00 0. -1.
         25    2    1    2    0    0  0.24137845250E+02  0.33610333191E+02  0.56953969366E+03  0.58456136569E+03  0.12499695009E+03 0.  0.
          2    1    1    2  501    0 -0.40504588979E+02 -0.47095648810E+02  0.52481375027E+02  0.81319841305E+02  0.00000000000E+00 0. -1.
          1    1    1    2  502    0  0.16366743729E+02  0.13485315619E+02  0.29177407953E+03  0.29254373609E+03  0.00000000000E+00 0. -1.
         22    1    3    3    0    0  0.37275661080E+01 -0.59933284501E+01  0.51073876869E+03  0.51078753369E+03  0.00000000000E+00 0. -1.
         22    1    3    3    0    0  0.20410279142E+02  0.39603661641E+02  0.58800924974E+02  0.73773832000E+02  0.00000000000E+00 0. -1.
</event>
<event>
 7    1  0.7118985E-006  0.1658781E+03  0.7818608E-02  0.1286896E+00
          2   -1    0    0  502    0  0.00000000000E+00  0.00000000000E+00  0.21961255103E+03  0.21961255103E+03  0.00000000000E+00 0. -1.
          1   -1    0    0  501    0 -0.00000000000E+00 -0.00000000000E+00 -0.67433119938E+03  0.67433119938E+03  0.00000000000E+00 0. -1.
         25    2    1    2    0    0 -0.11560103524E+03  0.77201714798E+02 -0.53151548040E+02  0.19435669923E+03  0.12500294140E+03 0.  0.
          2    1    1    2  501    0 -0.36396566093E+01  0.56518865935E+02 -0.49451550937E+03  0.49774814747E+03  0.00000000000E+00 0. -1.
          1    1    1    2  502    0  0.11924069185E+03 -0.13372058073E+03  0.92948409053E+02  0.20183890371E+03  0.00000000000E+00 0. -1.
         22    1    3    3    0    0 -0.54772694647E+02  0.60257873373E+02 -0.89900140797E+02  0.12129754613E+03  0.00000000000E+00 0. -1.
         22    1    3    3    0    0 -0.60828340592E+02  0.16943841425E+02  0.36748592757E+02  0.73059153096E+02  0.00000000000E+00 0. -1.
</event>
<event>
 7    1  0.7118985E-006  0.9232248E+02  0.7818608E-02  0.1389447E+00
          2   -1    0    0  502    0  0.00000000000E+00  0.00000000000E+00  0.46002062356E+03  0.46002062356E+03  0.00000000000E+00 0. -1.
          1   -1    0    0  501    0 -0.00000000000E+00 -0.00000000000E+00 -0.14722516663E+04  0.14722516663E+04  0.00000000000E+00 0. -1.
         25    2    1    2    0    0 -0.37407788106E+02 -0.77926457688E+02 -0.19179638051E+03  0.24471023195E+03  0.12500148250E+03 0.  0.
          2    1    1    2  501    0  0.73623752235E+02  0.57262665426E+02 -0.12512560922E+04  0.12547275713E+04  0.00000000000E+00 0. -1.
          1    1    1    2  502    0 -0.36215964129E+02  0.20663792261E+02  0.43082142995E+03  0.43283448669E+03  0.00000000000E+00 0. -1.
         22    1    3    3    0    0 -0.37400781030E+02 -0.10902567391E+03 -0.17448281612E+03  0.20911640088E+03  0.00000000000E+00 0.  1.
         22    1    3    3    0    0 -0.70070751177E-02  0.31099216222E+02 -0.17313564382E+02  0.35593831071E+02  0.00000000000E+00 0.  1.
</event>
<event>
 7    1  0.7118985E-006  0.4922003E+02  0.7818608E-02  0.1565611E+00
          2   -1    0    0  502    0  0.00000000000E+00  0.00000000000E+00  0.17071383407E+04  0.17071383407E+04  0.00000000000E+00 0. -1.
          1   -1    0    0  501    0 -0.00000000000E+00 -0.00000000000E+00 -0.29520320219E+02  0.29520320219E+02  0.00000000000E+00 0. -1.
         25    2    1    2    0    0  0.10671903570E+02 -0.68565725210E+02  0.67744449429E+03  0.69236591747E+03  0.12499749047E+03 0.  0.
          2    1    1    2  501    0 -0.97543064670E+00  0.48445205195E+02  0.48261171351E+01  0.48694771567E+02  0.00000000000E+00 0. -1.
          1    1    1    2  502    0 -0.96964729234E+01  0.20120520015E+02  0.99534740907E+03  0.99559797190E+03  0.00000000000E+00 0. -1.
         22    1    3    3    0    0 -0.37731855070E+02 -0.34774548898E+01  0.43635245615E+03  0.43799457938E+03  0.00000000000E+00 0. -1.
         22    1    3    3    0    0  0.48403758640E+02 -0.65088270320E+02  0.24109203815E+03  0.25437133809E+03  0.00000000000E+00 0. -1.
</event>
<event>
 7    1  0.7118985E-006  0.6119011E+02  0.7818608E-02  0.1456699E+00
          2   -1    0    0  502    0  0.00000000000E+00  0.00000000000E+00  0.36380928922E+03  0.36380928922E+03  0.00000000000E+00 0. -1.
          1   -1    0    0  501    0 -0.00000000000E+00 -0.00000000000E+00 -0.34789427582E+04  0.34789427582E+04  0.00000000000E+00 0. -1.
         25    2    1    2    0    0 -0.76816620037E+02  0.52916159871E+02 -0.23098323383E+02  0.15766412008E+03  0.12499411637E+03 0.  0.
          2    1    1    2  501    0  0.39821669318E+02 -0.46302704862E+02 -0.33870944069E+04  0.33876449382E+04  0.00000000000E+00 0. -1.
          1    1    1    2  502    0  0.36994950719E+02 -0.66134550089E+01  0.29505926127E+03  0.29744298921E+03  0.00000000000E+00 0. -1.
         22    1    3    3    0    0 -0.77630297901E+02  0.74778139546E+02  0.19723470078E+02  0.10957759159E+03  0.00000000000E+00 0. -1.
         22    1    3    3    0    0  0.81367786401E+00 -0.21861979675E+02 -0.42821793461E+02  0.48086528490E+02  0.00000000000E+00 0. -1.
</event>
<event>
 7    1  0.7118985E-006  0.9456713E+02  0.7818608E-02  0.1411313E+00
          2   -1    0    0  502    0  0.00000000000E+00  0.00000000000E+00  0.18944389225E+04  0.18944389225E+04  0.00000000000E+00 0. -1.
          1   -1    0    0  501    0 -0.00000000000E+00 -0.00000000000E+00 -0.28647860691E+02  0.28647860691E+02  0.00000000000E+00 0. -1.
         25    2    1    2    0    0  0.11904745353E+03 -0.30220578902E+02  0.58749777364E+03  0.61307662277E+03  0.12499492700E+03 0.  0.
          2    1    1    2  501    0 -0.86331946553E+02  0.20122737402E+02  0.11026280133E+03  0.14147796618E+03  0.00000000000E+00 0. -1.
          1    1    1    2  502    0 -0.32715506978E+02  0.10097841500E+02  0.11680304868E+04  0.11685321942E+04  0.00000000000E+00 0. -1.
         22    1    3    3    0    0  0.12678459400E+03 -0.26315892632E+02  0.31681541048E+03  0.34225555335E+03  0.00000000000E+00 0. -1.
         22    1    3    3    0    0 -0.77371404663E+01 -0.39046862696E+01  0.27068236316E+03  0.27082106942E+03  0.00000000000E+00 0. -1.
</event>
<event>
 7    1  0.7118985E-006  0.9172946E+02  0.7818608E-02  0.1375440E+00
          2   -1    0    0  502    0  0.00000000000E+00  0.00000000000E+00  0.39377272566E+03  0.39377272566E+03  0.00000000000E+00 0. -1.
          1   -1    0    0  501    0 -0.00000000000E+00 -0.00000000000E+00 -0.35654025648E+03  0.35654025648E+03  0.00000000000E+00 0. -1.
         25    2    1    2    0    0  0.92428221044E+02 -0.76701079394E+02 -0.56916149158E+02  0.18245709855E+03  0.12500045260E+03 0.  0.
          2    1    1    2  501    0 -0.83295831363E+02  0.30571611988E+02 -0.22676977718E+03  0.24351047375E+03  0.00000000000E+00 0. -1.
          1    1    1    2  502    0 -0.91323896803E+01  0.46129467407E+02  0.32091839552E+03  0.32434540984E+03  0.00000000000E+00 0. -1.
         22    1    3    3    0    0  0.89458320197E+02 -0.55912671819E+02  0.15888957326E+02  0.10668400483E+03  0.00000000000E+00 0.  1.
         22    1    3    3    0    0  0.29699008466E+01 -0.20788407575E+02 -0.72805106484E+02  0.75773093712E+02  0.00000000000E+00 0.  1.
</event>
<event>
 7    1  0.7118985E-006  0.1399798E+03  0.7818608E-02  0.1248487E+00
          2   -1    0    0  502    0  0.00000000000E+00  0.00000000000E+00  0.10853057892E+03  0.10853057892E+03  0.00000000000E+00 0. -1.
          1   -1    0    0  501    0 -0.00000000000E+00 -0.00000000000E+00 -0.18968211334E+04  0.18968211334E+04  0.00000000000E+00 0. -1.
         25    2    1    2    0    0  0.18370493921E+03  0.55765480624E+02 -0.11889068633E+04  0.12107774959E+04  0.12500128558E+03 0.  0.
          2    1    1    2  501    0 -0.89223014916E+02 -0.79604444241E+02 -0.66592757553E+03  0.67657752681E+03  0.00000000000E+00 0. -1.
          1    1    1    2  502    0 -0.94481924292E+02  0.23838963617E+02  0.66543884391E+02  0.11799668959E+03  0.00000000000E+00 0. -1.
         22    1    3    3    0    0  0.14089317196E+03 -0.11571766335E+02 -0.59661404263E+03  0.61313384147E+03  0.00000000000E+00 0.  1.
         22    1    3    3    0    0  0.42811767243E+02  0.67337246959E+02 -0.59229282068E+03  0.59764365442E+03  0.00000000000E+00 0.  1.
</event>
<event>
 7    1  0.7118985E-006  0.8991432E+02  0.7818608E-02  0.1413343E+00
          2   -1    0    0  502    0  0.00000000000E+00  0.00000000000E+00  0.54785466104E+03  0.54785466104E+03  0.00000000000E+00 0. -1.
          1   -1    0    0  501    0 -0.00000000000E+00 -0.00000000000E+00 -0.18577028050E+04  0.18577028050E+04  0.00000000000E+00 0. -1.
         25    2    1    2    0    0 -0.69368977812E+02 -0.42103648071E+02  0.35234824747E+02  0.15313787336E+03  0.12499977248E+03 0.  0.
          2    1    1    2  501    0  0.52453801408E+02  0.73253218664E+02 -0.17969285476E+04  0.17991858272E+04  0.00000000000E+00 0. -1.
          1    1    1    2  502    0  0.16915176404E+02 -0.31149570593E+02  0.45184557896E+03  0.45323376548E+03  0.00000000000E+00 0. -1.
         22    1    3    3    0    0 -0.72572853761E+02 -0.35986360575E+02 -0.30859212495E+02  0.86684071468E+02  0.00000000000E+00 0.  1.
         22    1    3    3    0    0  0.32038759494E+01 -0.61172874954E+01  0.66094037242E+02  0.66453801896E+02  0.00000000000E+00 0.  1.
</event>
<event>
 7    1  0.7118985E-006  0.2525515E+03  0.7818608E-02  0.1267207E+00
          2   -1    0    0  502    0  0.00000000000E+00  0.00000000000E+00  0.90065571390E+03  0.90065571390E+03  0.00000000000E+00 0. -1.
          1   -1    0    0  501    0 -0.00000000000E+00 -0.00000000000E+00 -0.65409117882E+03  0.65409117882E+03  0.00000000000E+00 0. -1.
         25    2    1    2    0    0  0.21638171254E+03  0.51513602332E+02  0.68192568702E+02  0.26413067987E+03  0.12506035692E+03 0.  0.
          2    1    1    2  501    0  0.41268224023E+02 -0.17700856154E+02 -0.53216279877E+03  0.53405395890E+03  0.00000000000E+00 0. -1.
          1    1    1    2  502    0 -0.25764993656E+03 -0.33812746177E+02  0.71053476515E+03  0.75656225395E+03  0.00000000000E+00 0. -1.
         22    1    3    3    0    0  0.11389712547E+03 -0.36302971538E+02  0.41594277880E+02  0.12657229115E+03  0.00000000000E+00 0. -1.
         22    1    3    3    0    0  0.10248458707E+03  0.87816573870E+02  0.26598290822E+02  0.13755838872E+03  0.00000000000E+00 0. -1.
</event>
<event>
 7    1  0.7118985E-006  0.3631183E+02  0.7818608E-02  0.1632219E+00
          2   -1    0    0  502    0  0.00000000000E+00  0.00000000000E+00  0.12639461824E+03  0.12639461824E+03  0.00000000000E+00 0. -1.
          1   -1    0    0  501    0 -0.00000000000E+00 -0.00000000000E+00 -0.13212627887E+03  0.13212627887E+03  0.00000000000E+00 0. -1.
         25    2    1    2    0    0  0.37634598522E+01 -0.18046712826E+02  0.13458803690E+01  0.12635791818E+03  0.12499865847E+03 0.  0.
          2    1    1    2  501    0 -0.15734342849E+02  0.34396675510E+02 -0.62554466495E+02  0.73101040413E+02  0.00000000000E+00 0. -1.
          1    1    1    2  502    0  0.11970882997E+02 -0.16349962684E+02  0.55476925497E+02  0.59061938523E+02  0.00000000000E+00 0. -1.
         22    1    3    3    0    0 -0.16383401104E+02  0.34987244967E+02  0.41617976442E+02  0.56785377565E+02  0.00000000000E+00 0. -1.
         22    1    3    3    0    0  0.20146860957E+02 -0.53033957792E+02 -0.40272096073E+02  0.69572540615E+02  0.00000000000E+00 0. -1.
</event>
<event>
 7    1  0.7118985E-006  0.2030199E+03  0.7818608E-02  0.1370741E+00
          2   -1    0    0  502    0  0.00000000000E+00  0.00000000000E+00  0.72100163221E+03  0.72100163221E+03  0.00000000000E+00 0. -1.
          1   -1    0    0  501    0 -0.00000000000E+00 -0.00000000000E+00 -0.60928004437E+03  0.60928004437E+03  0.00000000000E+00 0. -1.
         25    2    1    2    0    0  0.18852490116E+02 -0.21888958087E+03 -0.40736297403E+03  0.47941072611E+03  0.12498794621E+03 0.  0.
          2    1    1    2  501    0 -0.14726080364E+02  0.16459878259E+02 -0.15010537258E+03  0.15172148138E+03  0.00000000000E+00 0. -1.
          1    1    1    2  502    0 -0.41264097519E+01  0.20242970261E+03  0.66918993445E+03  0.69914946909E+03  0.00000000000E+00 0. -1.
         22    1    3    3    0    0  0.47072047351E+02 -0.34087495414E+02 -0.52511178958E+02  0.78327255161E+02  0.00000000000E+00 0.  1.
         22    1    3    3    0    0 -0.28219557235E+02 -0.18480208546E+03 -0.35485179507E+03  0.40108347095E+03  0.00000000000E+00 0.  1.
</event>
<event>
 7    1  0.7118985E-006  0.3183463E+02  0.7818608E-02  0.1583029E+00
          2   -1    0    0  502    0  0.00000000000E+00  0.00000000000E+00  0.19223757277E+03  0.19223757277E+03  0.00000000000E+00 0. -1.
          1   -1    0    0  501    0 -0.00000000000E+00 -0.00000000000E+00 -0.12766770080E+04  0.12766770080E+04  0.00000000000E+00 0. -1.
         25    2    1    2    0    0 -0.59462455090E+02 -0.18869068662E+02 -0.38072986011E+03  0.40555589511E+03  0.12501412864E+03 0.  0.
          2    1    1    2  501    0  0.30346845893E+02  0.62645218478E+01 -0.88186048168E+03  0.88240471692E+03  0.00000000000E+00 0. -1.
          1    1    1    2  502    0  0.29115609196E+02  0.12604546814E+02  0.17815090656E+03  0.18095396875E+03  0.00000000000E+00 0. -1.
         22    1    3    3    0    0 -0.17070339771E+02 -0.70578777112E+02 -0.18641102080E+03  0.20005456495E+03  0.00000000000E+00 0.  1.
         22    1    3    3    0    0 -0.42392115319E+02  0.51709708450E+02 -0.19431883931E+03  0.20550133016E+03  0.00000000000E+00 0.  1.
</event>
<event>
 7    1  0.7118985E-006  0.2406404E+03  0.7818608E-02  0.1272040E+00
          2   -1    0    0  502    0  0.00000000000E+00  0.00000000000E+00  0.21303570692E+04  0.21303570692E+04  0.00000000000E+00 0. -1.
          1   -1    0    0  501    0 -0.00000000000E+00 -0.00000000000E+00 -0.24674341932E+04  0.24674341932E+04  0.00000000000E+00 0. -1.
         25    2    1    2    0    0 -0.15541788454E+02 -0.28327455143E+03 -0.19383278522E+02  0.31062318106E+03  0.12500012180E+03 0.  0.
          2    1    1    2  501    0  0.10579876297E+02  0.23857526375E+03 -0.22959823255E+04  0.23083684561E+04  0.00000000000E+00 0. -1.
          1    1    1    2  502    0  0.49619121572E+01  0.44699287683E+02  0.19782884799E+04  0.19787996252E+04  0.00000000000E+00 0. -1.
         22    1    3    3    0    0 -0.40926264174E+02 -0.26045344958E+03 -0.45624286629E+02  0.26756781202E+03  0.00000000000E+00 0.  1.
         22    1    3    3    0    0  0.25384475721E+02 -0.22821101854E+02  0.26241008107E+02  0.43055369048E+02  0.00000000000E+00 0.  1.
</event>
<event>
 7    1  0.7118985E-006  0.4875364E+02  0.7818608E-02  0.1460319E+00
          2   -1    0    0  502    0  0.00000000000E+00  0.00000000000E+00  0.16396005858E+04  0.16396005858E+04  0.00000000000E+00 0. -1.
          1   -1    0    0  501    0 -0.00000000000E+00 -0.00000000000E+00 -0.96380118045E+02  0.96380118045E+02  0.00000000000E+00 0. -1.
         25    2    1    2    0    0 -0.42250852082E+02  0.63287932868E+02  0.25090503250E+03  0.29046236633E+03  0.12499821587E+03 0.  0.
          2    1    1    2  501    0 -0.29524424899E+01 -0.45846260399E+02 -0.69243339877E+02  0.83097753439E+02  0.00000000000E+00 0. -1.
          1    1    1    2  502    0  0.45203294572E+02 -0.17441672469E+02  0.13615587751E+04  0.13624205841E+04  0.00000000000E+00 0. -1.
         22    1    3    3    0    0  0.37151837725E+02  0.20512621486E+02  0.14636347354E+03  0.15239190619E+03  0.00000000000E+00 0.  1.
         22    1    3    3    0    0 -0.79402689807E+02  0.42775311382E+02  0.10454155896E+03  0.13807046014E+03  0.00000000000E+00 0.  1.
</event>
<event>
 7    1  0.7118985E-006  0.1589591E+03  0.7818608E-02  0.1232829E+00
          2   -1    0    0  502    0  0.00000000000E+00  0.00000000000E+00  0.18030538625E+04  0.18030538625E+04  0.00000000000E+00 0. -1.
          1   -1    0    0  501    0 -0.00000000000E+00 -0.00000000000E+00 -0.76340085379E+03  0.76340085379E+03  0.00000000000E+00 0. -1.
         25    2    1    2    0    0 -0.23315380660E+03 -0.30142219284E+02  0.91608686792E+03  0.95399599677E+03  0.12499584541E+03 0.  0.
          2    1    1    2  501    0  0.95726460445E+02  0.30867647368E+02 -0.73556270256E+03  0.74240747321E+03  0.00000000000E+00 0. -1.
          1    1    1    2  502    0  0.13742734615E+03 -0.72542808395E+00  0.85912884333E+03  0.87005124628E+03  0.00000000000E+00 0. -1.
         22    1    3    3    0    0 -0.12596007495E+03  0.38582867684E+02  0.57548826091E+03  0.59037387866E+03  0.00000000000E+00 0. -1.
         22    1    3    3    0    0 -0.10719373165E+03 -0.68725086967E+02  0.34059860701E+03  0.36362211811E+03  0.00000000000E+00 0. -1.
</event>
<event>
 7    1  0.7118985E-006  0.1120191E+03  0.7818608E-02  0.1358667E+00
          2   -1    0    0  502    0  0.00000000000E+00  0.00000000000E+00  0.11626533521E+04  0.11626533521E+04  0.00000000000E+00 0. -1.
          1   -1    0    0  501    0 -0.00000000000E+00 -0.00000000000E+00 -0.44710586971E+02  0.44710586971E+02  0.00000000000E+00 0. -1.
         25    2    1    2    0    0 -0.77092793273E+02  0.53443870304E+02  0.23340708404E+03  0.28088908154E+03  0.12498105136E+03 0.  0.
          2    1    1    2  501    0  0.12023286645E+03 -0.43503200906E+02  0.18132535744E+03  0.22187238655E+03  0.00000000000E+00 0. -1.
          1    1    1    2  502    0 -0.43140073182E+02 -0.99406693981E+01  0.70321032367E+03  0.70460247100E+03  0.00000000000E+00 0. -1.
         22    1    3    3    0    0 -0.88315408407E+02  0.56396610107E+02  0.24376584458E+03  0.26533370682E+03  0.00000000000E+00 0. -1.
         22    1    3    3    0    0  0.11222615134E+02 -0.29527398034E+01 -0.10358760534E+02  0.15555374717E+02  0.00000000000E+00 0. -1.
</event>
<event>
 7    1  0.7118985E-006  0.8264446E+02  0.7818608E-02  0.1383837E+00
          2   -1    0    0  502    0  0.00000000000E+00  0.00000000000E+00  0.50527558677E+03  0.50527558677E+03  0.00000000000E+00 0. -1.
          1   -1    0    0  501    0 -0.00000000000E+00 -0.00000000000E+00 -0.17304215980E+03  0.17304215980E+03  0.00000000000E+00 0. -1.
         25    2    1    2    0    0  0.44765807114E+02  0.82406331519E+02  0.31267931599E+03  0.34956540320E+03  0.12503133810E+03 0.  0.
          2    1    1    2  501    0  0.39715514062E+01 -0.82617778217E+02 -0.13962139124E+03  0.16228248023E+03  0.00000000000E+00 0. -1.
          1    1    1    2  502    0 -0.48737358520E+02  0.21144669768E+00  0.15917550222E+03  0.16646986314E+03  0.00000000000E+00 0. -1.
         22    1    3    3    0    0 -0.16483145212E+02 -0.21612194488E+02  0.11310237649E+03  0.11632251972E+03  0.00000000000E+00 0. -1.
         22    1    3    3    0    0  0.61248952326E+02  0.10401852601E+03  0.19957693950E+03  0.23324288348E+03  0.00000000000E+00 0. -1.
</event>
<event>
 7    1  0.7118985E-006  0.7074885E+02  0.7818608E-02  0.1461485E+00
          2   -1    0    0  502    0  0.00000000000E+00  0.00000000000E+00  0.89394869448E+03  0.89394869448E+03  0.00000000000E+00 0. -1.
          1   -1    0    0  501    0 -0.00000000000E+00 -0.00000000000E+00 -0.79803958986E+03  0.79803958986E+03  0.00000000000E+00 0. -1.
         25    2    1    2    0    0 -0.65577117685E+01 -0.40821129577E+02 -0.28508055178E+03  0.31401528498E+03  0.12500123995E+03 0.  0.
          2    1    1    2  501    0  0.91659272192E+01 -0.30023813642E+02 -0.49656660339E+03  0.49755787121E+03  0.00000000000E+00 0. -1.
          1    1    1    2  502    0 -0.26082154507E+01  0.70844943219E+02  0.87755625979E+03  0.88041512815E+03  0.00000000000E+00 0. -1.
         22    1    3    3    0    0 -0.50560400703E+02  0.14895652414E+01 -0.21592907958E+03  0.22177452589E+03  0.00000000000E+00 0. -1.
         22    1    3    3    0    0  0.44002688935E+02 -0.42310694819E+02 -0.69151472204E+02  0.92240759090E+02  0.00000000000E+00 0. -1.
</event>
<event>
 7    1  0.7118985E-006  0.3711257E+02  0.7818608E-02  0.1603115E+00
          2   -1    0    0  502    0  0.00000000000E+00  0.00000000000E+00  0.66128175119E+03  0.66128175119E+03  0.00000000000E+00 0. -1.
          1   -1    0    0  501    0 -0.00000000000E+00 -0.00000000000E+00 -0.37350973576E+03  0.37350973576E+03  0.00000000000E+00 0. -1.
         25    2    1    2    0    0  0.47506217288E+02 -0.13424847473E+02 -0.20984959042E+03  0.24920246661E+03  0.12501180567E+03 0.  0.
          2    1    1    2  501    0 -0.35567762474E+02 -0.68500944332E+01 -0.14148578108E+03  0.14604867602E+03  0.00000000000E+00 0. -1.
          1    1    1    2  502    0 -0.11938454814E+02  0.20274941906E+02  0.63910738693E+03  0.63954034431E+03  0.00000000000E+00 0. -1.
         22    1    3    3    0    0 -0.16234895776E+02  0.63483046181E+01  0.95504717378E+01  0.19876728171E+02  0.00000000000E+00 0.  1.
         22    1    3    3    0    0  0.63741113064E+02 -0.19773152091E+02 -0.21940006216E+03  0.22932573844E+03  0.00000000000E+00 0.  1.
</event>
<event>
 7    1  0.7118985E-006  0.1997807E+03  0.7818608E-02  0.1203212E+00
          2   -1    0    0  502    0  0.00000000000E+00  0.00000000000E+00  0.97397901584E+03  0.97397901584E+03  0.00000000000E+00 0. -1.
          1   -1    0    0  501    0 -0.00000000000E+00 -0.00000000000E+00 -0.98049389692E+03  0.98049389692E+03  0.00000000000E+00 0. -1.
         25    2    1    2    0    0 -0.60125074958E+02  0.19948385310E+03 -0.13325737859E+03  0.27711242259E+03  0.12499973408E+03 0.  0.
          2    1    1    2  501    0  0.10923110817E+03 -0.47280490541E+01 -0.76016872623E+03  0.76799106881E+03  0.00000000000E+00 0. -1.
          1    1    1    2  502    0 -0.49106033209E+02 -0.19475580405E+03  0.88691122374E+03  0.90936942136E+03  0.00000000000E+00 0. -1.
         22    1    3    3    0    0 -0.62947825769E+02  0.97873868342E+02 -0.13129735041E+03  0.17544434188E+03  0.00000000000E+00 0. -1.
         22    1    3    3    0    0  0.28227508111E+01  0.10160998476E+03 -0.19600281734E+01  0.10166808071E+03  0.00000000000E+00 0. -1.
</event>
<event>
 7    1  0.7118985E-006  0.3566641E+02  0.7818608E-02  0.1592533E+00
          2   -1    0    0  502    0  0.00000000000E+00  0.00000000000E+00  0.10124196460E+04  0.10124196460E+04  0.00000000000E+00 0. -1.
          1   -1    0    0  501    0 -0.00000000000E+00 -0.00000000000E+00 -0.71090928661E+02  0.71090928661E+02  0.00000000000E+00 0. -1.
         25    2    1    2    0    0  0.15183285019E+02  0.37755495370E+02  0.37661697278E+03  0.39890049523E+03  0.12500100533E+03 0.  0.
          2    1    1    2  501    0  0.16204598784E+02 -0.20456159746E+02 -0.56567967625E+02  0.62297499585E+02  0.00000000000E+00 0. -1.
          1    1    1    2  502    0 -0.31387883803E+02 -0.17299335624E+02  0.62127971219E+03  0.62231257985E+03  0.00000000000E+00 0. -1.
         22    1    3    3    0    0  0.14262454773E+02  0.81108174170E+02  0.29740532516E+03  0.30859663149E+03  0.00000000000E+00 0. -1.
         22    1    3    3    0    0  0.92083024593E+00 -0.43352678801E+02  0.79211647618E+02  0.90303863737E+02  0.00000000000E+00 0. -1.
</event>
<event>
 7    1  0.7118985E-006  0.4710118E+02  0.7818608E-02  0.1504133E+00
          2   -1    0    0  502    0  0.00000000000E+00  0.00000000000E+00  0.72959412274E+03  0.72959412274E+03  0.00000000000E+00 0. -1.
          1   -1    0    0  501    0 -0.00000000000E+00 -0.00000000000E+00 -0.90448202406E+02  0.90448202406E+02  0.00000000000E+00 0. -1.
         25    2    1    2    0    0  0.78233778471E+02  0.17479519718E+02  0.14045503797E+03  0.20439717381E+03  0.12499811705E+03 0.  0.
          2    1    1    2  501    0 -0.44795251231E+02 -0.73931809533E+01 -0.49023966073E+02  0.66817833750E+02  0.00000000000E+00 0. -1.
          1    1    1    2  502    0 -0.33438527240E+02 -0.10086338765E+02  0.54771484843E+03  0.54882731758E+03  0.00000000000E+00 0. -1.
         22    1    3    3    0    0 -0.56301928655E+01 -0.15130550377E+02 -0.16748895967E+02  0.23262805990E+02  0.00000000000E+00 0.  1.
         22    1    3    3    0    0  0.83863971336E+02  0.32610070095E+02  0.15720393394E+03  0.18113436782E+03  0.00000000000E+00 0.  1.
</event>
<event>
 7    1  0.7118985E-006  0.6806327E+02  0.7818608E-02  0.1492622E+00
          2   -1    0    0  502    0  0.00000000000E+00  0.00000000000E+00  0.10915700589E+04  0.10915700589E+04  0.00000000000E+00 0. -1.
          1   -1    0    0  501    0 -0.00000000000E+00 -0.00000000000E+00 -0.13421940909E+03  0.13421940909E+03  0.00000000000E+00 0. -1.
         25    2    1    2    0    0 -0.30785576706E+02  0.32761419490E+02  0.20681597363E+03  0.24579690406E+03  0.12498883453E+03 0.  0.
          2    1    1    2  501    0  0.37666888492E+02 -0.58004275708E+02 -0.10408749535E+03  0.12496998511E+03  0.00000000000E+00 0. -1.
          1    1    1    2  502    0 -0.68813117862E+01  0.25242856218E+02  0.85462217154E+03  0.85502257885E+03  0.00000000000E+00 0. -1.
         22    1    3    3    0    0 -0.16341790426E+01  0.73491556167E+02  0.16468499584E+03  0.18034640896E+03  0.00000000000E+00 0. -1.
         22    1    3    3    0    0 -0.29151397663E+02 -0.40730136678E+02  0.42130977789E+02  0.65450495101E+02  0.00000000000E+00 0. -1.
</event>
<event>
 7    1  0.7118985E-006  0.9113230E+02  0.7818608E-02  0.1374416E+00
          2   -1    0    0  502    0  0.00000000000E+00  0.00000000000E+00  0.16314330719E+03  0.16314330719E+03  0.00000000000E+00 0. -1.
          1   -1    0    0  501    0 -0.00000000000E+00 -0.00000000000E+00 -0.12641691453E+04  0.12641691453E+04  0.00000000000E+00 0. -1.
         25    2    1    2    0    0 -0.42459313786E+02 -0.11026712689E+03 -0.94916342920E+01  0.17226916088E+03  0.12499976027E+03 0.  0.
          2    1    1    2  501    0  0.61647756885E+02  0.66560984863E+02 -0.11644032894E+04  0.11679322887E+04  0.00000000000E+00 0. -1.
          1    1    1    2  502    0 -0.19188443099E+02  0.43706142023E+02  0.72869085566E+02  0.87111002923E+02  0.00000000000E+00 0. -1.
         22    1    3    3    0    0 -0.32648168307E+02 -0.13762980217E+03 -0.16383690206E+02  0.14239484065E+03  0.00000000000E+00 0.  1.
         22    1    3    3    0    0 -0.98111454789E+01  0.27362675283E+02  0.68920559140E+01  0.29874320226E+02  0.00000000000E+00 0.  1.
</event>
<event>
 7    1  0.7118985E-006  0.4826781E+02  0.7818608E-02  0.1584272E+00
          2   -1    0    0  502    0  0.00000000000E+00  0.00000000000E+00  0.73487308938E+03  0.73487308938E+03  0.00000000000E+00 0. -1.
          1   -1    0    0  501    0 -0.00000000000E+00 -0.00000000000E+00 -0.63499652817E+02  0.63499652817E+02  0.00000000000E+00 0. -1.
         25    2    1    2    0    0  0.23446888851E+02 -0.21011669388E+02  0.24936915763E+03  0.28071502952E+03  0.12499881668E+03 0.  0.
          2    1    1    2  501    0  0.20033988003E+02 -0.31588275235E+01 -0.44292306824E+02  0.48714959822E+02  0.00000000000E+00 0. -1.
          1    1    1    2  502    0 -0.43480876853E+02  0.24170496911E+02  0.46629658575E+03  0.46894275286E+03  0.00000000000E+00 0. -1.
         22    1    3    3    0    0 -0.24476688016E+01 -0.12770464753E+02  0.25296927413E+03  0.25330323628E+03  0.00000000000E+00 0.  1.
         22    1    3    3    0    0  0.25894557652E+02 -0.82412046352E+01 -0.36001165004E+01  0.27411793240E+02  0.00000000000E+00 0.  1.
</event>
<event>
 7    1  0.7118985E-006  0.6026772E+02  0.7818608E-02  0.1431070E+00
          2   -1    0    0  502    0  0.00000000000E+00  0.00000000000E+00  0.49221658000E+03  0.49221658000E+03  0.00000000000E+00 0. -1.
          1   -1    0    0  501    0 -0.00000000000E+00 -0.00000000000E+00 -0.64085895775E+03  0.64085895775E+03  0.00000000000E+00 0. -1.
         25    2    1    2    0    0 -0.20205519824E+02 -0.16624433649E+02  0.10027340396E+03  0.16236737140E+03  0.12499509161E+03 0.  0.
          2    1    1    2  501    0 -0.43644230100E+02  0.15038697878E+02 -0.60610156941E+03  0.60785696813E+03  0.00000000000E+00 0. -1.
          1    1    1    2  502    0  0.63849749924E+02  0.15857357710E+01  0.35718578770E+03  0.36285119823E+03  0.00000000000E+00 0. -1.
         22    1    3    3    0    0 -0.85952130478E+00 -0.70071661070E+02  0.64249934036E+02  0.95072764163E+02  0.00000000000E+00 0. -1.
         22    1    3    3    0    0 -0.19345998519E+02  0.53447227421E+02  0.36023469924E+02  0.67294607236E+02  0.00000000000E+00 0. -1.
</event>
<event>
 7    1  0.7118985E-006  0.1572827E+03  0.7818608E-02  0.1397823E+00
          2   -1    0    0  502    0  0.00000000000E+00  0.00000000000E+00  0.21227696893E+03  0.21227696893E+03  0.00000000000E+00 0. -1.
          1   -1    0    0  501    0 -0.00000000000E+00 -0.00000000000E+00 -0.19271895234E+04  0.19271895234E+04  0.00000000000E+00 0. -1.
         25    2    1    2    0    0  0.14045443354E+03  0.32265757114E+02 -0.25253610089E+03  0.31649331343E+03  0.12500003286E+03 0.  0.
          2    1    1    2  501    0  0.94192153839E+01  0.20862414207E+02 -0.16075179390E+04  0.16076809030E+04  0.00000000000E+00 0. -1.
          1    1    1    2  502    0 -0.14987364892E+03 -0.53128171321E+02  0.14514148542E+03  0.21529227580E+03  0.00000000000E+00 0. -1.
         22    1    3    3    0    0  0.45359670286E+02 -0.47930450788E+02 -0.97235171947E+02  0.11751385648E+03  0.00000000000E+00 0. -1.
         22    1    3    3    0    0  0.95094763253E+02  0.80196207901E+02 -0.15530092894E+03  0.19897945695E+03  0.00000000000E+00 0. -1.
</event>
<event>
 7    1  0.7118985E-006  0.3435728E+02  0.7818608E-02  0.1633432E+00
          2   -1    0    0  502    0  0.00000000000E+00  0.00000000000E+00  0.14236352731E+03  0.14236352731E+03  0.00000000000E+00 0. -1.
          1   -1    0    0  501    0 -0.00000000000E+00 -0.00000000000E+00 -0.69203867852E+03  0.69203867852E+03  0.00000000000E+00 0. -1.
         25    2    1    2    0    0  0.23431739512E+02 -0.72600638000E+01  0.67222368307E+02  0.14403404069E+03  0.12500081254E+03 0.  0.
          2    1    1    2  501    0  0.12978596155E+02  0.16847902777E+02 -0.64376324988E+03  0.64411444456E+03  0.00000000000E+00 0. -1.
          1    1    1    2  502    0 -0.36410335667E+02 -0.95878389774E+01  0.26865730368E+02  0.46253720584E+02  0.00000000000E+00 0. -1.
         22    1    3    3    0    0  0.41834844438E+01 -0.63170476750E+02  0.14809986975E+02  0.65018046641E+02  0.00000000000E+00 0.  1.
         22    1    3    3    0    0  0.19248255068E+02  0.55910412950E+02  0.52412381332E+02  0.79015994053E+02  0.00000000000E+00 0.  1.
</event>
<event>
 7    1  0.7118985E-006  0.1327593E+03  0.7818608E-02  0.1343499E+00
          2   -1    0    0  502    0  0.00000000000E+00  0.00000000000E+00  0.18213598234E+03  0.18213598234E+03  0.00000000000E+00 0. -1.
          1   -1    0    0  501    0 -0.00000000000E+00 -0.00000000000E+00 -0.32656435546E+03  0.32656435546E+03  0.00000000000E+00 0. -1.
         25    2    1    2    0    0  0.14574194327E+03 -0.33422177411E+02 -0.36407858382E+02  0.19826172841E+03  0.12499769930E+03 0.  0.
          2    1    1    2  501    0 -0.12943140348E+03 -0.58296753406E+01 -0.18301599993E+03  0.22423498735E+03  0.00000000000E+00 0. -1.
          1    1    1    2  502    0 -0.16310539783E+02  0.39251852751E+02  0.74995485196E+02  0.86203622037E+02  0.00000000000E+00 0. -1.
         22    1    3    3    0    0  0.64887540358E+01  0.90948368582E+00  0.36700315832E+02  0.37280615226E+02  0.00000000000E+00 0. -1.
         22    1    3    3    0    0  0.13925318923E+03 -0.34331661097E+02 -0.73108174213E+02  0.16098111318E+03  0.00000000000E+00 0. -1.
</event>
<event>
 7    1  0.7118985E-006  0.3952509E+02  0.7818608E-02  0.1532545E+00
          2   -1    0    0  502    0  0.00000000000E+00  0.00000000000E+00  0.27944807943E+03  0.27944807943E+03  0.00000000000E+00 0. -1.
          1   -1    0    0  501    0 -0.00000000000E+00 -0.00000000000E+00 -0.17819400367E+03  0.17819400367E+03  0.00000000000E+00 0. -1.
         25    2    1    2    0    0 -0.43648554650E+02 -0.10932085878E+02  0.11885171217E+03  0.17825386958E+03  0.12499602278E+03 0.  0.
          2    1    1    2  501    0  0.24233736611E+02 -0.24421162651E+02 -0.14330071551E+03  0.14737286806E+03  0.00000000000E+00 0. -1.
          1    1    1    2  502    0  0.19414818039E+02  0.35353248529E+02  0.12570307910E+03  0.13201534546E+03  0.00000000000E+00 0. -1.
         22    1    3    3    0    0 -0.76674010763E+01 -0.59744085390E+02  0.22281941122E+02  0.64223279880E+02  0.00000000000E+00 0. -1.
         22    1    3    3    0    0 -0.35981153574E+02  0.48811999512E+02  0.96569771043E+02  0.11403058970E+03  0.00000000000E+00 0. -1.
</event>
<event>
 7    1  0.7118985E-006  0.5681334E+02  0.7818608E-02  0.1448094E+00
          2   -1    0    0  502    0  0.00000000000E+00  0.00000000000E+00  0.27395430695E+03  0.27395430695E+03  0.00000000000E+00 0. -1.
          1   -1    0    0  501    0 -0.00000000000E+00 -0.00000000000E+00 -0.44878222601E+03  0.44878222601E+03  0.00000000000E+00 0. -1.
         25    2    1    2    0    0  0.25371840502E+02  0.92583475043E+02 -0.20772080208E+02  0.15897183304E+03  0.12500053697E+03 0.  0.
          2    1    1    2  501    0 -0.25480596008E+02 -0.49467413099E+02 -0.35444668684E+03  0.35878787541E+03  0.00000000000E+00 0. -1.
          1    1    1    2  502    0  0.10875550585E+00 -0.43116061944E+02  0.20039084799E+03  0.20497682450E+03  0.00000000000E+00 0. -1.
         22    1    3    3    0    0  0.41053304335E+02  0.28156065525E+02 -0.63049018069E+02  0.80332537008E+02  0.00000000000E+00 0. -1.
         22    1    3    3    0    0 -0.15681463833E+02  0.64427409518E+02  0.42276937861E+02  0.78639296030E+02  0.00000000000E+00 0. -1.
</event>
<event>
 7    1  0.7118985E-006  0.8740541E+02  0.7818608E-02  0.1341783E+00
          2   -1    0    0  502    0  0.00000000000E+00  0.00000000000E+00  0.24312744726E+03  0.24312744726E+03  0.00000000000E+00 0. -1.
          1   -1    0    0  501    0 -0.00000000000E+00 -0.00000000000E+00 -0.15786359505E+04  0.15786359505E+04  0.00000000000E+00 0. -1.
         25    2    1    2    0    0 -0.32029345531E+02  0.29570502974E+02 -0.15863380829E+03  0.20661441951E+03  0.12499815837E+03 0.  0.
          2    1    1    2  501    0  0.78187256524E+01 -0.90458556064E+02 -0.13895987350E+04  0.13925618575E+04  0.00000000000E+00 0. -1.
          1    1    1    2  502    0  0.24210619878E+02  0.60888053089E+02  0.21272403999E+03  0.22258712073E+03  0.00000000000E+00 0. -1.
         22    1    3    3    0    0  0.32834840151E+02 -0.81794938927E+01 -0.31736224108E+01  0.33986802251E+02  0.00000000000E+00 0. -1.
         22    1    3    3    0    0 -0.64864185681E+02  0.37749996867E+02 -0.15546018588E+03  0.17262761726E+03  0.00000000000E+00 0. -1.
</event>
<event>
 7    1  0.7118985E-006  0.7749459E+02  0.7818608E-02  0.1444000E+00
          2   -1    0    0  502    0  0.00000000000E+00  0.00000000000E+00  0.76282378706E+03  0.76282378706E+03  0.00000000000E+00 0. -1.
          1   -1    0    0  501    0 -0.00000000000E+00 -0.00000000000E+00 -0.28870186945E+03  0.28870186945E+03  0.00000000000E+00 0. -1.
         25    2    1    2    0    0  0.62192748071E+01 -0.98818768765E+02  0.83925171894E+02  0.18019076717E+03  0.12498579781E+03 0.  0.
          2    1    1    2  501    0  0.19001006352E+02  0.26469299230E+02 -0.23712414040E+03  0.23935229267E+03  0.00000000000E+00 0. -1.
          1    1    1    2  502    0 -0.25220281159E+02  0.72349469535E+02  0.62732088612E+03  0.63198259667E+03  0.00000000000E+00 0. -1.
         22    1    3    3    0    0  0.44312711496E+02 -0.10926775563E+03  0.74846041688E+02  0.13966026198E+03  0.00000000000E+00 0. -1.
         22    1    3    3    0    0 -0.38093436689E+02  0.10448986863E+02  0.90791302059E+01  0.40530505185E+02  0.00000000000E+00 0. -1.
</event>
<event>
 7    1  0.7118985E-006  0.5658944E+02  0.7818608E-02  0.1424445E+00
          2   -1    0    0  502    0  0.00000000000E+00  0.00000000000E+00  0.21903798081E+04  0.21903798081E+04  0.00000000000E+00 0. -1.
          1   -1    0    0  501    0 -0.00000000000E+00 -0.00000000000E+00 -0.84356043431E+02  0.84356043431E+02  0.00000000000E+00 0. -1.
         25    2    1    2    0    0 -0.75079309470E+02 -0.21775400940E+02  0.15934213709E+04  0.16002275405E+04  0.12500178121E+03 0.  0.
          2    1    1    2  501    0  0.30365595185E+02  0.47735853609E+02 -0.69781111622E+02  0.89834206347E+02  0.00000000000E+00 0. -1.
          1    1    1    2  502    0  0.44713714285E+02 -0.25960452669E+02  0.58238350534E+03  0.58467410464E+03  0.00000000000E+00 0. -1.
         22    1    3    3    0    0  0.16752257805E+02 -0.35354786896E+02  0.86933231781E+03  0.87021220280E+03  0.00000000000E+00 0.  1.
         22    1    3    3    0    0 -0.91831567276E+02  0.13579385956E+02  0.72408905312E+03  0.73001533773E+03  0.00000000000E+00 0.  1.
</event>
<event>
 7    1  0.7118985E-006  0.7477435E+02  0.7818608E-02  0.1462818E+00
          2   -1    0    0  502    0  0.00000000000E+00  0.00000000000E+00  0.94369462526E+03  0.94369462526E+03  0.00000000000E+00 0. -1.
          1   -1    0    0  501    0 -0.00000000000E+00 -0.00000000000E+00 -0.48723438981E+03  0.48723438981E+03  0.00000000000E+00 0. -1.
         25    2    1    2    0    0  0.13196260620E+01  0.60985495760E+02  0.10252930867E+03  0.17279508906E+03  0.12499964624E+03 0.  0.
          2    1    1    2  501    0  0.28085565729E+02  0.87485179595E+01 -0.44984359637E+03  0.45080438858E+03  0.00000000000E+00 0. -1.
          1    1    1    2  502    0 -0.29405191791E+02 -0.69734013719E+02  0.80377452313E+03  0.80732953743E+03  0.00000000000E+00 0. -1.
         22    1    3    3    0    0  0.10309071603E+02 -0.33572743291E+02  0.30506959276E+01  0.35252131780E+02  0.00000000000E+00 0.  1.
         22    1    3    3    0    0 -0.89894455414E+01  0.94558239051E+02  0.99478612745E+02  0.13754295728E+03  0.00000000000E+00 0.  1.
</event>
<event>
 7    1  0.7118985E-006  0.3504952E+02  0.7818608E-02  0.1618378E+00
          2   -1    0    0  502    0  0.00000000000E+00  0.00000000000E+00  0.19460655975E+04  0.19460655975E+04  0.00000000000E+00 0. -1.
          1   -1    0    0  501    0 -0.00000000000E+00 -0.00000000000E+00 -0.44388584873E+02  0.44388584873E+02  0.00000000000E+00 0. -1.
         25    2    1    2    0    0 -0.18675686159E+02  0.14169421669E+02  0.12890693222E+04  0.12953274213E+04  0.12499542796E+03 0.  0.
          2    1    1    2  501    0  0.35113547958E+02  0.15673243266E+01 -0.33537069478E+02  0.48581403694E+02  0.00000000000E+00 0. -1.
          1    1    1    2  502    0 -0.16437861799E+02 -0.15736745996E+02  0.64614475986E+03  0.64654535739E+03  0.00000000000E+00 0. -1.
         22    1    3    3    0    0  0.35461360186E+02 -0.28592612527E+02  0.81416498845E+03  0.81543833241E+03  0.00000000000E+00 0. -1.
         22    1    3    3    0    0 -0.54137046345E+02  0.42762034196E+02  0.47490433377E+03  0.47988908884E+03  0.00000000000E+00 0. -1.
</event>
<event>
 7    1  0.7118985E-006  0.1288890E+03  0.7818608E-02  0.1357055E+00
          2   -1    0    0  502    0  0.00000000000E+00  0.00000000000E+00  0.11144280078E+03  0.11144280078E+03  0.00000000000E+00 0. -1.
          1   -1    0    0  501    0 -0.00000000000E+00 -0.00000000000E+00 -0.93178900690E+03  0.93178900690E+03  0.00000000000E+00 0. -1.
         25    2    1    2    0    0 -0.12720804793E+03  0.65819078479E+02 -0.27651980758E+03  0.33556387111E+03  0.12500347619E+03 0.  0.
          2    1    1    2  501    0  0.28475072675E+01 -0.38898323881E+02 -0.57527705124E+03  0.57659767047E+03  0.00000000000E+00 0. -1.
          1    1    1    2  502    0  0.12436054066E+03 -0.26920754599E+02  0.31450652705E+02  0.13107026611E+03  0.00000000000E+00 0. -1.
         22    1    3    3    0    0 -0.96635875093E+01  0.70873347647E+02 -0.12089577962E+03  0.14047137025E+03  0.00000000000E+00 0. -1.
         22    1    3    3    0    0 -0.11754446042E+03 -0.50542691677E+01 -0.15562402796E+03  0.19509250086E+03  0.00000000000E+00 0. -1.
</event>
<event>
 7    1  0.7118985E-006  0.3710214E+03  0.7818608E-02  0.1203017E+00
          2   -1    0    0  502    0  0.00000000000E+00  0.00000000000E+00  0.40398380968E+04  0.40398380968E+04  0.00000000000E+00 0. -1.
          1   -1    0    0  501    0 -0.00000000000E+00 -0.00000000000E+00 -0.70315999643E+03  0.70315999643E+03  0.00000000000E+00 0. -1.
         25    2    1    2    0    0  0.31885054629E+03  0.21032005725E+03  0.15569431881E+04  0.16079793918E+04  0.12500174367E+03 0.  0.
          2    1    1    2  501    0 -0.27453373407E+03 -0.24926271930E+03 -0.62652562695E+03  0.72803505108E+03  0.00000000000E+00 0. -1.
          1    1    1    2  502    0 -0.44316812218E+02  0.38942662047E+02  0.24062605391E+04  0.24069836503E+04  0.00000000000E+00 0. -1.
         22    1    3    3    0    0  0.27409098583E+03  0.14884414637E+03  0.13895315532E+04  0.14241061708E+04  0.00000000000E+00 0. -1.
         22    1    3    3    0    0  0.44759560463E+02  0.61475910880E+02  0.16741163494E+03  0.18387322095E+03  0.00000000000E+00 0. -1.
</event>
<event>
 7    1  0.8101196E-006  0.7799135E+02  0.7818608E-02  0.1360933E+00
          2   -1    0    0  502    0  0.00000000000E+00  0.00000000000E+00  0.71701994211E+03  0.71701994211E+03  0.00000000000E+00 0. -1.
          1   -1    0    0  501    0 -0.00000000000E+00 -0.00000000000E+00 -0.19908536541E+04  0.19908536541E+04  0.00000000000E+00 0. -1.
         25    2    1    2    0    0 -0.11649886801E+03  0.51645647132E+02 -0.37403024510E+03  0.41444074584E+03  0.12499299360E+03 0.  0.
          2    1    1    2  501    0  0.62252551642E+02  0.40801035258E+01 -0.15938361274E+04  0.15950566223E+04  0.00000000000E+00 0. -1.
          1    1    1    2  502    0  0.54246316369E+02 -0.55725750658E+02  0.69403266048E+03  0.69837622807E+03  0.00000000000E+00 0. -1.
         22    1    3    3    0    0 -0.14415433271E+02 -0.13201045267E+02  0.18018508076E+01  0.19629543522E+02  0.00000000000E+00 0. -1.
         22    1    3    3    0    0 -0.10208343474E+03  0.64846692400E+02 -0.37583209590E+03  0.39481120232E+03  0.00000000000E+00 0. -1.
</event>
<event>
 7    1  0.7118985E-006  0.6760901E+02  0.7818608E-02  0.1371301E+00
          2   -1    0    0  502    0  0.00000000000E+00  0.00000000000E+00  0.93132474485E+03  0.93132474485E+03  0.00000000000E+00 0. -1.
          1   -1    0    0  501    0 -0.00000000000E+00 -0.00000000000E+00 -0.21246852424E+03  0.21246852424E+03  0.00000000000E+00 0. -1.
         25    2    1    2    0    0 -0.37826914261E+02 -0.39370483572E+02  0.15215979474E+03  0.20434761373E+03  0.12499773470E+03 0.  0.
          2    1    1    2  501    0 -0.26881675561E+02  0.62035105760E+02 -0.17861747638E+03  0.19098476823E+03  0.00000000000E+00 0. -1.
          1    1    1    2  502    0  0.64708589821E+02 -0.22664622188E+02  0.74531390224E+03  0.74846088713E+03  0.00000000000E+00 0. -1.
         22    1    3    3    0    0 -0.24280529532E+01 -0.78667258007E+02  0.63571277166E+02  0.10117183503E+03  0.00000000000E+00 0. -1.
         22    1    3    3    0    0 -0.35398861307E+02  0.39296774435E+02  0.88588517577E+02  0.10317577870E+03  0.00000000000E+00 0. -1.
</event>
<event>
 7    1  0.7118985E-006  0.2048271E+03  0.7818608E-02  0.1261171E+00
          2   -1    0    0  502    0  0.00000000000E+00  0.00000000000E+00  0.52818681584E+03  0.52818681584E+03  0.00000000000E+00 0. -1.
          1   -1    0    0  501    0 -0.00000000000E+00 -0.00000000000E+00 -0.22440311079E+03  0.22440311079E+03  0.00000000000E+00 0. -1.
         25    2    1    2    0    0 -0.72538440963E+02 -0.17989570858E+03  0.16196153067E+03  0.28192674521E+03  0.12500744324E+03 0.  0.
          2    1    1    2  501    0  0.12944311642E+03  0.16537999946E+03 -0.92216701742E+02  0.22936866545E+03  0.00000000000E+00 0. -1.
          1    1    1    2  502    0 -0.56904675454E+02  0.14515709122E+02  0.23403887613E+03  0.24129451597E+03  0.00000000000E+00 0. -1.
         22    1    3    3    0    0  0.23084494735E+02 -0.28842196812E+02  0.73942388046E+02  0.82657382998E+02  0.00000000000E+00 0. -1.
         22    1    3    3    0    0 -0.95622935698E+02 -0.15105351177E+03  0.88019142621E+02  0.19926936221E+03  0.00000000000E+00 0. -1.
</event>
<event>
 7    1  0.7118985E-006  0.1130292E+03  0.7818608E-02  0.1425006E+00
          2   -1    0    0  502    0  0.00000000000E+00  0.00000000000E+00  0.95782188358E+03  0.95782188358E+03  0.00000000000E+00 0. -1.
          1   -1    0    0  501    0 -0.00000000000E+00 -0.00000000000E+00 -0.25237155069E+03  0.25237155069E+03  0.00000000000E+00 0. -1.
         25    2    1    2    0    0 -0.16641452108E+02 -0.10390452325E+03  0.21839628154E+03  0.27275334480E+03  0.12499745369E+03 0.  0.
          2    1    1    2  501    0  0.42371486298E+02  0.10543443688E+03 -0.21060575564E+03  0.23930429925E+03  0.00000000000E+00 0. -1.
          1    1    1    2  502    0 -0.25730034190E+02 -0.15299136268E+01  0.69765980699E+03  0.69813579022E+03  0.00000000000E+00 0. -1.
         22    1    3    3    0    0 -0.51150500413E+02 -0.11461325677E+03  0.18496254444E+03  0.22352564767E+03  0.00000000000E+00 0.  1.
         22    1    3    3    0    0  0.34509048304E+02  0.10708733517E+02  0.33433737094E+02  0.49227697128E+02  0.00000000000E+00 0.  1.
</event>
<event>
 7    1  0.7118985E-006  0.1923617E+03  0.7818608E-02  0.1287240E+00
          2   -1    0    0  502    0  0.00000000000E+00  0.00000000000E+00  0.11086243910E+04  0.11086243910E+04  0.00000000000E+00 0. -1.
          1   -1    0    0  501    0 -0.00000000000E+00 -0.00000000000E+00 -0.45610880145E+03  0.45610880145E+03  0.00000000000E+00 0. -1.
         25    2    1    2    0    0  0.16165124965E+03  0.15906158544E+02  0.60560442571E+03  0.63934798679E+03  0.12499998153E+03 0.  0.
          2    1    1    2  501    0 -0.18429740140E+03 -0.58998526279E+02 -0.41658698061E+03  0.45933764344E+03  0.00000000000E+00 0. -1.
          1    1    1    2  502    0  0.22646151749E+02  0.43092367735E+02  0.46349814448E+03  0.46604756225E+03  0.00000000000E+00 0. -1.
         22    1    3    3    0    0  0.11160718202E+03  0.59792061402E+02  0.48857096540E+03  0.50471065168E+03  0.00000000000E+00 0. -1.
         22    1    3    3    0    0  0.50044067632E+02 -0.43885902858E+02  0.11703346031E+03  0.13463733511E+03  0.00000000000E+00 0. -1.
</event>
<event>
 7    1  0.7118985E-006  0.1857844E+03  0.7818608E-02  0.1218298E+00
          2   -1    0    0  502    0  0.00000000000E+00  0.00000000000E+00  0.19632220197E+04  0.19632220197E+04  0.00000000000E+00 0. -1.
          1   -1    0    0  501    0 -0.00000000000E+00 -0.00000000000E+00 -0.74882397524E+03  0.74882397524E+03  0.00000000000E+00 0. -1.
         25    2    1    2    0    0  0.18605319163E+03 -0.10601413703E+03  0.34031442783E+03  0.42106260950E+03  0.12500009584E+03 0.  0.
          2    1    1    2  501    0 -0.18554953779E+03  0.59165968864E+01 -0.69466564877E+03  0.71904380998E+03  0.00000000000E+00 0. -1.
          1    1    1    2  502    0 -0.50365383667E+00  0.10009754014E+03  0.15687492654E+04  0.15719395754E+04  0.00000000000E+00 0. -1.
         22    1    3    3    0    0  0.13949479566E+03 -0.13412898870E+03  0.26233148123E+03  0.32598648694E+03  0.00000000000E+00 0. -1.
         22    1    3    3    0    0  0.46558395968E+02  0.28114851666E+02  0.77982946605E+02  0.95076122558E+02  0.00000000000E+00 0. -1.
</event>
<event>
 7    1  0.7118985E-006  0.7837332E+02  0.7818608E-02  0.1370166E+00
          2   -1    0    0  502    0  0.00000000000E+00  0.00000000000E+00  0.28323835965E+04  0.28323835965E+04  0.00000000000E+00 0. -1.
          1   -1    0    0  501    0 -0.00000000000E+00 -0.00000000000E+00 -0.75420294243E+02  0.75420294243E+02  0.00000000000E+00 0. -1.
         25    2    1    2    0    0 -0.23479191101E+02  0.14404046928E+01  0.18645897884E+02  0.12855058652E+03  0.12499694639E+03 0.  0.
          2    1    1    2  501    0 -0.52109514480E+02 -0.24270328480E+02  0.21630742013E+02  0.61419372708E+02  0.00000000000E+00 0. -1.
          1    1    1    2  502    0  0.75588705581E+02  0.22829923788E+02  0.27166866623E+04  0.27178339315E+04  0.00000000000E+00 0. -1.
         22    1    3    3    0    0 -0.30676992399E+02  0.29475493815E+02 -0.42974682651E+02  0.60470703215E+02  0.00000000000E+00 0. -1.
         22    1    3    3    0    0  0.71978012980E+01 -0.28035089122E+02  0.61620580536E+02  0.68079883308E+02  0.00000000000E+00 0. -1.
</event>
<event>
 7    1  0.7118985E-006  0.2432285E+03  0.7818608E-02  0.1206141E+00
          2   -1    0    0  502    0  0.00000000000E+00  0.00000000000E+00  0.28992462669E+04  0.28992462669E+04  0.00000000000E+00 0. -1.
          1   -1    0    0  501    0 -0.00000000000E+00 -0.00000000000E+00 -0.32603257073E+04  0.32603257073E+04  0.00000000000E+00 0. -1.
         25    2    1    2    0    0  0.17019386908E+03 -0.60420768180E+02  0.54539009961E+03  0.58795585470E+03  0.12500041610E+03 0.  0.
          2    1    1    2  501    0  0.86707101786E+02 -0.72921529582E+01 -0.32308902392E+04  0.32320617313E+04  0.00000000000E+00 0. -1.
          1    1    1    2  502    0 -0.25690097087E+03  0.67712921138E+02  0.23244206992E+04  0.23395543883E+04  0.00000000000E+00 0. -1.
         22    1    3    3    0    0  0.58020444713E+02 -0.51639477063E+02  0.90050668198E+02  0.11892068970E+03  0.00000000000E+00 0. -1.
         22    1    3    3    0    0  0.11217342437E+03 -0.87812911169E+01  0.45533943141E+03  0.46903516500E+03  0.00000000000E+00 0. -1.
</event>
<event>
 7    1  0.7118985E-006  0.3485510E+02  0.7818608E-02  0.1555264E+00
          2   -1    0    0  502    0  0.00000000000E+00  0.00000000000E+00  0.28323683121E+02  0.28323683121E+02  0.00000000000E+00 0. -1.
          1   -1    0    0  501    0 -0.00000000000E+00 -0.00000000000E+00 -0.15518394607E+04  0.15518394607E+04  0.00000000000E+00 0. -1.
         25    2    1    2    0    0 -0.34603822330E+02  0.11819188454E+02 -0.21188778982E+03  0.24872752376E+03  0.12502730848E+03 0.  0.
          2    1    1    2  501    0  0.70745777804E+01 -0.34129579120E+02 -0.12888286086E+04  0.12892998333E+04  0.00000000000E+00 0. -1.
          1    1    1    2  502    0  0.27529244550E+02  0.22310390666E+02 -0.22799379206E+02  0.42135786801E+02  0.00000000000E+00 0. -1.
         22    1    3    3    0    0 -0.55052787050E+02 -0.29765523179E+02 -0.18466624169E+03  0.19498311863E+03  0.00000000000E+00 0. -1.
         22    1    3    3    0    0  0.20448964720E+02  0.41584711633E+02 -0.27221548130E+02  0.53744405126E+02  0.00000000000E+00 0. -1.
</event>
<event>
 7    1  0.7118985E-006  0.1370372E+03  0.7818608E-02  0.1262745E+00
          2   -1    0    0  502    0  0.00000000000E+00  0.00000000000E+00  0.17336068852E+03  0.17336068852E+03  0.00000000000E+00 0. -1.
          1   -1    0    0  501    0 -0.00000000000E+00 -0.00000000000E+00 -0.10563061812E+04  0.10563061812E+04  0.00000000000E+00 0. -1.
         25    2    1    2    0    0 -0.33017875166E+02 -0.19617120197E+03 -0.10297634492E+03  0.25652192641E+03  0.12500420214E+03 0.  0.
          2    1    1    2  501    0  0.46747987680E+02  0.72701780193E+02 -0.83342974805E+03  0.83789979600E+03  0.00000000000E+00 0. -1.
          1    1    1    2  502    0 -0.13730112514E+02  0.12346942178E+03  0.53460600245E+02  0.13524514735E+03  0.00000000000E+00 0. -1.
         22    1    3    3    0    0 -0.66130377832E+02 -0.17848505551E+03 -0.10767841100E+03  0.21868877911E+03  0.00000000000E+00 0. -1.
         22    1    3    3    0    0  0.33112502666E+02 -0.17686146458E+02  0.47020660781E+01  0.37833147302E+02  0.00000000000E+00 0. -1.
</event>
<event>
 7    1  0.7118985E-006  0.6790790E+02  0.7818608E-02  0.1473626E+00
          2   -1    0    0  502    0  0.00000000000E+00  0.00000000000E+00  0.12121933692E+04  0.12121933692E+04  0.00000000000E+00 0. -1.
          1   -1    0    0  501    0 -0.00000000000E+00 -0.00000000000E+00 -0.23842116038E+02  0.23842116038E+02  0.00000000000E+00 0. -1.
         25    2    1    2    0    0 -0.13789680048E+02 -0.52379184032E+02  0.90090489591E+03  0.91114619721E+03  0.12499610801E+03 0.  0.
          2    1    1    2  501    0 -0.11608976485E+02  0.68292870688E+02  0.49690241444E+02  0.85251420026E+02  0.00000000000E+00 0. -1.
          1    1    1    2  502    0  0.25398656533E+02 -0.15913686656E+02  0.23775611579E+03  0.23963786799E+03  0.00000000000E+00 0. -1.
         22    1    3    3    0    0 -0.53025763946E+01 -0.32891867908E+02  0.88221099193E+03  0.88283986463E+03  0.00000000000E+00 0.  1.
         22    1    3    3    0    0 -0.84871036536E+01 -0.19487316123E+02  0.18693903974E+02  0.28306332576E+02  0.00000000000E+00 0.  1.
</event>
<event>
 7    1  0.7118985E-006  0.2561961E+03  0.7818608E-02  0.1269886E+00
          2   -1    0    0  502    0  0.00000000000E+00  0.00000000000E+00  0.84036032770E+03  0.84036032770E+03  0.00000000000E+00 0. -1.
          1   -1    0    0  501    0 -0.00000000000E+00 -0.00000000000E+00 -0.19076528601E+04  0.19076528601E+04  0.00000000000E+00 0. -1.
         25    2    1    2    0    0  0.34868435037E+02  0.28225193517E+03 -0.18509576821E+03  0.36161719500E+03  0.12499835855E+03 0.  0.
          2    1    1    2  501    0  0.24848453683E+02 -0.35253478413E+02 -0.16125351009E+04  0.16131118080E+04  0.00000000000E+00 0. -1.
          1    1    1    2  502    0 -0.59716888720E+02 -0.24699845676E+03  0.73033833671E+03  0.77328418483E+03  0.00000000000E+00 0. -1.
         22    1    3    3    0    0  0.81062185128E+02  0.20738283521E+03 -0.13085637631E+03  0.25826751523E+03  0.00000000000E+00 0. -1.
         22    1    3    3    0    0 -0.46193750092E+02  0.74869099955E+02 -0.54239391903E+02  0.10334967978E+03  0.00000000000E+00 0. -1.
</event>
<event>
 7    1  0.7118985E-006  0.1026604E+03  0.7818608E-02  0.1283310E+00
          2   -1    0    0  502    0  0.00000000000E+00  0.00000000000E+00  0.26145913066E+03  0.26145913066E+03  0.00000000000E+00 0. -1.
          1   -1    0    0  501    0 -0.00000000000E+00 -0.00000000000E+00 -0.39575548668E+03  0.39575548668E+03  0.00000000000E+00 0. -1.
         25    2    1    2    0    0  0.81041837869E+02 -0.29919055256E+01  0.24401918462E+02  0.15099785404E+03  0.12501266863E+03 0.  0.
          2    1    1    2  501    0 -0.35187440048E+02 -0.96441735121E+02 -0.30595059427E+03  0.32271493666E+03  0.00000000000E+00 0. -1.
          1    1    1    2  502    0 -0.45854397821E+02  0.99433640647E+02  0.14725231979E+03  0.18350182663E+03  0.00000000000E+00 0. -1.
         22    1    3    3    0    0  0.17748046503E+02  0.55786351344E+02 -0.72830652476E+01  0.58992823210E+02  0.00000000000E+00 0. -1.
         22    1    3    3    0    0  0.63293791366E+02 -0.58778256870E+02  0.31684983710E+02  0.92005030834E+02  0.00000000000E+00 0. -1.
</event>
<event>
 7    1  0.7118985E-006  0.3768663E+02  0.7818608E-02  0.1606853E+00
          2   -1    0    0  502    0  0.00000000000E+00  0.00000000000E+00  0.75032662290E+03  0.75032662290E+03  0.00000000000E+00 0. -1.
          1   -1    0    0  501    0 -0.00000000000E+00 -0.00000000000E+00 -0.25359375290E+03  0.25359375290E+03  0.00000000000E+00 0. -1.
         25    2    1    2    0    0 -0.38087256196E+02  0.11901688557E+02  0.24973966113E+03  0.28211124082E+03  0.12499825830E+03 0.  0.
          2    1    1    2  501    0  0.36169435135E+02  0.10675344595E+02 -0.23564287174E+03  0.23864147591E+03  0.00000000000E+00 0. -1.
          1    1    1    2  502    0  0.19178210613E+01 -0.22577033151E+02  0.48263608061E+03  0.48316765907E+03  0.00000000000E+00 0. -1.
         22    1    3    3    0    0  0.37002769053E+02  0.32419118071E+02  0.13292169330E+03  0.14173348470E+03  0.00000000000E+00 0.  1.
         22    1    3    3    0    0 -0.75090025249E+02 -0.20517429514E+02  0.11681796783E+03  0.14037775612E+03  0.00000000000E+00 0.  1.
</event>
<event>
 7    1  0.7118985E-006  0.4734387E+02  0.7818608E-02  0.1548392E+00
          2   -1    0    0  502    0  0.00000000000E+00  0.00000000000E+00  0.88074621796E+03  0.88074621796E+03  0.00000000000E+00 0. -1.
          1   -1    0    0  501    0 -0.00000000000E+00 -0.00000000000E+00 -0.25219057266E+03  0.25219057266E+03  0.00000000000E+00 0. -1.
         25    2    1    2    0    0  0.38415777905E+02  0.85372157759E+00 -0.12290089615E+03  0.17945724800E+03  0.12499509091E+03 0.  0.
          2    1    1    2  501    0  0.72489058286E+00  0.25899076235E+02 -0.98678680808E+02  0.10202337802E+03  0.00000000000E+00 0. -1.
          1    1    1    2  502    0 -0.39140668488E+02 -0.26752797812E+02  0.85013522226E+03  0.85145616460E+03  0.00000000000E+00 0. -1.
         22    1    3    3    0    0  0.33054039263E+02  0.26879726858E+02  0.10135600290E+02  0.43792917473E+02  0.00000000000E+00 0. -1.
         22    1    3    3    0    0  0.53617386418E+01 -0.26026005280E+02 -0.13303649644E+03  0.13566433053E+03  0.00000000000E+00 0. -1.
</event>
<event>
 7    1  0.7118985E-006  0.4688484E+02  0.7818608E-02  0.1501735E+00
          2   -1    0    0  502    0  0.00000000000E+00  0.00000000000E+00  0.82131643615E+02  0.82131643615E+02  0.00000000000E+00 0. -1.
          1   -1    0    0  501    0 -0.00000000000E+00 -0.00000000000E+00 -0.41649687662E+03  0.41649687662E+03  0.00000000000E+00 0. -1.
         25    2    1    2    0    0  0.25258749996E+02  0.35612204520E+02 -0.84125837409E+02  0.15687142951E+03  0.12500102126E+03 0.  0.
          2    1    1    2  501    0 -0.47158148265E+02 -0.74580665127E+01 -0.28676042548E+03  0.29070785219E+03  0.00000000000E+00 0. -1.
          1    1    1    2  502    0  0.21899398269E+02 -0.28154138007E+02  0.36521029881E+02  0.51049238535E+02  0.00000000000E+00 0. -1.
         22    1    3    3    0    0  0.71079072358E+02  0.46955842559E+02 -0.55236660784E+02  0.10152917991E+03  0.00000000000E+00 0. -1.
         22    1    3    3    0    0 -0.45820322362E+02 -0.11343638039E+02 -0.28889176625E+02  0.55342249605E+02  0.00000000000E+00 0. -1.
</event>
<event>
 7    1  0.7118985E-006  0.9749368E+02  0.7818608E-02  0.1408677E+00
          2   -1    0    0  502    0  0.00000000000E+00  0.00000000000E+00  0.81026554633E+03  0.81026554633E+03  0.00000000000E+00 0. -1.
          1   -1    0    0  501    0 -0.00000000000E+00 -0.00000000000E+00 -0.17503745471E+04  0.17503745471E+04  0.00000000000E+00 0. -1.
         25    2    1    2    0    0  0.53783177742E+02 -0.38079398356E+02  0.26342008083E+02  0.14374047268E+03  0.12499900523E+03 0.  0.
          2    1    1    2  501    0  0.23122054772E+02 -0.24791716061E+02 -0.16881029062E+04  0.16884432714E+04  0.00000000000E+00 0. -1.
          1    1    1    2  502    0 -0.76905232514E+02  0.62871114417E+02  0.72165189743E+03  0.72845634933E+03  0.00000000000E+00 0. -1.
         22    1    3    3    0    0  0.69593404561E+02 -0.62376051495E+02 -0.13545219622E+02  0.94432445342E+02  0.00000000000E+00 0.  1.
         22    1    3    3    0    0 -0.15810226820E+02  0.24296653139E+02  0.39887227705E+02  0.49308027337E+02  0.00000000000E+00 0.  1.
</event>
<event>
 7    1  0.7118985E-006  0.8112524E+02  0.7818608E-02  0.1462300E+00
          2   -1    0    0  502    0  0.00000000000E+00  0.00000000000E+00  0.24559980401E+03  0.24559980401E+03  0.00000000000E+00 0. -1.
          1   -1    0    0  501    0 -0.00000000000E+00 -0.00000000000E+00 -0.11093574976E+04  0.11093574976E+04  0.00000000000E+00 0. -1.
         25    2    1    2    0    0  0.72321715812E+02 -0.79084485763E+02 -0.33804902822E+02  0.16808181692E+03  0.12499575695E+03 0.  0.
          2    1    1    2  501    0 -0.50742241236E+02  0.62501085237E+02 -0.10057586647E+04  0.10089755459E+04  0.00000000000E+00 0. -1.
          1    1    1    2  502    0 -0.21579474576E+02  0.16583400526E+02  0.17580587394E+03  0.17789993875E+03  0.00000000000E+00 0. -1.
         22    1    3    3    0    0  0.12997093303E+02 -0.50169528486E+01 -0.66321211012E+02  0.67768704283E+02  0.00000000000E+00 0. -1.
         22    1    3    3    0    0  0.59324622509E+02 -0.74067532914E+02  0.32516308190E+02  0.10031311263E+03  0.00000000000E+00 0. -1.
</event>
<event>
 7    1  0.7118985E-006  0.1003833E+03  0.7818608E-02  0.1305866E+00
          2   -1    0    0  502    0  0.00000000000E+00  0.00000000000E+00  0.47802680760E+03  0.47802680760E+03  0.00000000000E+00 0. -1.
          1   -1    0    0  501    0 -0.00000000000E+00 -0.00000000000E+00 -0.50023615838E+03  0.50023615838E+03  0.00000000000E+00 0. -1.
         25    2    1    2    0    0  0.36448074213E+02  0.15430389756E+02 -0.10169324458E+03  0.16593156214E+03  0.12500083311E+03 0.  0.
          2    1    1    2  501    0  0.81400103129E+01  0.78071426574E+02 -0.35607471145E+03  0.36462392619E+03  0.00000000000E+00 0. -1.
          1    1    1    2  502    0 -0.44588084526E+02 -0.93501816330E+02  0.43555860525E+03  0.44770747766E+03  0.00000000000E+00 0. -1.
         22    1    3    3    0    0  0.13984570934E+02  0.57402484032E+02 -0.10251253568E+03  0.11831920118E+03  0.00000000000E+00 0. -1.
         22    1    3    3    0    0  0.22463503280E+02 -0.41972094276E+02  0.81929110042E+00  0.47612360952E+02  0.00000000000E+00 0. -1.
</event>
<event>
 7    1  0.7118985E-006  0.8370850E+02  0.7818608E-02  0.1453553E+00
          2   -1    0    0  502    0  0.00000000000E+00  0.00000000000E+00  0.14283950511E+04  0.14283950511E+04  0.00000000000E+00 0. -1.
          1   -1    0    0  501    0 -0.00000000000E+00 -0.00000000000E+00 -0.54005332238E+03  0.54005332238E+03  0.00000000000E+00 0. -1.
         25    2    1    2    0    0 -0.15973964329E+02 -0.55094804529E+02  0.18790811910E+03  0.23286042897E+03  0.12499565245E+03 0.  0.
          2    1    1    2  501    0 -0.70277908094E+01 -0.27218316584E+02 -0.51569461718E+03  0.51646022575E+03  0.00000000000E+00 0. -1.
          1    1    1    2  502    0  0.23001755138E+02  0.82313121112E+02  0.12161282268E+04  0.12191277187E+04  0.00000000000E+00 0. -1.
         22    1    3    3    0    0  0.35288843810E+02 -0.48703177881E+02  0.16633953681E+03  0.17687889512E+03  0.00000000000E+00 0. -1.
         22    1    3    3    0    0 -0.51262808139E+02 -0.63916266479E+01  0.21568582296E+02  0.55981533846E+02  0.00000000000E+00 0. -1.
</event>
<event>
 7    1  0.7118985E-006  0.1037041E+03  0.7818608E-02  0.1319971E+00
          2   -1    0    0  502    0  0.00000000000E+00  0.00000000000E+00  0.16153023039E+04  0.16153023039E+04  0.00000000000E+00 0. -1.
          1   -1    0    0  501    0 -0.00000000000E+00 -0.00000000000E+00 -0.21624098334E+02  0.21624098334E+02  0.00000000000E+00 0. -1.
         25    2    1    2    0    0  0.10578764724E+03 -0.24006922976E+02  0.91830111931E+03  0.93309568216E+03  0.12499299052E+03 0.  0.
          2    1    1    2  501    0 -0.70152188532E+02  0.80615852334E+02  0.23191793763E+03  0.25535499799E+03  0.00000000000E+00 0. -1.
          1    1    1    2  502    0 -0.35635458709E+02 -0.56608929357E+02  0.44345914865E+03  0.44847572211E+03  0.00000000000E+00 0. -1.
         22    1    3    3    0    0  0.65612466130E+02  0.29107748283E+02  0.21536346678E+03  0.22701030714E+03  0.00000000000E+00 0. -1.
         22    1    3    3    0    0  0.40175181110E+02 -0.53114671260E+02  0.70293765253E+03  0.70608537502E+03  0.00000000000E+00 0. -1.
</event>
<event>
 7    1  0.7118985E-006  0.4734358E+02  0.7818608E-02  0.1539336E+00
          2   -1    0    0  502    0  0.00000000000E+00  0.00000000000E+00  0.28319175830E+02  0.28319175830E+02  0.00000000000E+00 0. -1.
          1   -1    0    0  501    0 -0.00000000000E+00 -0.00000000000E+00 -0.15642554854E+04  0.15642554854E+04  0.00000000000E+00 0. -1.
         25    2    1    2    0    0 -0.16236603303E+02  0.15218679874E+02 -0.44770602423E+03  0.46536003395E+03  0.12499616620E+03 0.  0.
          2    1    1    2  501    0  0.41649527997E+02 -0.25660084786E+02 -0.10972176622E+04  0.10983076624E+04  0.00000000000E+00 0. -1.
          1    1    1    2  502    0 -0.25412924693E+02  0.10441404912E+02  0.89873767971E+01  0.28906964899E+02  0.00000000000E+00 0. -1.
         22    1    3    3    0    0  0.32685491371E+02  0.52266738567E+02 -0.28191007158E+03  0.28857138071E+03  0.00000000000E+00 0.  1.
         22    1    3    3    0    0 -0.48922094674E+02 -0.37048058693E+02 -0.16579595265E+03  0.17678865324E+03  0.00000000000E+00 0.  1.
</event>
<event>
 7    1  0.7118985E-006  0.1478221E+03  0.7818608E-02  0.1280338E+00
          2   -1    0    0  502    0  0.00000000000E+00  0.00000000000E+00  0.70886681910E+03  0.70886681910E+03  0.00000000000E+00 0. -1.
          1   -1    0    0  501    0 -0.00000000000E+00 -0.00000000000E+00 -0.77144258827E+03  0.77144258827E+03  0.00000000000E+00 0. -1.
         25    2    1    2    0    0  0.30384046329E+02 -0.90878668823E+02  0.51031149859E+02  0.16560810779E+03  0.12505896366E+03 0.  0.
          2    1    1    2  501    0 -0.90211502995E+02  0.12239737535E+03 -0.70410930629E+03  0.72033960600E+03  0.00000000000E+00 0. -1.
          1    1    1    2  502    0  0.59827456666E+02 -0.31518706522E+02  0.59050238726E+03  0.59436169358E+03  0.00000000000E+00 0. -1.
         22    1    3    3    0    0 -0.35811205292E+02 -0.62461493016E+02  0.59062091917E+02  0.93124707977E+02  0.00000000000E+00 0. -1.
         22    1    3    3    0    0  0.66195251621E+02 -0.28417175807E+02 -0.80309420587E+01  0.72483399812E+02  0.00000000000E+00 0. -1.
</event>
<event>
 7    1  0.7118985E-006  0.1346804E+03  0.7818608E-02  0.1278135E+00
          2   -1    0    0  502    0  0.00000000000E+00  0.00000000000E+00  0.42475226043E+04  0.42475226043E+04  0.00000000000E+00 0. -1.
          1   -1    0    0  501    0 -0.00000000000E+00 -0.00000000000E+00 -0.47459453912E+03  0.47459453912E+03  0.00000000000E+00 0. -1.
         25    2    1    2    0    0 -0.58044998391E+02 -0.69379683048E+02  0.68635285391E+03  0.70348375130E+03  0.12500554395E+03 0.  0.
          2    1    1    2  501    0  0.26735846687E+02 -0.70922583120E+02 -0.46148216305E+03  0.46766505654E+03  0.00000000000E+00 0. -1.
          1    1    1    2  502    0  0.31309151704E+02  0.14030226617E+03  0.35480573743E+04  0.35509683356E+04  0.00000000000E+00 0. -1.
         22    1    3    3    0    0 -0.69475784667E+02 -0.10593745738E+02  0.17421399341E+03  0.18785533691E+03  0.00000000000E+00 0.  1.
         22    1    3    3    0    0  0.11430786276E+02 -0.58785937310E+02  0.51213886049E+03  0.51562841439E+03  0.00000000000E+00 0.  1.
</event>
<event>
 7    1  0.7118985E-006  0.9748141E+02  0.7818608E-02  0.1297439E+00
          2   -1    0    0  502    0  0.00000000000E+00  0.00000000000E+00  0.11454547705E+04  0.11454547705E+04  0.00000000000E+00 0. -1.
          1   -1    0    0  501    0 -0.00000000000E+00 -0.00000000000E+00 -0.41444989866E+03  0.41444989866E+03  0.00000000000E+00 0. -1.
         25    2    1    2    0    0  0.33984962697E+02  0.34192817890E+02  0.24066036635E+03  0.27543757356E+03  0.12499727401E+03 0.  0.
          2    1    1    2  501    0 -0.82427935641E+02  0.52040956425E+02 -0.38826118602E+03  0.40031159649E+03  0.00000000000E+00 0. -1.
          1    1    1    2  502    0  0.48442972944E+02 -0.86233774316E+02  0.87860569153E+03  0.88415549914E+03  0.00000000000E+00 0. -1.
         22    1    3    3    0    0  0.66795653361E+02 -0.11338075375E+02  0.77729056810E+02  0.10311167506E+03  0.00000000000E+00 0. -1.
         22    1    3    3    0    0 -0.32810690663E+02  0.45530893265E+02  0.16293130954E+03  0.17232589850E+03  0.00000000000E+00 0. -1.
</event>
<event>
 7    1  0.7118985E-006  0.4424187E+02  0.7818608E-02  0.1528219E+00
          2   -1    0    0  502    0  0.00000000000E+00  0.00000000000E+00  0.62586903514E+03  0.62586903514E+03  0.00000000000E+00 0. -1.
          1   -1    0    0  501    0 -0.00000000000E+00 -0.00000000000E+00 -0.85387844970E+03  0.85387844970E+03  0.00000000000E+00 0. -1.
         25    2    1    2    0    0  0.53473080755E+02 -0.22213030372E+01  0.60248227131E+02  0.14872350538E+03  0.12499811050E+03 0.  0.
          2    1    1    2  501    0 -0.34590967567E+02  0.27591935158E+02 -0.80855576080E+03  0.80976556376E+03  0.00000000000E+00 0. -1.
          1    1    1    2  502    0 -0.18882113188E+02 -0.25370632121E+02  0.52029811911E+03  0.52125841569E+03  0.00000000000E+00 0. -1.
         22    1    3    3    0    0  0.35264792775E+02 -0.59387272021E+02  0.86812273638E+01  0.69611905563E+02  0.00000000000E+00 0.  1.
         22    1    3    3    0    0  0.18208287980E+02  0.57165968984E+02  0.51566999767E+02  0.79111599819E+02  0.00000000000E+00 0.  1.
</event>
<event>
 7    1  0.7118985E-006  0.2707807E+02  0.7818608E-02  0.1674125E+00
          2   -1    0    0  502    0  0.00000000000E+00  0.00000000000E+00  0.33846484857E+02  0.33846484857E+02  0.00000000000E+00 0. -1.
          1   -1    0    0  501    0 -0.00000000000E+00 -0.00000000000E+00 -0.11975948625E+04  0.11975948625E+04  0.00000000000E+00 0. -1.
         25    2    1    2    0    0 -0.58014170293E+01 -0.44649318498E+01 -0.28462329965E+03  0.31094794242E+03  0.12499843253E+03 0.  0.
          2    1    1    2  501    0 -0.60525960357E+01 -0.20596300552E+02 -0.89033187522E+03  0.89059064084E+03  0.00000000000E+00 0. -1.
          1    1    1    2  502    0  0.11854013065E+02  0.25061232402E+02  0.11206797246E+02  0.29902764082E+02  0.00000000000E+00 0. -1.
         22    1    3    3    0    0 -0.57822504380E+01 -0.33168314959E+02 -0.27982866136E+03  0.28184685781E+03  0.00000000000E+00 0. -1.
         22    1    3    3    0    0 -0.19166591331E-01  0.28703383109E+02 -0.47946382913E+01  0.29101084612E+02  0.00000000000E+00 0. -1.
</event>
<event>
 7    1  0.7118985E-006  0.9808327E+02  0.7818608E-02  0.1348244E+00
          2   -1    0    0  502    0  0.00000000000E+00  0.00000000000E+00  0.21837711821E+04  0.21837711821E+04  0.00000000000E+00 0. -1.
          1   -1    0    0  501    0 -0.00000000000E+00 -0.00000000000E+00 -0.45744013565E+02  0.45744013565E+02  0.00000000000E+00 0. -1.
         25    2    1    2    0    0  0.13623071047E+03 -0.21123413185E+02  0.20617815826E+03  0.27774184844E+03  0.12500438540E+03 0.  0.
          2    1    1    2  501    0 -0.40685734426E+02  0.37359928118E+02  0.79022547075E+02  0.96413983223E+02  0.00000000000E+00 0. -1.
          1    1    1    2  502    0 -0.95544976043E+02 -0.16236514933E+02  0.18528264632E+04  0.18553593640E+04  0.00000000000E+00 0. -1.
         22    1    3    3    0    0 -0.20893718630E+02 -0.67089659579E+00  0.47075563739E+01  0.21427987947E+02  0.00000000000E+00 0.  1.
         22    1    3    3    0    0  0.15712442910E+03 -0.20452516589E+02  0.20147060189E+03  0.25631386049E+03  0.00000000000E+00 0.  1.
</event>
<event>
 7    1  0.7118985E-006  0.7777205E+02  0.7818608E-02  0.1395290E+00
          2   -1    0    0  502    0  0.00000000000E+00  0.00000000000E+00  0.13871464052E+04  0.13871464052E+04  0.00000000000E+00 0. -1.
          1   -1    0    0  501    0 -0.00000000000E+00 -0.00000000000E+00 -0.27702702335E+03  0.27702702335E+03  0.00000000000E+00 0. -1.
         25    2    1    2    0    0 -0.39707473394E+02 -0.93739524290E+02  0.55456416744E+03  0.57752062534E+03  0.12499950011E+03 0.  0.
          2    1    1    2  501    0 -0.17039474195E+02  0.44054427943E+02 -0.26169793494E+03  0.26592657907E+03  0.00000000000E+00 0. -1.
          1    1    1    2  502    0  0.56746947589E+02  0.49685096347E+02  0.81725314931E+03  0.82072622410E+03  0.00000000000E+00 0. -1.
         22    1    3    3    0    0  0.39496109251E+02 -0.42670484080E+02  0.12675435567E+03  0.13945386168E+03  0.00000000000E+00 0. -1.
         22    1    3    3    0    0 -0.79203582645E+02 -0.51069040210E+02  0.42780981178E+03  0.43806676366E+03  0.00000000000E+00 0. -1.
</event>
<event>
 7    1  0.7118985E-006  0.1952508E+03  0.7818608E-02  0.1354885E+00
          2   -1    0    0  502    0  0.00000000000E+00  0.00000000000E+00  0.11042300370E+04  0.11042300370E+04  0.00000000000E+00 0. -1.
          1   -1    0    0  501    0 -0.00000000000E+00 -0.00000000000E+00 -0.19980711529E+04  0.19980711529E+04  0.00000000000E+00 0. -1.
         25    2    1    2    0    0 -0.90956470878E+02  0.17933086312E+03  0.25540779401E+03  0.34826905547E+03  0.12500222278E+03 0.  0.
          2    1    1    2  501    0 -0.18233214656E+02 -0.18846569213E+02 -0.19398114527E+04  0.19399886895E+04  0.00000000000E+00 0. -1.
          1    1    1    2  502    0  0.10918968553E+03 -0.16048429391E+03  0.79056254284E+03  0.81404344488E+03  0.00000000000E+00 0. -1.
         22    1    3    3    0    0 -0.55076479826E+02  0.17440856899E+03  0.25271075862E+03  0.31195271291E+03  0.00000000000E+00 0.  1.
         22    1    3    3    0    0 -0.35879991052E+02  0.49222941290E+01  0.26970353823E+01  0.36316342564E+02  0.00000000000E+00 0.  1.
</event>
<event>
 7    1  0.7118985E-006  0.1185080E+03  0.7818608E-02  0.1331645E+00
          2   -1    0    0  502    0  0.00000000000E+00  0.00000000000E+00  0.11164076302E+03  0.11164076302E+03  0.00000000000E+00 0. -1.
          1   -1    0    0  501    0 -0.00000000000E+00 -0.00000000000E+00 -0.44662262266E+03  0.44662262266E+03  0.00000000000E+00 0. -1.
         25    2    1    2    0    0  0.95309438637E+02 -0.10852521487E+02 -0.11654233412E+02  0.15799427994E+03  0.12499882008E+03 0.  0.
          2    1    1    2  501    0 -0.10607749208E+03  0.62530060018E+02 -0.32490708519E+03  0.34745799277E+03  0.00000000000E+00 0. -1.
          1    1    1    2  502    0  0.10768053444E+02 -0.51677538531E+02  0.15794589552E+01  0.52811112980E+02  0.00000000000E+00 0. -1.
         22    1    3    3    0    0  0.10584654761E+03  0.11698359436E+01 -0.49541267767E+02  0.11687256893E+03  0.00000000000E+00 0.  1.
         22    1    3    3    0    0 -0.10537108973E+02 -0.12022357430E+02  0.37887034355E+02  0.41121711004E+02  0.00000000000E+00 0.  1.
</event>
<event>
 7    1  0.7118985E-006  0.3839724E+02  0.7818608E-02  0.1600148E+00
          2   -1    0    0  502    0  0.00000000000E+00  0.00000000000E+00  0.12637481772E+03  0.12637481772E+03  0.00000000000E+00 0. -1.
          1   -1    0    0  501    0 -0.00000000000E+00 -0.00000000000E+00 -0.68885879956E+03  0.68885879956E+03  0.00000000000E+00 0. -1.
         25    2    1    2    0    0  0.26552009482E+01  0.49104918130E+02 -0.37253773854E+02  0.13939588106E+03  0.12500009965E+03 0.  0.
          2    1    1    2  501    0 -0.18183196466E+02 -0.14328554856E+02 -0.59547908574E+03  0.59592891998E+03  0.00000000000E+00 0. -1.
          1    1    1    2  502    0  0.15527995517E+02 -0.34776363274E+02  0.70248877757E+02  0.79908816244E+02  0.00000000000E+00 0. -1.
         22    1    3    3    0    0  0.13021491206E+02 -0.38032792117E+02  0.74945874114E+01  0.40892803155E+02  0.00000000000E+00 0. -1.
         22    1    3    3    0    0 -0.10366290258E+02  0.87137710246E+02 -0.44748361265E+02  0.98503077904E+02  0.00000000000E+00 0. -1.
</event>
<event>
 7    1  0.7118985E-006  0.5762636E+02  0.7818608E-02  0.1506663E+00
          2   -1    0    0  502    0  0.00000000000E+00  0.00000000000E+00  0.47769406069E+03  0.47769406069E+03  0.00000000000E+00 0. -1.
          1   -1    0    0  501    0 -0.00000000000E+00 -0.00000000000E+00 -0.71808292190E+02  0.71808292190E+02  0.00000000000E+00 0. -1.
         25    2    1    2    0    0  0.60666179196E+02 -0.16338580616E+02  0.10030871749E+03  0.17214697253E+03  0.12500162732E+03 0.  0.
          2    1    1    2  501    0 -0.17497670726E+02 -0.21934998534E+02 -0.27518174249E+02  0.39300923088E+02  0.00000000000E+00 0. -1.
          1    1    1    2  502    0 -0.43168508470E+02  0.38273579150E+02  0.33309522526E+03  0.33805445727E+03  0.00000000000E+00 0. -1.
         22    1    3    3    0    0 -0.32109647757E+02  0.22574201099E+02  0.26185313021E+02  0.47183626952E+02  0.00000000000E+00 0.  1.
         22    1    3    3    0    0  0.92775826953E+02 -0.38912781715E+02  0.74123404465E+02  0.12496334557E+03  0.00000000000E+00 0.  1.
</event>
<event>
 7    1  0.7118985E-006  0.9634405E+02  0.7818608E-02  0.1367016E+00
          2   -1    0    0  502    0  0.00000000000E+00  0.00000000000E+00  0.12763516668E+04  0.12763516668E+04  0.00000000000E+00 0. -1.
          1   -1    0    0  501    0 -0.00000000000E+00 -0.00000000000E+00 -0.42325787316E+03  0.42325787316E+03  0.00000000000E+00 0. -1.
         25    2    1    2    0    0  0.96523760087E+02 -0.79659957731E+02  0.36921328474E+03  0.40939617082E+03  0.12499691967E+03 0.  0.
          2    1    1    2  501    0 -0.90528593607E+02  0.32035698057E+02 -0.39678527254E+03  0.40824044964E+03  0.00000000000E+00 0. -1.
          1    1    1    2  502    0 -0.59951664798E+01  0.47624259674E+02  0.88066578149E+03  0.88197291955E+03  0.00000000000E+00 0. -1.
         22    1    3    3    0    0  0.12178160901E+03 -0.62582932785E+02  0.34252033710E+03  0.36887337271E+03  0.00000000000E+00 0.  1.
         22    1    3    3    0    0 -0.25257848918E+02 -0.17077024946E+02  0.26692947640E+02  0.40522798110E+02  0.00000000000E+00 0.  1.
</event>
<event>
 7    1  0.7118985E-006  0.9393584E+02  0.7818608E-02  0.1320769E+00
          2   -1    0    0  502    0  0.00000000000E+00  0.00000000000E+00  0.30737415845E+04  0.30737415845E+04  0.00000000000E+00 0. -1.
          1   -1    0    0  501    0 -0.00000000000E+00 -0.00000000000E+00 -0.48972082824E+03  0.48972082824E+03  0.00000000000E+00 0. -1.
         25    2    1    2    0    0 -0.73114658839E+02 -0.10452149475E+02  0.20370762144E+03  0.25015351160E+03  0.12499993426E+03 0.  0.
          2    1    1    2  501    0  0.21716503501E+02 -0.70033063452E+02 -0.46281007732E+03  0.46858233446E+03  0.00000000000E+00 0. -1.
          1    1    1    2  502    0  0.51398155338E+02  0.80485212927E+02  0.28431232121E+04  0.28447265666E+04  0.00000000000E+00 0. -1.
         22    1    3    3    0    0 -0.70230109422E+01 -0.45531172498E+02  0.15295070312E+03  0.15973831080E+03  0.00000000000E+00 0. -1.
         22    1    3    3    0    0 -0.66091647897E+02  0.35079023024E+02  0.50756918320E+02  0.90415200798E+02  0.00000000000E+00 0. -1.
</event>
<event>
 7    1  0.7118985E-006  0.5934913E+02  0.7818608E-02  0.1537816E+00
          2   -1    0    0  502    0  0.00000000000E+00  0.00000000000E+00  0.25162855665E+04  0.25162855665E+04  0.00000000000E+00 0. -1.
          1   -1    0    0  501    0 -0.00000000000E+00 -0.00000000000E+00 -0.44814209659E+03  0.44814209659E+03  0.00000000000E+00 0. -1.
         25    2    1    2    0    0  0.43994911509E+02 -0.16640653742E+02 -0.34602124529E+03  0.37090166261E+03  0.12499951016E+03 0.  0.
          2    1    1    2  501    0  0.15364892672E+02  0.15933500948E+02 -0.87957362911E+02  0.90699801927E+02  0.00000000000E+00 0. -1.
          1    1    1    2  502    0 -0.59359804182E+02  0.70715279354E+00  0.25021220781E+04  0.25028261986E+04  0.00000000000E+00 0. -1.
         22    1    3    3    0    0  0.83319485571E+02 -0.27861049826E+02 -0.18548953310E+03  0.20524312818E+03  0.00000000000E+00 0. -1.
         22    1    3    3    0    0 -0.39324574061E+02  0.11220396084E+02 -0.16053171219E+03  0.16565853444E+03  0.00000000000E+00 0. -1.
</event>
<event>
 7    1  0.7118985E-006  0.8217888E+02  0.7818608E-02  0.1412628E+00
          2   -1    0    0  502    0  0.00000000000E+00  0.00000000000E+00  0.17564926719E+04  0.17564926719E+04  0.00000000000E+00 0. -1.
          1   -1    0    0  501    0 -0.00000000000E+00 -0.00000000000E+00 -0.34435319095E+03  0.34435319095E+03  0.00000000000E+00 0. -1.
         25    2    1    2    0    0  0.53304399878E+02 -0.10034572635E+03  0.38246187672E+03  0.41810574872E+03  0.12499882450E+03 0.  0.
          2    1    1    2  501    0 -0.20539394647E+02  0.79194980015E+02 -0.32112054836E+03  0.33137911548E+03  0.00000000000E+00 0. -1.
          1    1    1    2  502    0 -0.32765005231E+02  0.21150746336E+02  0.13507981526E+04  0.13513609986E+04  0.00000000000E+00 0. -1.
         22    1    3    3    0    0 -0.18067271049E+02  0.67704163907E+01  0.59358299115E+01  0.20186601943E+02  0.00000000000E+00 0.  1.
         22    1    3    3    0    0  0.71371670927E+02 -0.10711614274E+03  0.37652604681E+03  0.39791914678E+03  0.00000000000E+00 0.  1.
</event>
<event>
 7    1  0.7118985E-006  0.1545934E+03  0.7818608E-02  0.1281119E+00
          2   -1    0    0  502    0  0.00000000000E+00  0.00000000000E+00  0.11070401467E+03  0.11070401467E+03  0.00000000000E+00 0. -1.
          1   -1    0    0  501    0 -0.00000000000E+00 -0.00000000000E+00 -0.10713413368E+04  0.10713413368E+04  0.00000000000E+00 0. -1.
         25    2    1    2    0    0  0.13284338238E+02 -0.94951752123E+02 -0.71919903286E+03  0.73624673734E+03  0.12497880024E+03 0.  0.
          2    1    1    2  501    0  0.19768129426E+01 -0.64151436480E+02 -0.27507561688E+03  0.28246399699E+03  0.00000000000E+00 0. -1.
          1    1    1    2  502    0 -0.15261151181E+02  0.15910318860E+03  0.33637327579E+02  0.16333461717E+03  0.00000000000E+00 0. -1.
         22    1    3    3    0    0  0.61968214452E+02 -0.85168399397E+02 -0.54616862453E+03  0.55623186018E+03  0.00000000000E+00 0. -1.
         22    1    3    3    0    0 -0.48683876214E+02 -0.97833527261E+01 -0.17303040833E+03  0.18001487716E+03  0.00000000000E+00 0. -1.
</event>
<event>
 7    1  0.7118985E-006  0.2338119E+03  0.7818608E-02  0.1294534E+00
          2   -1    0    0  502    0  0.00000000000E+00  0.00000000000E+00  0.20268938075E+04  0.20268938075E+04  0.00000000000E+00 0. -1.
          1   -1    0    0  501    0 -0.00000000000E+00 -0.00000000000E+00 -0.20463209512E+03  0.20463209512E+03  0.00000000000E+00 0. -1.
         25    2    1    2    0    0  0.23029289410E+03 -0.70134675895E+02  0.82086946423E+03  0.86452593279E+03  0.12499888525E+03 0.  0.
          2    1    1    2  501    0 -0.23112616402E+03  0.32734096584E+02 -0.10783887262E+03  0.25713818701E+03  0.00000000000E+00 0. -1.
          1    1    1    2  502    0  0.83326992102E+00  0.37400579311E+02  0.11092311208E+04  0.11098617829E+04  0.00000000000E+00 0. -1.
         22    1    3    3    0    0  0.17628657712E+03 -0.59355872383E+02  0.76003793552E+03  0.78246900277E+03  0.00000000000E+00 0.  1.
         22    1    3    3    0    0  0.54006316978E+02 -0.10778803512E+02  0.60831528708E+02  0.82056930016E+02  0.00000000000E+00 0.  1.
</event>
<event>
 7    1  0.7118985E-006  0.3873928E+02  0.7818608E-02  0.1558365E+00
          2   -1    0    0  502    0  0.00000000000E+00  0.00000000000E+00  0.31456418722E+04  0.31456418722E+04  0.00000000000E+00 0. -1.
          1   -1    0    0  501    0 -0.00000000000E+00 -0.00000000000E+00 -0.72196187830E+03  0.72196187830E+03  0.00000000000E+00 0. -1.
         25    2    1    2    0    0  0.89263138440E+01  0.43967556286E+02  0.21982382317E+04  0.22022464749E+04  0.12500155056E+03 0.  0.
          2    1    1    2  501    0  0.18977857772E+02 -0.33773659594E+02 -0.71920292816E+03  0.72024556302E+03  0.00000000000E+00 0. -1.
          1    1    1    2  502    0 -0.27904171616E+02 -0.10193896692E+02  0.94464469031E+03  0.94511171258E+03  0.00000000000E+00 0. -1.
         22    1    3    3    0    0  0.58763451995E+02  0.45480774294E+02  0.90426280165E+03  0.90731078389E+03  0.00000000000E+00 0.  1.
         22    1    3    3    0    0 -0.49837138151E+02 -0.15132180077E+01  0.12939754301E+04  0.12949356910E+04  0.00000000000E+00 0.  1.
</event>
<event>
 7    1  0.7118985E-006  0.3010362E+02  0.7818608E-02  0.1626286E+00
          2   -1    0    0  502    0  0.00000000000E+00  0.00000000000E+00  0.14587066841E+04  0.14587066841E+04  0.00000000000E+00 0. -1.
          1   -1    0    0  501    0 -0.00000000000E+00 -0.00000000000E+00 -0.67072368584E+03  0.67072368584E+03  0.00000000000E+00 0. -1.
         25    2    1    2    0    0  0.22655961869E+02 -0.26860520835E+02 -0.77101059574E+01  0.13006747079E+03  0.12499328396E+03 0.  0.
          2    1    1    2  501    0  0.73428183062E+01  0.24208837367E+02 -0.60140670426E+03  0.60193854231E+03  0.00000000000E+00 0. -1.
          1    1    1    2  502    0 -0.29998780176E+02  0.26516834680E+01  0.13970998085E+04  0.13974243568E+04  0.00000000000E+00 0. -1.
         22    1    3    3    0    0 -0.29304915071E+02  0.55604887539E+01 -0.48174861723E+02  0.56661401188E+02  0.00000000000E+00 0.  1.
         22    1    3    3    0    0  0.51960876941E+02 -0.32421009589E+02  0.40464755766E+02  0.73406069602E+02  0.00000000000E+00 0.  1.
</event>
<event>
 7    1  0.7118985E-006  0.4572077E+02  0.7818608E-02  0.1580501E+00
          2   -1    0    0  502    0  0.00000000000E+00  0.00000000000E+00  0.26760620779E+03  0.26760620779E+03  0.00000000000E+00 0. -1.
          1   -1    0    0  501    0 -0.00000000000E+00 -0.00000000000E+00 -0.63853566700E+03  0.63853566700E+03  0.00000000000E+00 0. -1.
         25    2    1    2    0    0  0.25345995382E+02  0.53629490721E+01  0.34119237492E+02  0.13214056227E+03  0.12500330046E+03 0.  0.
          2    1    1    2  501    0  0.21581515047E+02 -0.38040063311E+01 -0.58632931945E+03  0.58673870087E+03  0.00000000000E+00 0. -1.
          1    1    1    2  502    0 -0.46927510429E+02 -0.15589427410E+01  0.18128062275E+03  0.18726261165E+03  0.00000000000E+00 0. -1.
         22    1    3    3    0    0  0.13858672223E+02 -0.46892058964E+02  0.55993961246E+02  0.74338763009E+02  0.00000000000E+00 0.  1.
         22    1    3    3    0    0  0.11487323159E+02  0.52255008036E+02 -0.21874723754E+02  0.57801799259E+02  0.00000000000E+00 0.  1.
</event>
<event>
 7    1  0.7118985E-006  0.7847748E+02  0.7818608E-02  0.1433779E+00
          2   -1    0    0  502    0  0.00000000000E+00  0.00000000000E+00  0.10178667909E+03  0.10178667909E+03  0.00000000000E+00 0. -1.
          1   -1    0    0  501    0 -0.00000000000E+00 -0.00000000000E+00 -0.49151111124E+03  0.49151111124E+03  0.00000000000E+00 0. -1.
         25    2    1    2    0    0 -0.51683279051E+02  0.35905032598E+01 -0.94545389450E+02  0.16506624800E+03  0.12499592999E+03 0.  0.
          2    1    1    2  501    0 -0.31902078003E+02 -0.13734876326E+02 -0.33379693505E+03  0.33559914073E+03  0.00000000000E+00 0. -1.
          1    1    1    2  502    0  0.83585357055E+02  0.10144373066E+02  0.38617892351E+02  0.92632401613E+02  0.00000000000E+00 0. -1.
         22    1    3    3    0    0  0.93130495427E+01  0.50005247952E+02 -0.65885405908E+02  0.83235475768E+02  0.00000000000E+00 0. -1.
         22    1    3    3    0    0 -0.60996328594E+02 -0.46414744692E+02 -0.28659983542E+02  0.81830772228E+02  0.00000000000E+00 0. -1.
</event>
<event>
 7    1  0.7118985E-006  0.8843984E+02  0.7818608E-02  0.1412526E+00
          2   -1    0    0  502    0  0.00000000000E+00  0.00000000000E+00  0.15762384231E+03  0.15762384231E+03  0.00000000000E+00 0. -1.
          1   -1    0    0  501    0 -0.00000000000E+00 -0.00000000000E+00 -0.20348797420E+03  0.20348797420E+03  0.00000000000E+00 0. -1.
         25    2    1    2    0    0  0.71397145175E+02  0.90594374820E+02 -0.42920451119E+02  0.17542115646E+03  0.12500209567E+03 0.  0.
          2    1    1    2  501    0 -0.57829344395E+02 -0.56961393638E+02 -0.71474877309E+02  0.10815494221E+03  0.00000000000E+00 0. -1.
          1    1    1    2  502    0 -0.13567800779E+02 -0.33632981182E+02  0.68531196537E+02  0.77535717834E+02  0.00000000000E+00 0. -1.
         22    1    3    3    0    0  0.86467895390E+02  0.71975972390E+02  0.14280669451E+02  0.11340712083E+03  0.00000000000E+00 0.  1.
         22    1    3    3    0    0 -0.15070750215E+02  0.18618402430E+02 -0.57201120569E+02  0.62014035633E+02  0.00000000000E+00 0.  1.
</event>
<event>
 7    1  0.7118985E-006  0.9171166E+02  0.7818608E-02  0.1352303E+00
          2   -1    0    0  502    0  0.00000000000E+00  0.00000000000E+00  0.27205988904E+04  0.27205988904E+04  0.00000000000E+00 0. -1.
          1   -1    0    0  501    0 -0.00000000000E+00 -0.00000000000E+00 -0.26281146198E+02  0.26281146198E+02  0.00000000000E+00 0. -1.
         25    2    1    2    0    0 -0.43918881546E+02 -0.12343645888E+03  0.48101368447E+03  0.51396979378E+03  0.12500142694E+03 0.  0.
          2    1    1    2  501    0 -0.14593311104E+02  0.55166941352E+02  0.83083499545E+02  0.10079297616E+03  0.00000000000E+00 0. -1.
          1    1    1    2  502    0  0.58512192650E+02  0.68269517524E+02  0.21302205602E+04  0.21321172667E+04  0.00000000000E+00 0. -1.
         22    1    3    3    0    0 -0.94129021483E+01 -0.65348421463E+02  0.41248478107E+03  0.41773521940E+03  0.00000000000E+00 0.  1.
         22    1    3    3    0    0 -0.34505979397E+02 -0.58088037413E+02  0.68528903393E+02  0.96234574374E+02  0.00000000000E+00 0.  1.
</event>
<event>
 7    1  0.7118985E-006  0.1551068E+03  0.7818608E-02  0.1198136E+00
          2   -1    0    0  502    0  0.00000000000E+00  0.00000000000E+00  0.15620314776E+04  0.15620314776E+04  0.00000000000E+00 0. -1.
          1   -1    0    0  501    0 -0.00000000000E+00 -0.00000000000E+00 -0.42493471975E+03  0.42493471975E+03  0.00000000000E+00 0. -1.
         25    2    1    2    0    0 -0.30881706834E+02  0.24938505217E+03  0.31898308374E+03  0.42487800545E+03  0.12499811092E+03 0.  0.
          2    1    1    2  501    0 -0.66870102257E+02 -0.13720514182E+03 -0.35141566430E+03  0.38313161007E+03  0.00000000000E+00 0. -1.
          1    1    1    2  502    0  0.97751809090E+02 -0.11217991035E+03  0.11695293384E+04  0.11789565818E+04  0.00000000000E+00 0. -1.
         22    1    3    3    0    0 -0.33297080229E+01  0.11803183529E+03  0.58328815104E+02  0.13169985486E+03  0.00000000000E+00 0. -1.
         22    1    3    3    0    0 -0.27551998811E+02  0.13135321688E+03  0.26065426864E+03  0.29317815059E+03  0.00000000000E+00 0. -1.
</event>
<event>
 7    1  0.7118985E-006  0.1324809E+03  0.7818608E-02  0.1348763E+00
          2   -1    0    0  502    0  0.00000000000E+00  0.00000000000E+00  0.20438274959E+04  0.20438274959E+04  0.00000000000E+00 0. -1.
          1   -1    0    0  501    0 -0.00000000000E+00 -0.00000000000E+00 -0.50210441174E+02  0.50210441174E+02  0.00000000000E+00 0. -1.
         25    2    1    2    0    0  0.55754733835E+01 -0.10669058912E+03  0.44438383449E+03  0.47383954744E+03  0.12503182256E+03 0.  0.
          2    1    1    2  501    0 -0.32868097599E+02  0.13690182173E+03  0.10560630792E+03  0.17599747983E+03  0.00000000000E+00 0. -1.
          1    1    1    2  502    0  0.27292624216E+02 -0.30211232613E+02  0.14436269124E+04  0.14442009098E+04  0.00000000000E+00 0. -1.
         22    1    3    3    0    0 -0.21772034246E+02  0.23136099551E+02  0.83412435902E+02  0.89257688973E+02  0.00000000000E+00 0.  1.
         22    1    3    3    0    0  0.27347507629E+02 -0.12982668867E+03  0.36097139859E+03  0.38458185847E+03  0.00000000000E+00 0.  1.
</event>
<event>
 7    1  0.7118985E-006  0.2177993E+03  0.7818608E-02  0.1188162E+00
          2   -1    0    0  502    0  0.00000000000E+00  0.00000000000E+00  0.35448359142E+03  0.35448359142E+03  0.00000000000E+00 0. -1.
          1   -1    0    0  501    0 -0.00000000000E+00 -0.00000000000E+00 -0.14818942129E+04  0.14818942129E+04  0.00000000000E+00 0. -1.
         25    2    1    2    0    0  0.96571042828E+02 -0.13852481338E+03 -0.30892780810E+03  0.37359898875E+03  0.12499889417E+03 0.  0.
          2    1    1    2  501    0 -0.80083587679E+02 -0.86986962306E+02 -0.10973831589E+04  0.11037345288E+04  0.00000000000E+00 0. -1.
          1    1    1    2  502    0 -0.16487455149E+02  0.22551177569E+03  0.27890034550E+03  0.35904428678E+03  0.00000000000E+00 0. -1.
         22    1    3    3    0    0 -0.76426180574E+01 -0.58849757498E+01 -0.11975384320E+03  0.12014168932E+03  0.00000000000E+00 0. -1.
         22    1    3    3    0    0  0.10421366089E+03 -0.13263983763E+03 -0.18917396490E+03  0.25345729943E+03  0.00000000000E+00 0. -1.
</event>
<event>
 7    1  0.7118985E-006  0.1168832E+03  0.7818608E-02  0.1287581E+00
          2   -1    0    0  502    0  0.00000000000E+00  0.00000000000E+00  0.59852485491E+03  0.59852485491E+03  0.00000000000E+00 0. -1.
          1   -1    0    0  501    0 -0.00000000000E+00 -0.00000000000E+00 -0.10188169834E+03  0.10188169834E+03  0.00000000000E+00 0. -1.
         25    2    1    2    0    0  0.12097568052E+03  0.29821159872E+02  0.65386847682E+02  0.18821493658E+03  0.12500002259E+03 0.  0.
          2    1    1    2  501    0 -0.11204299747E+03  0.49537717027E+02  0.67700112146E+02  0.13996758151E+03  0.00000000000E+00 0. -1.
          1    1    1    2  502    0 -0.89326830533E+01 -0.79358876899E+02  0.36355619674E+03  0.37222403517E+03  0.00000000000E+00 0. -1.
         22    1    3    3    0    0  0.13664477787E+03 -0.34731165742E+01  0.36624334661E+02  0.14151042276E+03  0.00000000000E+00 0.  1.
         22    1    3    3    0    0 -0.15669097355E+02  0.33294276446E+02  0.28762513021E+02  0.46704513821E+02  0.00000000000E+00 0.  1.
</event>
<event>
 7    1  0.7118985E-006  0.1707250E+03  0.7818608E-02  0.1294878E+00
          2   -1    0    0  502    0  0.00000000000E+00  0.00000000000E+00  0.14148258724E+04  0.14148258724E+04  0.00000000000E+00 0. -1.
          1   -1    0    0  501    0 -0.00000000000E+00 -0.00000000000E+00 -0.25596911519E+03  0.25596911519E+03  0.00000000000E+00 0. -1.
         25    2    1    2    0    0  0.11871337524E+03 -0.68936110241E+02  0.63153238628E+03  0.65825880600E+03  0.12500579188E+03 0.  0.
          2    1    1    2  501    0 -0.16553350454E+03  0.48539832085E+02 -0.21094746753E+03  0.27250007428E+03  0.00000000000E+00 0. -1.
          1    1    1    2  502    0  0.46820129304E+02  0.20396278156E+02  0.73827183846E+03  0.74003610732E+03  0.00000000000E+00 0. -1.
         22    1    3    3    0    0  0.12269562598E+03 -0.95483952779E+02  0.57545481974E+03  0.59608694955E+03  0.00000000000E+00 0.  1.
         22    1    3    3    0    0 -0.39822507441E+01  0.26547842538E+02  0.56077566547E+02  0.62171856449E+02  0.00000000000E+00 0.  1.
</event>
<event>
 7    1  0.7118985E-006  0.1176237E+03  0.7818608E-02  0.1312144E+00
          2   -1    0    0  502    0  0.00000000000E+00  0.00000000000E+00  0.16343170528E+04  0.16343170528E+04  0.00000000000E+00 0. -1.
          1   -1    0    0  501    0 -0.00000000000E+00 -0.00000000000E+00 -0.34711472062E+02  0.34711472062E+02  0.00000000000E+00 0. -1.
         25    2    1    2    0    0  0.48263803606E+02  0.95148850863E+02  0.57893734193E+03  0.60181120610E+03  0.12500233341E+03 0.  0.
          2    1    1    2  501    0 -0.55718223990E+02  0.29985482540E+02  0.32506201635E+02  0.71135805278E+02  0.00000000000E+00 0. -1.
          1    1    1    2  502    0  0.74544203837E+01 -0.12513433340E+03  0.98816203716E+03  0.99608151347E+03  0.00000000000E+00 0. -1.
         22    1    3    3    0    0  0.18853993064E+02  0.67091679564E+01  0.53689908264E+01  0.20719846805E+02  0.00000000000E+00 0.  1.
         22    1    3    3    0    0  0.29409810542E+02  0.88439682906E+02  0.57356835110E+03  0.58109135930E+03  0.00000000000E+00 0.  1.
</event>
<event>
 7    1  0.7118985E-006  0.6092576E+02  0.7818608E-02  0.1476057E+00
          2   -1    0    0  502    0  0.00000000000E+00  0.00000000000E+00  0.17891744325E+03  0.17891744325E+03  0.00000000000E+00 0. -1.
          1   -1    0    0  501    0 -0.00000000000E+00 -0.00000000000E+00 -0.69475207231E+03  0.69475207231E+03  0.00000000000E+00 0. -1.
         25    2    1    2    0    0  0.24485932959E+02 -0.15946859716E+02 -0.15804883701E+02  0.12934198876E+03  0.12500276981E+03 0.  0.
          2    1    1    2  501    0 -0.54832337283E+02  0.28484102802E+02 -0.61840434116E+03  0.62148359471E+03  0.00000000000E+00 0. -1.
          1    1    1    2  502    0  0.30346404324E+02 -0.12537243085E+02  0.11837459580E+03  0.12284393209E+03  0.00000000000E+00 0. -1.
         22    1    3    3    0    0  0.32157902074E+02  0.48574285215E+02  0.10590878056E+02  0.59209446442E+02  0.00000000000E+00 0. -1.
         22    1    3    3    0    0 -0.76719691151E+01 -0.64521144932E+02 -0.26395761757E+02  0.70132542319E+02  0.00000000000E+00 0. -1.
</event>
<event>
 7    1  0.7118985E-006  0.1840851E+03  0.7818608E-02  0.1321783E+00
          2   -1    0    0  502    0  0.00000000000E+00  0.00000000000E+00  0.12818227414E+04  0.12818227414E+04  0.00000000000E+00 0. -1.
          1   -1    0    0  501    0 -0.00000000000E+00 -0.00000000000E+00 -0.99214642466E+02  0.99214642466E+02  0.00000000000E+00 0. -1.
         25    2    1    2    0    0  0.14060734208E+03 -0.53872062222E+02  0.56689877171E+02  0.20374199612E+03  0.12499774029E+03 0.  0.
          2    1    1    2  501    0  0.35142962817E+02 -0.11824220448E+02  0.12670483102E+01  0.37100477573E+02  0.00000000000E+00 0. -1.
          1    1    1    2  502    0 -0.17575030489E+03  0.65696282669E+02  0.11246511735E+04  0.11401949102E+04  0.00000000000E+00 0. -1.
         22    1    3    3    0    0  0.10995962757E+03  0.76383551370E+01  0.74139229885E+02  0.13283858465E+03  0.00000000000E+00 0. -1.
         22    1    3    3    0    0  0.30647714507E+02 -0.61510417359E+02 -0.17449352714E+02  0.70903411472E+02  0.00000000000E+00 0. -1.
</event>
<event>
 7    1  0.7118985E-006  0.6293190E+02  0.7818608E-02  0.1455478E+00
          2   -1    0    0  502    0  0.00000000000E+00  0.00000000000E+00  0.31680057043E+03  0.31680057043E+03  0.00000000000E+00 0. -1.
          1   -1    0    0  501    0 -0.00000000000E+00 -0.00000000000E+00 -0.42574372270E+03  0.42574372270E+03  0.00000000000E+00 0. -1.
         25    2    1    2    0    0 -0.77898885943E+02  0.34024312065E+02  0.47042654782E+02  0.15832243233E+03  0.12500836359E+03 0.  0.
          2    1    1    2  501    0  0.62530233420E+02 -0.51167464509E+00 -0.36584397403E+03  0.37114970731E+03  0.00000000000E+00 0. -1.
          1    1    1    2  502    0  0.15368652523E+02 -0.33512637420E+02  0.20985816697E+03  0.21307215349E+03  0.00000000000E+00 0. -1.
         22    1    3    3    0    0 -0.94151510615E+02  0.71061804561E+01  0.71540937517E+02  0.11846143040E+03  0.00000000000E+00 0.  1.
         22    1    3    3    0    0  0.16252624672E+02  0.26918131609E+02 -0.24498282735E+02  0.39861001932E+02  0.00000000000E+00 0.  1.
</event>
<event>
 7    1  0.7118985E-006  0.1681430E+03  0.7818608E-02  0.1272792E+00
          2   -1    0    0  502    0  0.00000000000E+00  0.00000000000E+00  0.88140912104E+03  0.88140912104E+03  0.00000000000E+00 0. -1.
          1   -1    0    0  501    0 -0.00000000000E+00 -0.00000000000E+00 -0.14331830200E+04  0.14331830200E+04  0.00000000000E+00 0. -1.
         25    2    1    2    0    0 -0.10568390011E+03 -0.11328315345E+03  0.22433482854E+03  0.29992550170E+03  0.12500812645E+03 0.  0.
          2    1    1    2  501    0  0.59731771696E+02  0.15768697780E+03 -0.13886253957E+04  0.13988257780E+04  0.00000000000E+00 0. -1.
          1    1    1    2  502    0  0.45952128411E+02 -0.44403824355E+02  0.61251666820E+03  0.61584086138E+03  0.00000000000E+00 0. -1.
         22    1    3    3    0    0  0.14368351175E+02 -0.18826002508E+02 -0.51615264055E+01  0.24238589909E+02  0.00000000000E+00 0. -1.
         22    1    3    3    0    0 -0.12005225128E+03 -0.94457150939E+02  0.22949635494E+03  0.27568691179E+03  0.00000000000E+00 0. -1.
</event>
<event>
 7    1  0.7118985E-006  0.8824452E+02  0.7818608E-02  0.1487871E+00
          2   -1    0    0  502    0  0.00000000000E+00  0.00000000000E+00  0.33881746748E+03  0.33881746748E+03  0.00000000000E+00 0. -1.
          1   -1    0    0  501    0 -0.00000000000E+00 -0.00000000000E+00 -0.74258855982E+03  0.74258855982E+03  0.00000000000E+00 0. -1.
         25    2    1    2    0    0  0.90919529368E+02 -0.36312031441E+02 -0.59655225787E+03  0.61732021513E+03  0.12499890876E+03 0.  0.
          2    1    1    2  501    0 -0.74164740133E+02  0.23887094591E+02 -0.12409252988E+03  0.14652630459E+03  0.00000000000E+00 0. -1.
          1    1    1    2  502    0 -0.16754789235E+02  0.12424936849E+02  0.31687369540E+03  0.31755950758E+03  0.00000000000E+00 0. -1.
         22    1    3    3    0    0  0.85452558483E+02 -0.72971999529E+02 -0.33959743320E+03  0.35770584158E+03  0.00000000000E+00 0. -1.
         22    1    3    3    0    0  0.54669708852E+01  0.36659968089E+02 -0.25695482467E+03  0.25961437355E+03  0.00000000000E+00 0. -1.
</event>
<event>
 7    1  0.7118985E-006  0.9489784E+02  0.7818608E-02  0.1394178E+00
          2   -1    0    0  502    0  0.00000000000E+00  0.00000000000E+00  0.51622573881E+03  0.51622573881E+03  0.00000000000E+00 0. -1.
          1   -1    0    0  501    0 -0.00000000000E+00 -0.00000000000E+00 -0.18868020827E+03  0.18868020827E+03  0.00000000000E+00 0. -1.
         25    2    1    2    0    0  0.34568717402E+02 -0.59127643857E+02  0.22755231518E+02  0.14435064129E+03  0.12501292969E+03 0.  0.
          2    1    1    2  501    0 -0.14291918232E+02 -0.36346913780E+02 -0.11922099525E+03  0.12545518235E+03  0.00000000000E+00 0. -1.
          1    1    1    2  502    0 -0.20276799170E+02  0.95474557637E+02  0.42401129427E+03  0.43510012343E+03  0.00000000000E+00 0. -1.
         22    1    3    3    0    0 -0.47065104365E+02 -0.13253822522E+02  0.86147869056E+01  0.49648790658E+02  0.00000000000E+00 0.  1.
         22    1    3    3    0    0  0.81633821767E+02 -0.45873821335E+02  0.14140444613E+02  0.94701850637E+02  0.00000000000E+00 0.  1.
</event>
<event>
 7    1  0.7118985E-006  0.2113340E+03  0.7818608E-02  0.1214717E+00
          2   -1    0    0  502    0  0.00000000000E+00  0.00000000000E+00  0.37675558832E+04  0.37675558832E+04  0.00000000000E+00 0. -1.
          1   -1    0    0  501    0 -0.00000000000E+00 -0.00000000000E+00 -0.33188190713E+03  0.33188190713E+03  0.00000000000E+00 0. -1.
         25    2    1    2    0    0 -0.16997246044E+03  0.11646445411E+03  0.50262731202E+02  0.24618341236E+03  0.12500129596E+03 0.  0.
          2    1    1    2  501    0  0.11200417676E+03 -0.18711649580E+03 -0.18238261544E+03  0.28429023378E+03  0.00000000000E+00 0. -1.
          1    1    1    2  502    0  0.57968283684E+02  0.70652041690E+02  0.35677938603E+04  0.35689641442E+04  0.00000000000E+00 0. -1.
         22    1    3    3    0    0  0.16900575989E+02  0.15548666204E+02 -0.10543365305E+02  0.25269607069E+02  0.00000000000E+00 0. -1.
         22    1    3    3    0    0 -0.18687303643E+03  0.10091578790E+03  0.60806096507E+02  0.22091380529E+03  0.00000000000E+00 0. -1.
</event>
<event>
 7    1  0.7118985E-006  0.1101951E+03  0.7818608E-02  0.1417376E+00
          2   -1    0    0  502    0  0.00000000000E+00  0.00000000000E+00  0.12423658772E+04  0.12423658772E+04  0.00000000000E+00 0. -1.
          1   -1    0    0  501    0 -0.00000000000E+00 -0.00000000000E+00 -0.29826944854E+03  0.29826944854E+03  0.00000000000E+00 0. -1.
         25    2    1    2    0    0 -0.30204443110E+02 -0.13425203604E+03  0.67175365512E+03  0.69700345400E+03  0.12499969662E+03 0.  0.
          2    1    1    2  501    0  0.21185889521E+02  0.10770910304E+03 -0.27472598808E+03  0.29584533344E+03  0.00000000000E+00 0. -1.
          1    1    1    2  502    0  0.90185535890E+01  0.26542933005E+02  0.54706876160E+03  0.54778653828E+03  0.00000000000E+00 0. -1.
         22    1    3    3    0    0  0.34894506603E+01 -0.63724243146E+02  0.54038268862E+03  0.54413822288E+03  0.00000000000E+00 0. -1.
         22    1    3    3    0    0 -0.33693893771E+02 -0.70527792899E+02  0.13137096650E+03  0.15286523113E+03  0.00000000000E+00 0. -1.
</event>
<event>
 7    1  0.7118985E-006  0.5429889E+02  0.7818608E-02  0.1497550E+00
          2   -1    0    0  502    0  0.00000000000E+00  0.00000000000E+00  0.10612421095E+04  0.10612421095E+04  0.00000000000E+00 0. -1.
          1   -1    0    0  501    0 -0.00000000000E+00 -0.00000000000E+00 -0.73425029783E+02  0.73425029783E+02  0.00000000000E+00 0. -1.
         25    2    1    2    0    0 -0.40771092206E+02  0.45391940834E+02  0.31528540020E+03  0.34460446398E+03  0.12499857104E+03 0.  0.
          2    1    1    2  501    0  0.52031914660E+02 -0.15762595651E+02 -0.45766282331E+02  0.71065689072E+02  0.00000000000E+00 0. -1.
          1    1    1    2  502    0 -0.11260822454E+02 -0.29629345183E+02  0.71829796187E+03  0.71899698626E+03  0.00000000000E+00 0. -1.
         22    1    3    3    0    0  0.10992698527E+02  0.76130820614E+02  0.14762218418E+03  0.16646035723E+03  0.00000000000E+00 0. -1.
         22    1    3    3    0    0 -0.51763790734E+02 -0.30738879780E+02  0.16766321602E+03  0.17814410674E+03  0.00000000000E+00 0. -1.
</event>
<event>
 7    1  0.7118985E-006  0.5550225E+02  0.7818608E-02  0.1503654E+00
          2   -1    0    0  502    0  0.00000000000E+00  0.00000000000E+00  0.12968649432E+03  0.12968649432E+03  0.00000000000E+00 0. -1.
          1   -1    0    0  501    0 -0.00000000000E+00 -0.00000000000E+00 -0.31061119703E+04  0.31061119703E+04  0.00000000000E+00 0. -1.
         25    2    1    2    0    0 -0.66569307579E+02 -0.28670369731E+02 -0.25378480407E+04  0.25419577791E+04  0.12499284022E+03 0.  0.
          2    1    1    2  501    0  0.27673719035E+02 -0.10884155898E+02 -0.55976775264E+03  0.56055707690E+03  0.00000000000E+00 0. -1.
          1    1    1    2  502    0  0.38895588543E+02  0.39554525629E+02  0.12119031737E+03  0.13328360863E+03  0.00000000000E+00 0. -1.
         22    1    3    3    0    0 -0.16303763688E+02  0.31284507169E+02 -0.22174683038E+03  0.22453549804E+03  0.00000000000E+00 0.  1.
         22    1    3    3    0    0 -0.50265543891E+02 -0.59954876901E+02 -0.23161012103E+04  0.23174222810E+04  0.00000000000E+00 0.  1.
</event>
<event>
 7    1  0.7118985E-006  0.5857625E+02  0.7818608E-02  0.1434263E+00
          2   -1    0    0  502    0  0.00000000000E+00  0.00000000000E+00  0.33729171757E+03  0.33729171757E+03  0.00000000000E+00 0. -1.
          1   -1    0    0  501    0 -0.00000000000E+00 -0.00000000000E+00 -0.66263823356E+03  0.66263823356E+03  0.00000000000E+00 0. -1.
         25    2    1    2    0    0 -0.14676827622E+02 -0.88691407195E+01 -0.19683199725E+03  0.23379867095E+03  0.12499964987E+03 0.  0.
          2    1    1    2  501    0 -0.44265671669E+02  0.13791281111E+02 -0.44336024255E+03  0.44577791982E+03  0.00000000000E+00 0. -1.
          1    1    1    2  502    0  0.58942499291E+02 -0.49221403912E+01  0.31484572381E+03  0.32035336036E+03  0.00000000000E+00 0. -1.
         22    1    3    3    0    0 -0.46413991719E+02  0.39440361671E+02 -0.14028541365E+03  0.15293723562E+03  0.00000000000E+00 0. -1.
         22    1    3    3    0    0  0.31737164098E+02 -0.48309502391E+02 -0.56546583608E+02  0.80861435332E+02  0.00000000000E+00 0. -1.
</event>
<event>
 7    1  0.7118985E-006  0.8763056E+02  0.7818608E-02  0.1356483E+00
          2   -1    0    0  502    0  0.00000000000E+00  0.00000000000E+00  0.55337657194E+03  0.55337657194E+03  0.00000000000E+00 0. -1.
          1   -1    0    0  501    0 -0.00000000000E+00 -0.00000000000E+00 -0.15303313790E+04  0.15303313790E+04  0.00000000000E+00 0. -1.
         25    2    1    2    0    0  0.10759407587E+03  0.17082453904E+01 -0.21832300783E+02  0.16637112615E+03  0.12499319579E+03 0.  0.
          2    1    1    2  501    0 -0.34440091948E+02  0.46223843040E+02 -0.14316701968E+04  0.14328301769E+04  0.00000000000E+00 0. -1.
          1    1    1    2  502    0 -0.73153983919E+02 -0.47932088431E+02  0.47654769052E+03  0.48450664784E+03  0.00000000000E+00 0. -1.
         22    1    3    3    0    0 -0.57194618896E+01  0.15688916578E+02 -0.46635670055E+02  0.49535240680E+02  0.00000000000E+00 0. -1.
         22    1    3    3    0    0  0.11331353776E+03 -0.13980671188E+02  0.24803369272E+02  0.11683588547E+03  0.00000000000E+00 0. -1.
</event>
<event>
 7    1  0.7118985E-006  0.9162721E+02  0.7818608E-02  0.1349638E+00
          2   -1    0    0  502    0  0.00000000000E+00  0.00000000000E+00  0.76502161413E+03  0.76502161413E+03  0.00000000000E+00 0. -1.
          1   -1    0    0  501    0 -0.00000000000E+00 -0.00000000000E+00 -0.54959097933E+03  0.54959097933E+03  0.00000000000E+00 0. -1.
         25    2    1    2    0    0  0.12702548772E+03 -0.55631313674E+01 -0.31241860739E+03  0.35971715815E+03  0.12499849864E+03 0.  0.
          2    1    1    2  501    0 -0.77558306474E+02 -0.25532131177E+02 -0.20451063355E+03  0.22020849180E+03  0.00000000000E+00 0. -1.
          1    1    1    2  502    0 -0.49467181251E+02  0.31095262544E+02  0.73235987574E+03  0.73468694351E+03  0.00000000000E+00 0. -1.
         22    1    3    3    0    0  0.15085263525E+03 -0.94285429500E+01 -0.24248487330E+03  0.28573471746E+03  0.00000000000E+00 0.  1.
         22    1    3    3    0    0 -0.23827147529E+02  0.38654115826E+01 -0.69933734090E+02  0.73982440686E+02  0.00000000000E+00 0.  1.
</event>
<event>
 7    1  0.7118985E-006  0.4973877E+02  0.7818608E-02  0.1449380E+00
          2   -1    0    0  502    0  0.00000000000E+00  0.00000000000E+00  0.23340102250E+03  0.23340102250E+03  0.00000000000E+00 0. -1.
          1   -1    0    0  501    0 -0.00000000000E+00 -0.00000000000E+00 -0.12498486710E+04  0.12498486710E+04  0.00000000000E+00 0. -1.
         25    2    1    2    0    0  0.39825689271E+01  0.21039702179E+02 -0.16336064813E+03  0.20679719045E+03  0.12497938508E+03 0.  0.
          2    1    1    2  501    0  0.45747423716E+02 -0.20105457534E+02 -0.10612519464E+04  0.10624277622E+04  0.00000000000E+00 0. -1.
          1    1    1    2  502    0 -0.49729992643E+02 -0.93424464535E+00  0.20816494597E+03  0.21402474089E+03  0.00000000000E+00 0. -1.
         22    1    3    3    0    0 -0.40598740532E+02 -0.34935355265E+02 -0.53629887286E+02  0.75795129069E+02  0.00000000000E+00 0. -1.
         22    1    3    3    0    0  0.44581309459E+02  0.55975057444E+02 -0.10973076085E+03  0.13100206138E+03  0.00000000000E+00 0. -1.
</event>
<event>
 7    1  0.7118985E-006  0.3133644E+02  0.7818608E-02  0.1618298E+00
          2   -1    0    0  502    0  0.00000000000E+00  0.00000000000E+00  0.51715042162E+03  0.51715042162E+03  0.00000000000E+00 0. -1.
          1   -1    0    0  501    0 -0.00000000000E+00 -0.00000000000E+00 -0.14286617060E+04  0.14286617060E+04  0.00000000000E+00 0. -1.
         25    2    1    2    0    0  0.25579904763E+02  0.48192434720E+02  0.11962237444E+03  0.18141471218E+03  0.12499977214E+03 0.  0.
          2    1    1    2  501    0 -0.17655532487E+02 -0.18350231887E+02 -0.13969992229E+04  0.13972312900E+04  0.00000000000E+00 0. -1.
          1    1    1    2  502    0 -0.79243722758E+01 -0.29842202833E+02  0.36586556407E+03  0.36716612551E+03  0.00000000000E+00 0. -1.
         22    1    3    3    0    0  0.32400213266E+02 -0.29503097616E+02  0.69299608636E+01  0.44364748914E+02  0.00000000000E+00 0. -1.
         22    1    3    3    0    0 -0.68203085032E+01  0.77695532336E+02  0.11269241357E+03  0.13704996326E+03  0.00000000000E+00 0. -1.
</event>
<event>
 7    1  0.7118985E-006  0.5381613E+02  0.7818608E-02  0.1433554E+00
          2   -1    0    0  502    0  0.00000000000E+00  0.00000000000E+00  0.70856529617E+03  0.70856529617E+03  0.00000000000E+00 0. -1.
          1   -1    0    0  501    0 -0.00000000000E+00 -0.00000000000E+00 -0.16746238293E+04  0.16746238293E+04  0.00000000000E+00 0. -1.
         25    2    1    2    0    0  0.34554143997E+02 -0.12726049441E+02 -0.10315855479E+03  0.16620226949E+03  0.12500226299E+03 0.  0.
          2    1    1    2  501    0  0.41392690177E+01  0.50566393721E+02 -0.15384429999E+04  0.15392793631E+04  0.00000000000E+00 0. -1.
          1    1    1    2  502    0 -0.38693413015E+02 -0.37840344280E+02  0.67554302159E+03  0.67770749286E+03  0.00000000000E+00 0. -1.
         22    1    3    3    0    0  0.65227748935E+02 -0.49891960827E+02 -0.64455377024E+02  0.10439522314E+03  0.00000000000E+00 0.  1.
         22    1    3    3    0    0 -0.30673604938E+02  0.37165911386E+02 -0.38703177769E+02  0.61807046350E+02  0.00000000000E+00 0.  1.
</event>
<event>
 7    1  0.7118985E-006  0.5861700E+02  0.7818608E-02  0.1495962E+00
          2   -1    0    0  502    0  0.00000000000E+00  0.00000000000E+00  0.36614484962E+03  0.36614484962E+03  0.00000000000E+00 0. -1.
          1   -1    0    0  501    0 -0.00000000000E+00 -0.00000000000E+00 -0.65987402450E+03  0.65987402450E+03  0.00000000000E+00 0. -1.
         25    2    1    2    0    0  0.17373939263E+01 -0.35985472987E+02 -0.13149957941E+03  0.18497178386E+03  0.12499779452E+03 0.  0.
          2    1    1    2  501    0  0.24361089115E+02 -0.16963861946E+02 -0.49862677057E+03  0.49950965116E+03  0.00000000000E+00 0. -1.
          1    1    1    2  502    0 -0.26098483042E+02  0.52949334933E+02  0.33639717511E+03  0.34153743910E+03  0.00000000000E+00 0. -1.
         22    1    3    3    0    0  0.17614557275E+02 -0.77934036534E+02 -0.10797958744E+03  0.13432638602E+03  0.00000000000E+00 0.  1.
         22    1    3    3    0    0 -0.15877163348E+02  0.41948563548E+02 -0.23519991970E+02  0.50645397836E+02  0.00000000000E+00 0.  1.
</event>
<event>
 7    1  0.7118985E-006  0.6787365E+02  0.7818608E-02  0.1374768E+00
          2   -1    0    0  502    0  0.00000000000E+00  0.00000000000E+00  0.17801757979E+04  0.17801757979E+04  0.00000000000E+00 0. -1.
          1   -1    0    0  501    0 -0.00000000000E+00 -0.00000000000E+00 -0.92395815882E+03  0.92395815882E+03  0.00000000000E+00 0. -1.
         25    2    1    2    0    0  0.84570935551E+02  0.72018721710E+02  0.25673168685E+03  0.30639092023E+03  0.12500119021E+03 0.  0.
          2    1    1    2  501    0 -0.18421233619E+02 -0.61191999970E+02 -0.89724201031E+03  0.89951488469E+03  0.00000000000E+00 0. -1.
          1    1    1    2  502    0 -0.66149701932E+02 -0.10826721740E+02  0.14967279626E+04  0.14982281518E+04  0.00000000000E+00 0. -1.
         22    1    3    3    0    0  0.28650927620E+02  0.28154318011E+02  0.22500005113E+03  0.22855757324E+03  0.00000000000E+00 0. -1.
         22    1    3    3    0    0  0.55920007931E+02  0.43864403699E+02  0.31731635714E+02  0.77833346992E+02  0.00000000000E+00 0. -1.
</event>
<event>
 7    1  0.7118985E-006  0.4973743E+02  0.7818608E-02  0.1570767E+00
          2   -1    0    0  502    0  0.00000000000E+00  0.00000000000E+00  0.26145597954E+03  0.26145597954E+03  0.00000000000E+00 0. -1.
          1   -1    0    0  501    0 -0.00000000000E+00 -0.00000000000E+00 -0.24879678740E+03  0.24879678740E+03  0.00000000000E+00 0. -1.
         25    2    1    2    0    0 -0.67078870492E+02  0.10990915523E+02 -0.15310369402E+02  0.14311198108E+03  0.12500502641E+03 0.  0.
          2    1    1    2  501    0  0.20757196612E+02  0.52038303938E+01 -0.16584027783E+03  0.16721524696E+03  0.00000000000E+00 0. -1.
          1    1    1    2  502    0  0.46321673881E+02 -0.16194745917E+02  0.19380983938E+03  0.19992553891E+03  0.00000000000E+00 0. -1.
         22    1    3    3    0    0 -0.96869928131E+02  0.32793981169E+02  0.21075362075E+01  0.10229208125E+03  0.00000000000E+00 0. -1.
         22    1    3    3    0    0  0.29791057639E+02 -0.21803065646E+02 -0.17417905609E+02  0.40819899836E+02  0.00000000000E+00 0. -1.
</event>
<event>
 7    1  0.7118985E-006  0.6364086E+02  0.7818608E-02  0.1451062E+00
          2   -1    0    0  502    0  0.00000000000E+00  0.00000000000E+00  0.48362769409E+03  0.48362769409E+03  0.00000000000E+00 0. -1.
          1   -1    0    0  501    0 -0.00000000000E+00 -0.00000000000E+00 -0.24275148797E+03  0.24275148797E+03  0.00000000000E+00 0. -1.
         25    2    1    2    0    0  0.24846946936E+02  0.18417729309E+02  0.30947315141E+02  0.13244864617E+03  0.12501329543E+03 0.  0.
          2    1    1    2  501    0 -0.62364875991E+02 -0.21661019016E+02 -0.18540428539E+03  0.19680784167E+03  0.00000000000E+00 0. -1.
          1    1    1    2  502    0  0.37517929055E+02  0.32432897076E+01  0.39533317636E+03  0.39712269422E+03  0.00000000000E+00 0. -1.
         22    1    3    3    0    0  0.58521493229E+01 -0.53782990331E+02  0.11730618522E+02  0.55357611144E+02  0.00000000000E+00 0.  1.
         22    1    3    3    0    0  0.18994797613E+02  0.72200719640E+02  0.19216696619E+02  0.77091035029E+02  0.00000000000E+00 0.  1.
</event>
<event>
 7    1  0.7118985E-006  0.8592843E+02  0.7818608E-02  0.1323994E+00
          2   -1    0    0  502    0  0.00000000000E+00  0.00000000000E+00  0.55590686509E+03  0.55590686509E+03  0.00000000000E+00 0. -1.
          1   -1    0    0  501    0 -0.00000000000E+00 -0.00000000000E+00 -0.17523677128E+04  0.17523677128E+04  0.00000000000E+00 0. -1.
         25    2    1    2    0    0 -0.30245288029E+02 -0.25093153229E+02 -0.10158217554E+03  0.16579651086E+03  0.12500040335E+03 0.  0.
          2    1    1    2  501    0  0.48781409936E+02 -0.60719477195E+02 -0.16140540763E+04  0.16159322517E+04  0.00000000000E+00 0. -1.
          1    1    1    2  502    0 -0.18536121908E+02  0.85812630424E+02  0.51917540414E+03  0.52654581531E+03  0.00000000000E+00 0. -1.
         22    1    3    3    0    0 -0.19758071627E+02  0.22343703614E+02  0.19293765920E+02  0.35522836162E+02  0.00000000000E+00 0. -1.
         22    1    3    3    0    0 -0.10487216402E+02 -0.47436856843E+02 -0.12087594146E+03  0.13027367469E+03  0.00000000000E+00 0. -1.
</event>
<event>
 7    1  0.7118985E-006  0.3641690E+02  0.7818608E-02  0.1545266E+00
          2   -1    0    0  502    0  0.00000000000E+00  0.00000000000E+00  0.33550460383E+04  0.33550460383E+04  0.00000000000E+00 0. -1.
          1   -1    0    0  501    0 -0.00000000000E+00 -0.00000000000E+00 -0.16358191470E+03  0.16358191470E+03  0.00000000000E+00 0. -1.
         25    2    1    2    0    0  0.74078418327E+01 -0.68992648992E+02  0.80760474708E+03  0.82016212280E+03  0.12500247370E+03 0.  0.
          2    1    1    2  501    0 -0.87111972757E+01  0.33247242550E+02 -0.15529839047E+03  0.15905613531E+03  0.00000000000E+00 0. -1.
          1    1    1    2  502    0  0.13033554431E+01  0.35745406442E+02  0.25391577670E+04  0.25394096949E+04  0.00000000000E+00 0. -1.
         22    1    3    3    0    0  0.32945474879E+02 -0.87707826220E+02  0.73509142989E+03  0.74103810792E+03  0.00000000000E+00 0. -1.
         22    1    3    3    0    0 -0.25537633047E+02  0.18715177228E+02  0.72513317191E+02  0.79124014877E+02  0.00000000000E+00 0. -1.
</event>
<event>
 7    1  0.7118985E-006  0.1434523E+03  0.7818608E-02  0.1275466E+00
          2   -1    0    0  502    0  0.00000000000E+00  0.00000000000E+00  0.77649033965E+03  0.77649033965E+03  0.00000000000E+00 0. -1.
          1   -1    0    0  501    0 -0.00000000000E+00 -0.00000000000E+00 -0.98299707621E+03  0.98299707621E+03  0.00000000000E+00 0. -1.
         25    2    1    2    0    0  0.16347013393E+03  0.12604552673E+03  0.11320895016E+03  0.26655336131E+03  0.12499787411E+03 0.  0.
          2    1    1    2  501    0 -0.67192103454E+02 -0.28533846581E+02 -0.89681875479E+03  0.89978488436E+03  0.00000000000E+00 0. -1.
          1    1    1    2  502    0 -0.96278030479E+02 -0.97511680151E+02  0.57710306807E+03  0.59314917019E+03  0.00000000000E+00 0. -1.
         22    1    3    3    0    0  0.77637805164E+02  0.49672582527E+02 -0.16114243840E+02  0.93566356668E+02  0.00000000000E+00 0.  1.
         22    1    3    3    0    0  0.85832328769E+02  0.76372944205E+02  0.12932319400E+03  0.17298700464E+03  0.00000000000E+00 0.  1.
</event>
<event>
 7    1  0.7118985E-006  0.7224133E+02  0.7818608E-02  0.1364009E+00
          2   -1    0    0  502    0  0.00000000000E+00  0.00000000000E+00  0.11592358546E+03  0.11592358546E+03  0.00000000000E+00 0. -1.
          1   -1    0    0  501    0 -0.00000000000E+00 -0.00000000000E+00 -0.82057054015E+03  0.82057054015E+03  0.00000000000E+00 0. -1.
         25    2    1    2    0    0  0.41507649766E+02  0.62603260281E+02 -0.26384151033E+03  0.30146351640E+03  0.12500342381E+03 0.  0.
          2    1    1    2  501    0  0.31819251093E+02 -0.57410967031E+02 -0.52164914242E+03  0.52576260010E+03  0.00000000000E+00 0. -1.
          1    1    1    2  502    0 -0.73326900859E+02 -0.51922932507E+01  0.80843698056E+02  0.10926800911E+03  0.00000000000E+00 0. -1.
         22    1    3    3    0    0  0.44188293919E+02  0.98516703279E+02 -0.21699978718E+03  0.24237791521E+03  0.00000000000E+00 0. -1.
         22    1    3    3    0    0 -0.26806441530E+01 -0.35913442998E+02 -0.46841723146E+02  0.59085601193E+02  0.00000000000E+00 0. -1.
</event>
<event>
 7    1  0.7118985E-006  0.1749215E+03  0.7818608E-02  0.1349153E+00
          2   -1    0    0  502    0  0.00000000000E+00  0.00000000000E+00  0.60914986643E+03  0.60914986643E+03  0.00000000000E+00 0. -1.
          1   -1    0    0  501    0 -0.00000000000E+00 -0.00000000000E+00 -0.17934892216E+03  0.17934892216E+03  0.00000000000E+00 0. -1.
         25    2    1    2    0    0  0.75759556075E+02 -0.12795201109E+03  0.80624622217E+01  0.19442568682E+03  0.12500046768E+03 0.  0.
          2    1    1    2  501    0  0.16720409003E+02 -0.25786619429E+02 -0.66855356524E+02  0.73580979300E+02  0.00000000000E+00 0. -1.
          1    1    1    2  502    0 -0.92479965077E+02  0.15373863052E+03  0.48859383857E+03  0.52049212246E+03  0.00000000000E+00 0. -1.
         22    1    3    3    0    0  0.85197572686E+02 -0.12772223671E+03 -0.28943174405E+02  0.15623477042E+03  0.00000000000E+00 0.  1.
         22    1    3    3    0    0 -0.94380166109E+01 -0.22977438102E+00  0.37005636626E+02  0.38190916406E+02  0.00000000000E+00 0.  1.
</event>
<event>
 7    1  0.7118985E-006  0.1555381E+03  0.7818608E-02  0.1235210E+00
          2   -1    0    0  502    0  0.00000000000E+00  0.00000000000E+00  0.15183505300E+04  0.15183505300E+04  0.00000000000E+00 0. -1.
          1   -1    0    0  501    0 -0.00000000000E+00 -0.00000000000E+00 -0.26776141217E+04  0.26776141217E+04  0.00000000000E+00 0. -1.
         25    2    1    2    0    0  0.20091708627E+03  0.11711592625E+02  0.22559361884E+03  0.32714393784E+03  0.12500335296E+03 0.  0.
          2    1    1    2  501    0 -0.71396709109E+02  0.70464702974E+02 -0.26211398077E+04  0.26230586452E+04  0.00000000000E+00 0. -1.
          1    1    1    2  502    0 -0.12952037716E+03 -0.82176295599E+02  0.12362825972E+04  0.12457620687E+04  0.00000000000E+00 0. -1.
         22    1    3    3    0    0  0.20595337476E+03  0.34920443012E+02  0.18004633711E+03  0.27577692692E+03  0.00000000000E+00 0. -1.
         22    1    3    3    0    0 -0.50362884962E+01 -0.23208850388E+02  0.45547281728E+02  0.51367010921E+02  0.00000000000E+00 0. -1.
</event>
<event>
 7    1  0.7118985E-006  0.1228335E+03  0.7818608E-02  0.1322230E+00
          2   -1    0    0  502    0  0.00000000000E+00  0.00000000000E+00  0.38425910166E+03  0.38425910166E+03  0.00000000000E+00 0. -1.
          1   -1    0    0  501    0 -0.00000000000E+00 -0.00000000000E+00 -0.36199332901E+03  0.36199332901E+03  0.00000000000E+00 0. -1.
         25    2    1    2    0    0  0.12137468434E+03 -0.11914952487E+03  0.59165412930E+02  0.21921228133E+03  0.12500021970E+03 0.  0.
          2    1    1    2  501    0 -0.37863570146E+02  0.40369871273E+02 -0.26551228298E+03  0.27121974276E+03  0.00000000000E+00 0. -1.
          1    1    1    2  502    0 -0.83511114192E+02  0.78779653600E+02  0.22861264270E+03  0.25582040657E+03  0.00000000000E+00 0. -1.
         22    1    3    3    0    0  0.38816712580E+02 -0.33879523507E+02  0.83442183843E+02  0.98067106274E+02  0.00000000000E+00 0. -1.
         22    1    3    3    0    0  0.82557971758E+02 -0.85270001366E+02 -0.24276770913E+02  0.12114517506E+03  0.00000000000E+00 0. -1.
</event>
<event>
 7    1  0.7118985E-006  0.8341558E+02  0.7818608E-02  0.1470216E+00
          2   -1    0    0  502    0  0.00000000000E+00  0.00000000000E+00  0.11125608097E+04  0.11125608097E+04  0.00000000000E+00 0. -1.
          1   -1    0    0  501    0 -0.00000000000E+00 -0.00000000000E+00 -0.17469702491E+03  0.17469702491E+03  0.00000000000E+00 0. -1.
         25    2    1    2    0    0  0.32629222678E+02 -0.51575704630E+02  0.23999622508E+03  0.27739472014E+03  0.12499969289E+03 0.  0.
          2    1    1    2  501    0  0.12351510660E+02 -0.21737674991E+02 -0.15281325260E+03  0.15484500799E+03  0.00000000000E+00 0. -1.
          1    1    1    2  502    0 -0.44980733337E+02  0.73313379620E+02  0.85068081227E+03  0.85501810646E+03  0.00000000000E+00 0. -1.
         22    1    3    3    0    0 -0.77549080594E+01  0.29712433905E+02  0.13798966569E+02  0.33665691823E+02  0.00000000000E+00 0. -1.
         22    1    3    3    0    0  0.40384130737E+02 -0.81288138535E+02  0.22619725852E+03  0.24372902831E+03  0.00000000000E+00 0. -1.
</event>
<event>
 7    1  0.7118985E-006  0.1271501E+03  0.7818608E-02  0.1258094E+00
          2   -1    0    0  502    0  0.00000000000E+00  0.00000000000E+00  0.19029226702E+04  0.19029226702E+04  0.00000000000E+00 0. -1.
          1   -1    0    0  501    0 -0.00000000000E+00 -0.00000000000E+00 -0.19096273703E+04  0.19096273703E+04  0.00000000000E+00 0. -1.
         25    2    1    2    0    0  0.93434113110E+02  0.19903483018E+03  0.18304665332E+02  0.25358237890E+03  0.12499665996E+03 0.  0.
          2    1    1    2  501    0 -0.70011775649E+02 -0.10438034940E+03 -0.17884361065E+04  0.17928470690E+04  0.00000000000E+00 0. -1.
          1    1    1    2  502    0 -0.23422337462E+02 -0.94654480779E+02  0.17634267411E+04  0.17661205926E+04  0.00000000000E+00 0. -1.
         22    1    3    3    0    0  0.32931720182E+02  0.18168893759E+03 -0.92374157286E+01  0.18488022632E+03  0.00000000000E+00 0. -1.
         22    1    3    3    0    0  0.60502392929E+02  0.17345892589E+02  0.27542081060E+02  0.68702152579E+02  0.00000000000E+00 0. -1.
</event>
<event>
 7    1  0.7118985E-006  0.2227788E+03  0.7818608E-02  0.1200571E+00
          2   -1    0    0  502    0  0.00000000000E+00  0.00000000000E+00  0.15177208875E+04  0.15177208875E+04  0.00000000000E+00 0. -1.
          1   -1    0    0  501    0 -0.00000000000E+00 -0.00000000000E+00 -0.82432819888E+03  0.82432819888E+03  0.00000000000E+00 0. -1.
         25    2    1    2    0    0  0.18804382623E+03  0.44756626936E+02  0.62894652911E+03  0.66974820160E+03  0.12500112328E+03 0.  0.
          2    1    1    2  501    0  0.67071450587E+02 -0.75366325994E+02 -0.78160687882E+03  0.78809134978E+03  0.00000000000E+00 0. -1.
          1    1    1    2  502    0 -0.25511527682E+03  0.30609699058E+02  0.84605303831E+03  0.88420953499E+03  0.00000000000E+00 0. -1.
         22    1    3    3    0    0  0.16118498468E+03  0.58741434148E+02  0.35656898828E+03  0.39569255587E+03  0.00000000000E+00 0. -1.
         22    1    3    3    0    0  0.26858841557E+02 -0.13984807212E+02  0.27237754084E+03  0.27405564573E+03  0.00000000000E+00 0. -1.
</event>
<event>
 7    1  0.8329716E-006  0.8027870E+02  0.7818608E-02  0.1469836E+00
          2   -1    0    0  502    0  0.00000000000E+00  0.00000000000E+00  0.86007289385E+03  0.86007289385E+03  0.00000000000E+00 0. -1.
          1   -1    0    0  501    0 -0.00000000000E+00 -0.00000000000E+00 -0.12691404740E+04  0.12691404740E+04  0.00000000000E+00 0. -1.
         25    2    1    2    0    0  0.74803273964E+02  0.20959004816E+02 -0.73722060591E+03  0.75176671953E+03  0.12499667650E+03 0.  0.
          2    1    1    2  501    0  0.53646081286E+01 -0.25491089581E+02 -0.52243149697E+03  0.52308053270E+03  0.00000000000E+00 0. -1.
          1    1    1    2  502    0 -0.80167882092E+02  0.45320847654E+01  0.85058452276E+03  0.85436611559E+03  0.00000000000E+00 0. -1.
         22    1    3    3    0    0  0.10929559579E+02 -0.10441572509E+02 -0.47474004114E+01  0.15843595543E+02  0.00000000000E+00 0.  1.
         22    1    3    3    0    0  0.63873714384E+02  0.31400577324E+02 -0.73247320549E+03  0.73592312398E+03  0.00000000000E+00 0.  1.
</event>
<event>
 7    1  0.7118985E-006  0.1778099E+03  0.7818608E-02  0.1214943E+00
          2   -1    0    0  502    0  0.00000000000E+00  0.00000000000E+00  0.68092997464E+03  0.68092997464E+03  0.00000000000E+00 0. -1.
          1   -1    0    0  501    0 -0.00000000000E+00 -0.00000000000E+00 -0.37278229539E+03  0.37278229539E+03  0.00000000000E+00 0. -1.
         25    2    1    2    0    0 -0.77417339113E+02 -0.90366140982E+02  0.19740917149E+03  0.26221287708E+03  0.12500291230E+03 0.  0.
          2    1    1    2  501    0  0.17897226720E+03  0.52570591473E+02 -0.30738894185E+03  0.35955903700E+03  0.00000000000E+00 0. -1.
          1    1    1    2  502    0 -0.10155492809E+03  0.37795549509E+02  0.41812744961E+03  0.43194035596E+03  0.00000000000E+00 0. -1.
         22    1    3    3    0    0 -0.46984128858E+02 -0.73164418535E+02  0.31219332985E+02  0.92386077178E+02  0.00000000000E+00 0.  1.
         22    1    3    3    0    0 -0.30433210255E+02 -0.17201722447E+02  0.16618983850E+03  0.16982679990E+03  0.00000000000E+00 0.  1.
</event>
<event>
 7    1  0.7118985E-006  0.1550199E+03  0.7818608E-02  0.1382745E+00
          2   -1    0    0  502    0  0.00000000000E+00  0.00000000000E+00  0.95428750000E+02  0.95428750000E+02  0.00000000000E+00 0. -1.
          1   -1    0    0  501    0 -0.00000000000E+00 -0.00000000000E+00 -0.97825258119E+03  0.97825258119E+03  0.00000000000E+00 0. -1.
         25    2    1    2    0    0  0.37356802751E+02  0.14399501702E+03 -0.13693812890E+03  0.23771193720E+03  0.12499927321E+03 0.  0.
          2    1    1    2  501    0 -0.13870158067E+02 -0.15563867481E+03 -0.77855641284E+03  0.79408177561E+03  0.00000000000E+00 0. -1.
          1    1    1    2  502    0 -0.23486644684E+02  0.11643657789E+02  0.32670710552E+02  0.41887618375E+02  0.00000000000E+00 0. -1.
         22    1    3    3    0    0  0.19951066878E+02  0.16090515626E+03 -0.91434923748E+02  0.18614204163E+03  0.00000000000E+00 0. -1.
         22    1    3    3    0    0  0.17405735873E+02 -0.16910139240E+02 -0.45503205149E+02  0.51569895571E+02  0.00000000000E+00 0. -1.
</event>
<event>
 7    1  0.7118985E-006  0.7535249E+02  0.7818608E-02  0.1472793E+00
          2   -1    0    0  502    0  0.00000000000E+00  0.00000000000E+00  0.14867938852E+03  0.14867938852E+03  0.00000000000E+00 0. -1.
          1   -1    0    0  501    0 -0.00000000000E+00 -0.00000000000E+00 -0.23600055799E+04  0.23600055799E+04  0.00000000000E+00 0. -1.
         25    2    1    2    0    0 -0.40062499487E+02  0.39637950386E+02 -0.95710051194E+03  0.96687260013E+03  0.12500025578E+03 0.  0.
          2    1    1    2  501    0  0.44652039309E+02 -0.66419574116E+02 -0.13955785634E+04  0.13978715574E+04  0.00000000000E+00 0. -1.
          1    1    1    2  502    0 -0.45895398222E+01  0.26781623730E+02  0.14135288394E+03  0.14394081090E+03  0.00000000000E+00 0. -1.
         22    1    3    3    0    0  0.57258978157E+01 -0.42587424286E+02 -0.29037480661E+03  0.29353705546E+03  0.00000000000E+00 0. -1.
         22    1    3    3    0    0 -0.45788397302E+02  0.82225374672E+02 -0.66672570533E+03  0.67333554467E+03  0.00000000000E+00 0. -1.
</event>
<event>
 7    1  0.7118985E-006  0.7854187E+02  0.7818608E-02  0.1372848E+00
          2   -1    0    0  502    0  0.00000000000E+00  0.00000000000E+00  0.80597254798E+02  0.80597254798E+02  0.00000000000E+00 0. -1.
          1   -1    0    0  501    0 -0.00000000000E+00 -0.00000000000E+00 -0.12538101681E+04  0.12538101681E+04  0.00000000000E+00 0. -1.
         25    2    1    2    0    0 -0.78917474803E+02 -0.90841670290E+02 -0.78569754075E+02  0.19046797911E+03  0.12499867168E+03 0.  0.
          2    1    1    2  501    0  0.31519968051E+02  0.46413177813E+02 -0.10744427801E+04  0.10759065848E+04  0.00000000000E+00 0. -1.
          1    1    1    2  502    0  0.47397506752E+02  0.44428492477E+02 -0.20200379154E+02  0.68032859032E+02  0.00000000000E+00 0. -1.
         22    1    3    3    0    0 -0.13229070942E+02 -0.41048689782E+02  0.31175102598E+02  0.53215507822E+02  0.00000000000E+00 0. -1.
         22    1    3    3    0    0 -0.65688403861E+02 -0.49792980508E+02 -0.10974485667E+03  0.13725247129E+03  0.00000000000E+00 0. -1.
</event>
<event>
 7    1  0.7118985E-006  0.4626618E+02  0.7818608E-02  0.1491208E+00
          2   -1    0    0  502    0  0.00000000000E+00  0.00000000000E+00  0.34369897534E+02  0.34369897534E+02  0.00000000000E+00 0. -1.
          1   -1    0    0  501    0 -0.00000000000E+00 -0.00000000000E+00 -0.14228542470E+04  0.14228542470E+04  0.00000000000E+00 0. -1.
         25    2    1    2    0    0  0.36784218369E+02 -0.89333029699E+01 -0.96595451111E+02  0.16244838287E+03  0.12500365314E+03 0.  0.
          2    1    1    2  501    0 -0.35927173270E+02 -0.29927683303E+02 -0.79102972945E+03  0.79241053809E+03  0.00000000000E+00 0. -1.
          1    1    1    2  502    0 -0.85704509877E+00  0.38860986273E+02 -0.50085916887E+03  0.50236522353E+03  0.00000000000E+00 0. -1.
         22    1    3    3    0    0  0.27980217981E+02  0.36644552415E+02 -0.10554262945E+03  0.11517361873E+03  0.00000000000E+00 0.  1.
         22    1    3    3    0    0  0.88040003882E+01 -0.45577855385E+02  0.89471783361E+01  0.47274764140E+02  0.00000000000E+00 0.  1.
</event>
<event>
 7    1  0.7118985E-006  0.5285974E+02  0.7818608E-02  0.1505015E+00
          2   -1    0    0  502    0  0.00000000000E+00  0.00000000000E+00  0.13309953155E+04  0.13309953155E+04  0.00000000000E+00 0. -1.
          1   -1    0    0  501    0 -0.00000000000E+00 -0.00000000000E+00 -0.60642074581E+03  0.60642074581E+03  0.00000000000E+00 0. -1.
         25    2    1    2    0    0  0.81884272764E+02  0.17999577288E+01  0.81417123284E+03  0.82777338734E+03  0.12500284164E+03 0.  0.
          2    1    1    2  501    0 -0.52314734483E+02  0.72886909400E+01 -0.59798538603E+03  0.60031364999E+03  0.00000000000E+00 0. -1.
          1    1    1    2  502    0 -0.29569538281E+02 -0.90886486688E+01  0.50838872292E+03  0.50932902403E+03  0.00000000000E+00 0. -1.
         22    1    3    3    0    0  0.10194978358E+03  0.11841996145E+02  0.78106667109E+03  0.78778114723E+03  0.00000000000E+00 0. -1.
         22    1    3    3    0    0 -0.20065510815E+02 -0.10042038416E+02  0.33104561754E+02  0.39992240106E+02  0.00000000000E+00 0. -1.
</event>
<event>
 7    1  0.7118985E-006  0.3804253E+02  0.7818608E-02  0.1544882E+00
          2   -1    0    0  502    0  0.00000000000E+00  0.00000000000E+00  0.54921955910E+03  0.54921955910E+03  0.00000000000E+00 0. -1.
          1   -1    0    0  501    0 -0.00000000000E+00 -0.00000000000E+00 -0.99849142860E+02  0.99849142860E+02  0.00000000000E+00 0. -1.
         25    2    1    2    0    0  0.16491388964E+02  0.54432540299E+02  0.15874106310E+03  0.20990230130E+03  0.12500153448E+03 0.  0.
          2    1    1    2  501    0  0.12585033922E+02 -0.30487047536E+02 -0.69575538743E+02  0.76997394356E+02  0.00000000000E+00 0. -1.
          1    1    1    2  502    0 -0.29076422885E+02 -0.23945492764E+02  0.36020489188E+03  0.36216900631E+03  0.00000000000E+00 0. -1.
         22    1    3    3    0    0  0.95568816293E+01 -0.35356979570E+02  0.88215273369E+02  0.95516409304E+02  0.00000000000E+00 0. -1.
         22    1    3    3    0    0  0.69345073345E+01  0.89789519869E+02  0.70525789732E+02  0.11438589200E+03  0.00000000000E+00 0. -1.
</event>
<event>
 7    1  0.7118985E-006  0.9928433E+02  0.7818608E-02  0.1362741E+00
          2   -1    0    0  502    0  0.00000000000E+00  0.00000000000E+00  0.67566257311E+02  0.67566257311E+02  0.00000000000E+00 0. -1.
          1   -1    0    0  501    0 -0.00000000000E+00 -0.00000000000E+00 -0.14075226499E+04  0.14075226499E+04  0.00000000000E+00 0. -1.
         25    2    1    2    0    0 -0.10029775050E+03  0.77260072416E+02 -0.29374373223E+03  0.34342967432E+03  0.12501921225E+03 0.  0.
          2    1    1    2  501    0  0.48180831771E+02  0.29246837467E+01 -0.10341409319E+04  0.10352668319E+04  0.00000000000E+00 0. -1.
          1    1    1    2  502    0  0.52116918731E+02 -0.80184756163E+02 -0.12071728512E+02  0.96392400988E+02  0.00000000000E+00 0. -1.
         22    1    3    3    0    0  0.35714832104E+01 -0.19745814488E+02 -0.10640902408E+03  0.10828450068E+03  0.00000000000E+00 0.  1.
         22    1    3    3    0    0 -0.10386923371E+03  0.97005886904E+02 -0.18733470815E+03  0.23514517363E+03  0.00000000000E+00 0.  1.
</event>
<event>
 7    1  0.7118985E-006  0.6753361E+02  0.7818608E-02  0.1435481E+00
          2   -1    0    0  502    0  0.00000000000E+00  0.00000000000E+00  0.60348726441E+03  0.60348726441E+03  0.00000000000E+00 0. -1.
          1   -1    0    0  501    0 -0.00000000000E+00 -0.00000000000E+00 -0.28182298089E+03  0.28182298089E+03  0.00000000000E+00 0. -1.
         25    2    1    2    0    0 -0.68433712723E+02  0.63463661024E+02  0.90691505248E+01  0.15625861687E+03  0.12499478608E+03 0.  0.
          2    1    1    2  501    0  0.28764987830E+02 -0.59692989268E+02 -0.20216721711E+03  0.21274929182E+03  0.00000000000E+00 0. -1.
          1    1    1    2  502    0  0.39668724893E+02 -0.37706717558E+01  0.51476235011E+03  0.51630233661E+03  0.00000000000E+00 0. -1.
         22    1    3    3    0    0 -0.12758958317E+02 -0.22965371773E+02 -0.35534011222E+02  0.44191235234E+02  0.00000000000E+00 0.  1.
         22    1    3    3    0    0 -0.55674754407E+02  0.86429032797E+02  0.44603161747E+02  0.11206738163E+03  0.00000000000E+00 0.  1.
</event>
<event>
 7    1  0.7118985E-006  0.1057809E+03  0.7818608E-02  0.1349836E+00
          2   -1    0    0  502    0  0.00000000000E+00  0.00000000000E+00  0.25757820432E+04  0.25757820432E+04  0.00000000000E+00 0. -1.
          1   -1    0    0  501    0 -0.00000000000E+00 -0.00000000000E+00 -0.17316297483E+04  0.17316297483E+04  0.00000000000E+00 0. -1.
         25    2    1    2    0    0 -0.43546340828E+02  0.14806361551E+03  0.25725134106E+03  0.32499621441E+03  0.12500067548E+03 0.  0.
          2    1    1    2  501    0  0.18360136214E+02 -0.47071028249E+02 -0.16961954497E+04  0.16969477835E+04  0.00000000000E+00 0. -1.
          1    1    1    2  502    0  0.25186204614E+02 -0.10099258726E+03  0.22830964036E+04  0.22854677936E+04  0.00000000000E+00 0. -1.
         22    1    3    3    0    0 -0.84057881027E+02  0.12371379331E+03  0.17573265809E+03  0.23076567582E+03  0.00000000000E+00 0.  1.
         22    1    3    3    0    0  0.40511540199E+02  0.24349822200E+02  0.81518682970E+02  0.94230538594E+02  0.00000000000E+00 0.  1.
</event>
<event>
 7    1  0.7118985E-006  0.6064358E+02  0.7818608E-02  0.1406643E+00
          2   -1    0    0  502    0  0.00000000000E+00  0.00000000000E+00  0.41265314350E+03  0.41265314350E+03  0.00000000000E+00 0. -1.
          1   -1    0    0  501    0 -0.00000000000E+00 -0.00000000000E+00 -0.14423781464E+04  0.14423781464E+04  0.00000000000E+00 0. -1.
         25    2    1    2    0    0  0.91393215442E+01 -0.56350278776E+02  0.34707268286E+01  0.13746261091E+03  0.12500016935E+03 0.  0.
          2    1    1    2  501    0 -0.53694554623E+02  0.13540274785E+02 -0.13720298130E+04  0.13731468429E+04  0.00000000000E+00 0. -1.
          1    1    1    2  502    0  0.44555233079E+02  0.42810003991E+02  0.33883408327E+03  0.34442183616E+03  0.00000000000E+00 0. -1.
         22    1    3    3    0    0 -0.40811355906E+02 -0.40482130842E+02 -0.39451259083E+02  0.69719233585E+02  0.00000000000E+00 0.  1.
         22    1    3    3    0    0  0.49950677450E+02 -0.15868147933E+02  0.42921985912E+02  0.67743377323E+02  0.00000000000E+00 0.  1.
</event>
<event>
 7    1  0.7118985E-006  0.9896274E+02  0.7818608E-02  0.1315982E+00
          2   -1    0    0  502    0  0.00000000000E+00  0.00000000000E+00  0.10328915363E+04  0.10328915363E+04  0.00000000000E+00 0. -1.
          1   -1    0    0  501    0 -0.00000000000E+00 -0.00000000000E+00 -0.13343935520E+03  0.13343935520E+03  0.00000000000E+00 0. -1.
         25    2    1    2    0    0  0.39510990162E+02 -0.11932567735E+03  0.17898218641E+03  0.25190934799E+03  0.12499584366E+03 0.  0.
          2    1    1    2  501    0 -0.68173077286E+02  0.25100382938E+02 -0.79914859729E+02  0.10799991896E+03  0.00000000000E+00 0. -1.
          1    1    1    2  502    0  0.28662087123E+02  0.94225294416E+02  0.80038485439E+03  0.80642162451E+03  0.00000000000E+00 0. -1.
         22    1    3    3    0    0 -0.14360772574E+02 -0.82541109928E+02  0.29515857564E+02  0.88828218854E+02  0.00000000000E+00 0.  1.
         22    1    3    3    0    0  0.53871762736E+02 -0.36784567426E+02  0.14946632884E+03  0.16308112913E+03  0.00000000000E+00 0.  1.
</event>
<event>
 7    1  0.7118985E-006  0.1445893E+03  0.7818608E-02  0.1340979E+00
          2   -1    0    0  502    0  0.00000000000E+00  0.00000000000E+00  0.38368814211E+04  0.38368814211E+04  0.00000000000E+00 0. -1.
          1   -1    0    0  501    0 -0.00000000000E+00 -0.00000000000E+00 -0.14805399176E+03  0.14805399176E+03  0.00000000000E+00 0. -1.
         25    2    1    2    0    0  0.22583317383E+02 -0.17588959944E+03  0.20900221233E+03  0.30125516059E+03  0.12500235840E+03 0.  0.
          2    1    1    2  501    0  0.14517475370E+02  0.37150786820E+02 -0.96528246371E+02  0.10444443690E+03  0.00000000000E+00 0. -1.
          1    1    1    2  502    0 -0.37100792753E+02  0.13873881262E+03  0.35763534634E+04  0.35792358154E+04  0.00000000000E+00 0. -1.
         22    1    3    3    0    0  0.56677725786E+02 -0.13426819313E+03  0.19879091313E+03  0.24649166199E+03  0.00000000000E+00 0. -1.
         22    1    3    3    0    0 -0.34094408403E+02 -0.41621406308E+02  0.10211299204E+02  0.54763498600E+02  0.00000000000E+00 0. -1.
</event>
<event>
 7    1  0.7118985E-006  0.8015870E+02  0.7818608E-02  0.1462112E+00
          2   -1    0    0  502    0  0.00000000000E+00  0.00000000000E+00  0.26317677471E+04  0.26317677471E+04  0.00000000000E+00 0. -1.
          1   -1    0    0  501    0 -0.00000000000E+00 -0.00000000000E+00 -0.78044782861E+02  0.78044782861E+02  0.00000000000E+00 0. -1.
         25    2    1    2    0    0 -0.77674857514E+02 -0.21731291672E+02  0.13129252874E+04  0.13213263337E+04  0.12499935015E+03 0.  0.
          2    1    1    2  501    0 -0.32215643104E+01  0.27392452496E+02 -0.69971284081E+02  0.75211073163E+02  0.00000000000E+00 0. -1.
          1    1    1    2  502    0  0.80896421824E+02 -0.56611608243E+01  0.13107689610E+04  0.13132751231E+04  0.00000000000E+00 0. -1.
         22    1    3    3    0    0 -0.14784168221E+02  0.10278422435E+02  0.10149188253E+04  0.10150785386E+04  0.00000000000E+00 0.  1.
         22    1    3    3    0    0 -0.62890689293E+02 -0.32009714107E+02  0.29800646203E+03  0.30624779511E+03  0.00000000000E+00 0.  1.
</event>
<event>
 7    1  0.7118985E-006  0.8392629E+02  0.7818608E-02  0.1345962E+00
          2   -1    0    0  502    0  0.00000000000E+00  0.00000000000E+00  0.36123747799E+03  0.36123747799E+03  0.00000000000E+00 0. -1.
          1   -1    0    0  501    0 -0.00000000000E+00 -0.00000000000E+00 -0.18358251604E+04  0.18358251604E+04  0.00000000000E+00 0. -1.
         25    2    1    2    0    0 -0.25018604568E+02  0.89780442313E+02 -0.60103688036E+03  0.62093142216E+03  0.12499616424E+03 0.  0.
          2    1    1    2  501    0  0.73151947213E+02 -0.44873890217E+02 -0.12202367511E+04  0.12232508337E+04  0.00000000000E+00 0. -1.
          1    1    1    2  502    0 -0.48133342645E+02 -0.44906552096E+02  0.34668594906E+03  0.35288038253E+03  0.00000000000E+00 0. -1.
         22    1    3    3    0    0 -0.69407019745E+01  0.70618975301E+02 -0.12173713647E+03  0.14090828014E+03  0.00000000000E+00 0. -1.
         22    1    3    3    0    0 -0.18077902593E+02  0.19161467012E+02 -0.47929974389E+03  0.48002314202E+03  0.00000000000E+00 0. -1.
</event>
<event>
 7    1  0.7118985E-006  0.1335083E+03  0.7818608E-02  0.1408227E+00
          2   -1    0    0  502    0  0.00000000000E+00  0.00000000000E+00  0.38296556814E+03  0.38296556814E+03  0.00000000000E+00 0. -1.
          1   -1    0    0  501    0 -0.00000000000E+00 -0.00000000000E+00 -0.14204925879E+04  0.14204925879E+04  0.00000000000E+00 0. -1.
         25    2    1    2    0    0 -0.14800701356E+03  0.53648839219E+02 -0.34465085880E+03  0.39899017065E+03  0.12499867113E+03 0.  0.
          2    1    1    2  501    0  0.22476850890E+02 -0.10581626191E+02 -0.10361425026E+04  0.10364402854E+04  0.00000000000E+00 0. -1.
          1    1    1    2  502    0  0.12553016267E+03 -0.43067213028E+02  0.34326634167E+03  0.36802769991E+03  0.00000000000E+00 0. -1.
         22    1    3    3    0    0 -0.10212377202E+02  0.46638117717E+02 -0.32639092216E+02  0.57833528450E+02  0.00000000000E+00 0. -1.
         22    1    3    3    0    0 -0.13779463636E+03  0.70107215027E+01 -0.31201176659E+03  0.34115664220E+03  0.00000000000E+00 0. -1.
</event>
<event>
 7    1  0.7118985E-006  0.1440145E+03  0.7818608E-02  0.1275284E+00
          2   -1    0    0  502    0  0.00000000000E+00  0.00000000000E+00  0.18248140573E+04  0.18248140573E+04  0.00000000000E+00 0. -1.
          1   -1    0    0  501    0 -0.00000000000E+00 -0.00000000000E+00 -0.36374638653E+03  0.36374638653E+03  0.00000000000E+00 0. -1.
         25    2    1    2    0    0  0.13138825619E+03 -0.98735048455E+01  0.43608596402E+03  0.47238940129E+03  0.12498167258E+03 0.  0.
          2    1    1    2  501    0 -0.13062015710E+03 -0.62963788098E+02 -0.32936270249E+03  0.35986921770E+03  0.00000000000E+00 0. -1.
          1    1    1    2  502    0 -0.76809908819E+00  0.72837292943E+02  0.13543444092E+04  0.13563018248E+04  0.00000000000E+00 0. -1.
         22    1    3    3    0    0  0.34899012358E+02  0.37840006897E+02  0.50694522189E+02  0.72247780349E+02  0.00000000000E+00 0. -1.
         22    1    3    3    0    0  0.96489243835E+02 -0.47713511742E+02  0.38539144183E+03  0.40014162094E+03  0.00000000000E+00 0. -1.
</event>
<event>
 7    1  0.7118985E-006  0.4666447E+03  0.7818608E-02  0.1139833E+00
          2   -1    0    0  502    0  0.00000000000E+00  0.00000000000E+00  0.27378306257E+04  0.27378306257E+04  0.00000000000E+00 0. -1.
          1   -1    0    0  501    0 -0.00000000000E+00 -0.00000000000E+00 -0.58055620392E+03  0.58055620392E+03  0.00000000000E+00 0. -1.
         25    2    1    2    0    0 -0.34125419971E+03 -0.20952208193E+03  0.75633839766E+03  0.86488530993E+03  0.12499958369E+03 0.  0.
          2    1    1    2  501    0  0.43593951670E+03  0.19090543574E+03 -0.41715235587E+03  0.63285403975E+03  0.00000000000E+00 0. -1.
          1    1    1    2  502    0 -0.94685316992E+02  0.18616646190E+02  0.18180883800E+04  0.18206474799E+04  0.00000000000E+00 0. -1.
         22    1    3    3    0    0 -0.27101219747E+03 -0.10628832317E+03  0.47542060122E+03  0.55746709937E+03  0.00000000000E+00 0. -1.
         22    1    3    3    0    0 -0.70242002245E+02 -0.10323375875E+03  0.28091779644E+03  0.30741821056E+03  0.00000000000E+00 0. -1.
</event>
<event>
 7    1  0.7118985E-006  0.9155630E+02  0.7818608E-02  0.1450226E+00
          2   -1    0    0  502    0  0.00000000000E+00  0.00000000000E+00  0.48112484031E+03  0.48112484031E+03  0.00000000000E+00 0. -1.
          1   -1    0    0  501    0 -0.00000000000E+00 -0.00000000000E+00 -0.93793826315E+03  0.93793826315E+03  0.00000000000E+00 0. -1.
         25    2    1    2    0    0 -0.48097846208E+02 -0.46243763913E+02 -0.14392648082E+03  0.20196339846E+03  0.12498997530E+03 0.  0.
          2    1    1    2  501    0 -0.12848787665E+02 -0.22990787413E+02 -0.76005825647E+03  0.76051444489E+03  0.00000000000E+00 0. -1.
          1    1    1    2  502    0  0.60946633873E+02  0.69234551326E+02  0.44717131446E+03  0.45658526012E+03  0.00000000000E+00 0. -1.
         22    1    3    3    0    0  0.18755334702E+02  0.20606470617E+02 -0.87574682775E+02  0.91900567323E+02  0.00000000000E+00 0.  1.
         22    1    3    3    0    0 -0.66853180910E+02 -0.66850234530E+02 -0.56351798049E+02  0.11006283114E+03  0.00000000000E+00 0.  1.
</event>
<event>
 7    1  0.7118985E-006  0.1995555E+03  0.7818608E-02  0.1188161E+00
          2   -1    0    0  502    0  0.00000000000E+00  0.00000000000E+00  0.10083862246E+04  0.10083862246E+04  0.00000000000E+00 0. -1.
          1   -1    0    0  501    0 -0.00000000000E+00 -0.00000000000E+00 -0.80093821888E+03  0.80093821888E+03  0.00000000000E+00 0. -1.
         25    2    1    2    0    0  0.23135202000E+02  0.16535383722E+03 -0.17811771861E+03  0.27427855026E+03  0.12500268954E+03 0.  0.
          2    1    1    2  501    0 -0.15218343457E+03 -0.16561626387E+03 -0.54812592379E+03  0.59247833120E+03  0.00000000000E+00 0. -1.
          1    1    1    2  502    0  0.12904823257E+03  0.26242665306E+00  0.93369164813E+03  0.94256756202E+03  0.00000000000E+00 0. -1.
         22    1    3    3    0    0 -0.50852240622E+02  0.51907463325E+02 -0.71056475472E+02  0.10163344839E+03  0.00000000000E+00 0. -1.
         22    1    3    3    0    0  0.73987442622E+02  0.11344637389E+03 -0.10706124314E+03  0.17264510187E+03  0.00000000000E+00 0. -1.
</event>
<event>
 7    1  0.7118985E-006  0.1018452E+03  0.7818608E-02  0.1350160E+00
          2   -1    0    0  502    0  0.00000000000E+00  0.00000000000E+00  0.16594658564E+03  0.16594658564E+03  0.00000000000E+00 0. -1.
          1   -1    0    0  501    0 -0.00000000000E+00 -0.00000000000E+00 -0.13207552290E+04  0.13207552290E+04  0.00000000000E+00 0. -1.
         25    2    1    2    0    0  0.87340851191E+02  0.34718187556E+01 -0.75240293147E+03  0.76770775800E+03  0.12499821037E+03 0.  0.
          2    1    1    2  501    0 -0.10891341992E+03  0.44207618240E+02 -0.54998770239E+03  0.56240814302E+03  0.00000000000E+00 0. -1.
          1    1    1    2  502    0  0.21572568727E+02 -0.47679436996E+02  0.14758199049E+03  0.15658591364E+03  0.00000000000E+00 0. -1.
         22    1    3    3    0    0  0.28593873974E+02  0.38556823106E+02 -0.92007053183E+02  0.10377637531E+03  0.00000000000E+00 0.  1.
         22    1    3    3    0    0  0.58746977216E+02 -0.35085004351E+02 -0.66039587828E+03  0.66393138269E+03  0.00000000000E+00 0.  1.
</event>
<event>
 7    1  0.7118985E-006  0.9003258E+02  0.7818608E-02  0.1314072E+00
          2   -1    0    0  502    0  0.00000000000E+00  0.00000000000E+00  0.17016789154E+04  0.17016789154E+04  0.00000000000E+00 0. -1.
          1   -1    0    0  501    0 -0.00000000000E+00 -0.00000000000E+00 -0.53338437544E+02  0.53338437544E+02  0.00000000000E+00 0. -1.
         25    2    1    2    0    0  0.15549229585E+01  0.46171380005E+01  0.35778799457E+03  0.37904054132E+03  0.12504298125E+03 0.  0.
          2    1    1    2  501    0  0.61761313170E+02 -0.68624318499E+02  0.10678076233E+02  0.92939648191E+02  0.00000000000E+00 0. -1.
          1    1    1    2  502    0 -0.63316236128E+02  0.64007180498E+02  0.12798744070E+04  0.12830371634E+04  0.00000000000E+00 0. -1.
         22    1    3    3    0    0 -0.24890205012E+02 -0.15401070530E+02  0.34027869989E+03  0.34153522348E+03  0.00000000000E+00 0.  1.
         22    1    3    3    0    0  0.26445127970E+02  0.20018208530E+02  0.17509294677E+02  0.37505317839E+02  0.00000000000E+00 0.  1.
</event>
<event>
 7    1  0.7118985E-006  0.8927015E+02  0.7818608E-02  0.1320381E+00
          2   -1    0    0  502    0  0.00000000000E+00  0.00000000000E+00  0.71440568976E+03  0.71440568976E+03  0.00000000000E+00 0. -1.
          1   -1    0    0  501    0 -0.00000000000E+00 -0.00000000000E+00 -0.23970989956E+03  0.23970989956E+03  0.00000000000E+00 0. -1.
         25    2    1    2    0    0 -0.16045070728E+02  0.63355884781E+02 -0.43344235878E+02  0.14756485597E+03  0.12500100601E+03 0.  0.
          2    1    1    2  501    0 -0.57528795960E+02 -0.87463455799E+02 -0.12261973982E+03  0.16122970898E+03  0.00000000000E+00 0. -1.
          1    1    1    2  502    0  0.73573866688E+02  0.24107571018E+02  0.64065976590E+03  0.64532102436E+03  0.00000000000E+00 0. -1.
         22    1    3    3    0    0  0.13772584125E+02  0.90207735106E+02 -0.39583532834E+01  0.91338864166E+02  0.00000000000E+00 0. -1.
         22    1    3    3    0    0 -0.29817654853E+02 -0.26851850325E+02 -0.39385882594E+02  0.56225991806E+02  0.00000000000E+00 0. -1.
</event>
<event>
 7    1  0.7118985E-006  0.3582099E+02  0.7818608E-02  0.1614255E+00
          2   -1    0    0  502    0  0.00000000000E+00  0.00000000000E+00  0.92389062451E+03  0.92389062451E+03  0.00000000000E+00 0. -1.
          1   -1    0    0  501    0 -0.00000000000E+00 -0.00000000000E+00 -0.65317545010E+02  0.65317545010E+02  0.00000000000E+00 0. -1.
         25    2    1    2    0    0 -0.15126972608E+02  0.16177233849E+02  0.49816607772E+03  0.51408783517E+03  0.12500533224E+03 0.  0.
          2    1    1    2  501    0  0.35528015450E+02 -0.59661864872E+01 -0.51352728362E+02  0.62729083950E+02  0.00000000000E+00 0. -1.
          1    1    1    2  502    0 -0.20401042842E+02 -0.10211047362E+02  0.41175973015E+03  0.41239125040E+03  0.00000000000E+00 0. -1.
         22    1    3    3    0    0  0.17981726956E+02 -0.32568578216E+02  0.38222648698E+03  0.38403273577E+03  0.00000000000E+00 0.  1.
         22    1    3    3    0    0 -0.33108699564E+02  0.48745812065E+02  0.11593959074E+03  0.13005509940E+03  0.00000000000E+00 0.  1.
</event>
<event>
 7    1  0.7118985E-006  0.5677584E+02  0.7818608E-02  0.1512288E+00
          2   -1    0    0  502    0  0.00000000000E+00  0.00000000000E+00  0.16905807083E+04  0.16905807083E+04  0.00000000000E+00 0. -1.
          1   -1    0    0  501    0 -0.00000000000E+00 -0.00000000000E+00 -0.72803667389E+03  0.72803667389E+03  0.00000000000E+00 0. -1.
         25    2    1    2    0    0 -0.40710039840E+02 -0.29230649834E+02 -0.45233624816E+03  0.47195963552E+03  0.12500431164E+03 0.  0.
          2    1    1    2  501    0  0.16296698644E+02 -0.22043156902E+02 -0.26470098234E+03  0.26611669095E+03  0.00000000000E+00 0. -1.
          1    1    1    2  502    0  0.24413341195E+02  0.51273806737E+02  0.16795812649E+04  0.16805410557E+04  0.00000000000E+00 0. -1.
         22    1    3    3    0    0 -0.76409947851E+02 -0.25404018109E+02 -0.17902676979E+03  0.19630188121E+03  0.00000000000E+00 0.  1.
         22    1    3    3    0    0  0.35699908011E+02 -0.38266317253E+01 -0.27330947837E+03  0.27565775431E+03  0.00000000000E+00 0.  1.
</event>
<event>
 7    1  0.7118985E-006  0.6924337E+02  0.7818608E-02  0.1369726E+00
          2   -1    0    0  502    0  0.00000000000E+00  0.00000000000E+00  0.10137224081E+03  0.10137224081E+03  0.00000000000E+00 0. -1.
          1   -1    0    0  501    0 -0.00000000000E+00 -0.00000000000E+00 -0.23751010943E+04  0.23751010943E+04  0.00000000000E+00 0. -1.
         25    2    1    2    0    0  0.35243949182E+02  0.57656237418E+02 -0.14594080400E+03  0.20369456544E+03  0.12500552008E+03 0.  0.
          2    1    1    2  501    0  0.29823984649E+02 -0.63170055058E+02 -0.21849058624E+04  0.21860223132E+04  0.00000000000E+00 0. -1.
          1    1    1    2  502    0 -0.65067933831E+02  0.55138176392E+01  0.57117812919E+02  0.86756456536E+02  0.00000000000E+00 0. -1.
         22    1    3    3    0    0  0.72194705623E+02  0.70386459462E+02 -0.88143366881E+02  0.13392379296E+03  0.00000000000E+00 0.  1.
         22    1    3    3    0    0 -0.36950756441E+02 -0.12730222044E+02 -0.57797437114E+02  0.69770772476E+02  0.00000000000E+00 0.  1.
</event>
<event>
 7    1  0.7118985E-006  0.9975405E+02  0.7818608E-02  0.1375382E+00
          2   -1    0    0  502    0  0.00000000000E+00  0.00000000000E+00  0.26192983994E+04  0.26192983994E+04  0.00000000000E+00 0. -1.
          1   -1    0    0  501    0 -0.00000000000E+00 -0.00000000000E+00 -0.81741873391E+03  0.81741873391E+03  0.00000000000E+00 0. -1.
         25    2    1    2    0    0 -0.88386718875E+02  0.10803561578E+03  0.42752682247E+03  0.46678777657E+03  0.12501095184E+03 0.  0.
          2    1    1    2  501    0  0.20211579785E+02 -0.38251240166E+02 -0.79610520760E+03  0.79727985482E+03  0.00000000000E+00 0. -1.
          1    1    1    2  502    0  0.68175139090E+02 -0.69784375609E+02  0.21704580506E+04  0.21726495019E+04  0.00000000000E+00 0. -1.
         22    1    3    3    0    0  0.28120346346E+02  0.34898325015E+02  0.64240176419E+02  0.78329095704E+02  0.00000000000E+00 0.  1.
         22    1    3    3    0    0 -0.11650706522E+03  0.73137290760E+02  0.36328664605E+03  0.38845868087E+03  0.00000000000E+00 0.  1.
</event>
<event>
 7    1  0.7118985E-006  0.6956645E+02  0.7818608E-02  0.1421224E+00
          2   -1    0    0  502    0  0.00000000000E+00  0.00000000000E+00  0.30393879279E+04  0.30393879279E+04  0.00000000000E+00 0. -1.
          1   -1    0    0  501    0 -0.00000000000E+00 -0.00000000000E+00 -0.98545469328E+02  0.98545469328E+02  0.00000000000E+00 0. -1.
         25    2    1    2    0    0  0.19277707011E+02  0.99224578907E+02  0.76047025885E+03  0.77727595657E+03  0.12500300404E+03 0.  0.
          2    1    1    2  501    0 -0.28943562788E+02 -0.31948293683E+02 -0.84449378882E+02  0.94816248025E+02  0.00000000000E+00 0. -1.
          1    1    1    2  502    0  0.96658557776E+01 -0.67276285223E+02  0.22648215786E+04  0.22658411926E+04  0.00000000000E+00 0. -1.
         22    1    3    3    0    0  0.16640830883E+02  0.12882530826E+03  0.65168912956E+03  0.66450853937E+03  0.00000000000E+00 0.  1.
         22    1    3    3    0    0  0.26368761278E+01 -0.29600729350E+02  0.10878112929E+03  0.11276741720E+03  0.00000000000E+00 0.  1.
</event>
<event>
 7    1  0.7118985E-006  0.1184856E+03  0.7818608E-02  0.1281109E+00
          2   -1    0    0  502    0  0.00000000000E+00  0.00000000000E+00  0.96085076969E+02  0.96085076969E+02  0.00000000000E+00 0. -1.
          1   -1    0    0  501    0 -0.00000000000E+00 -0.00000000000E+00 -0.14376695937E+04  0.14376695937E+04  0.00000000000E+00 0. -1.
         25    2    1    2    0    0  0.13224221528E+03  0.25646940000E+02 -0.18224850753E+03  0.25881285737E+03  0.12499523035E+03 0.  0.
          2    1    1    2  501    0 -0.10635210581E+03  0.53999875878E+02 -0.11821411397E+04  0.11881432705E+04  0.00000000000E+00 0. -1.
          1    1    1    2  502    0 -0.25890109467E+02 -0.79646815878E+02  0.22805130549E+02  0.86798542771E+02  0.00000000000E+00 0. -1.
         22    1    3    3    0    0  0.53902322705E+02  0.47460178067E+02 -0.15863302563E+03  0.17413318385E+03  0.00000000000E+00 0.  1.
         22    1    3    3    0    0  0.78339892574E+02 -0.21813238067E+02 -0.23615481900E+02  0.84679673528E+02  0.00000000000E+00 0.  1.
</event>
<event>
 7    1  0.7118985E-006  0.6740061E+02  0.7818608E-02  0.1412024E+00
          2   -1    0    0  502    0  0.00000000000E+00  0.00000000000E+00  0.84689451360E+03  0.84689451360E+03  0.00000000000E+00 0. -1.
          1   -1    0    0  501    0 -0.00000000000E+00 -0.00000000000E+00 -0.14303304571E+04  0.14303304571E+04  0.00000000000E+00 0. -1.
         25    2    1    2    0    0  0.65700444404E+02  0.92558669293E+02  0.18032414968E+03  0.24703240809E+03  0.12499822413E+03 0.  0.
          2    1    1    2  501    0 -0.31125913468E+02 -0.59590589656E+02 -0.13952647155E+04  0.13968834909E+04  0.00000000000E+00 0. -1.
          1    1    1    2  502    0 -0.34574530936E+02 -0.32968079638E+02  0.63150462225E+03  0.63330907177E+03  0.00000000000E+00 0. -1.
         22    1    3    3    0    0  0.65571141223E+01  0.42954439599E+02 -0.73814259042E+01  0.44074539990E+02  0.00000000000E+00 0. -1.
         22    1    3    3    0    0  0.59143330282E+02  0.49604229694E+02  0.18770557558E+03  0.20295786810E+03  0.00000000000E+00 0. -1.
</event>
<event>
 7    1  0.7118985E-006  0.5558624E+02  0.7818608E-02  0.1553805E+00
          2   -1    0    0  502    0  0.00000000000E+00  0.00000000000E+00  0.13452644075E+04  0.13452644075E+04  0.00000000000E+00 0. -1.
          1   -1    0    0  501    0 -0.00000000000E+00 -0.00000000000E+00 -0.10779250113E+03  0.10779250113E+03  0.00000000000E+00 0. -1.
         25    2    1    2    0    0  0.21911729934E+02  0.65754230512E+02 -0.85932672480E+00  0.14293341195E+03  0.12500191627E+03 0.  0.
          2    1    1    2  501    0  0.86880276438E+01 -0.19463393593E+02 -0.32072144221E+02  0.38508803531E+02  0.00000000000E+00 0. -1.
          1    1    1    2  502    0 -0.30599757577E+02 -0.46290836918E+02  0.12704033773E+04  0.12716146932E+04  0.00000000000E+00 0. -1.
         22    1    3    3    0    0 -0.49879663800E+02  0.11172580301E+02 -0.10669748091E+02  0.52217343247E+02  0.00000000000E+00 0.  1.
         22    1    3    3    0    0  0.71791393734E+02  0.54581650211E+02  0.98104213662E+01  0.90716068705E+02  0.00000000000E+00 0.  1.
</event>
<event>
 7    1  0.7118985E-006  0.6898594E+02  0.7818608E-02  0.1434811E+00
          2   -1    0    0  502    0  0.00000000000E+00  0.00000000000E+00  0.15824725892E+04  0.15824725892E+04  0.00000000000E+00 0. -1.
          1   -1    0    0  501    0 -0.00000000000E+00 -0.00000000000E+00 -0.10082995741E+03  0.10082995741E+03  0.00000000000E+00 0. -1.
         25    2    1    2    0    0  0.42214369282E+01  0.68212521832E+02  0.18612111062E+03  0.23437523874E+03  0.12497966254E+03 0.  0.
          2    1    1    2  501    0  0.34281011144E+02 -0.60818787898E+02 -0.60474323073E+02  0.92364800858E+02  0.00000000000E+00 0. -1.
          1    1    1    2  502    0 -0.38502448072E+02 -0.73937339345E+01  0.13559958442E+04  0.13565625070E+04  0.00000000000E+00 0. -1.
         22    1    3    3    0    0  0.19748797235E+02  0.79052131013E+02  0.47191480119E+02  0.94160980272E+02  0.00000000000E+00 0.  1.
         22    1    3    3    0    0 -0.15527360307E+02 -0.10839609181E+02  0.13892963050E+03  0.14021425847E+03  0.00000000000E+00 0.  1.
</event>
<event>
 7    1  0.7118985E-006  0.1352965E+03  0.7818608E-02  0.1380564E+00
          2   -1    0    0  502    0  0.00000000000E+00  0.00000000000E+00  0.79317486242E+03  0.79317486242E+03  0.00000000000E+00 0. -1.
          1   -1    0    0  501    0 -0.00000000000E+00 -0.00000000000E+00 -0.13233040052E+04  0.13233040052E+04  0.00000000000E+00 0. -1.
         25    2    1    2    0    0 -0.10037765434E+03 -0.88105258227E+02 -0.65215668821E+03  0.67732645359E+03  0.12499827492E+03 0.  0.
          2    1    1    2  501    0 -0.18855502284E+02  0.24066920204E+02 -0.65233516620E+03  0.65305123511E+03  0.00000000000E+00 0. -1.
          1    1    1    2  502    0  0.11923315662E+03  0.64038338023E+02  0.77436271162E+03  0.78610117893E+03  0.00000000000E+00 0. -1.
         22    1    3    3    0    0  0.15300639319E+02 -0.41187891136E+02 -0.31022288109E+03  0.31331898744E+03  0.00000000000E+00 0.  1.
         22    1    3    3    0    0 -0.11567829365E+03 -0.46917367091E+02 -0.34193380712E+03  0.36400746615E+03  0.00000000000E+00 0.  1.
</event>
<event>
 7    1  0.7118985E-006  0.5885225E+02  0.7818608E-02  0.1447946E+00
          2   -1    0    0  502    0  0.00000000000E+00  0.00000000000E+00  0.36502634220E+02  0.36502634220E+02  0.00000000000E+00 0. -1.
          1   -1    0    0  501    0 -0.00000000000E+00 -0.00000000000E+00 -0.76268436882E+03  0.76268436882E+03  0.00000000000E+00 0. -1.
         25    2    1    2    0    0  0.29007226061E+02 -0.90257492294E+02 -0.40255173661E+03  0.43204245526E+03  0.12499979366E+03 0.  0.
          2    1    1    2  501    0 -0.20182394668E+02  0.49534725608E+02 -0.32096504595E+03  0.32539142400E+03  0.00000000000E+00 0. -1.
          1    1    1    2  502    0 -0.88248313932E+01  0.40722766686E+02 -0.26649520378E+01  0.41753123776E+02  0.00000000000E+00 0. -1.
         22    1    3    3    0    0 -0.19548463746E+02 -0.10423124833E+03 -0.25968040419E+03  0.28049992493E+03  0.00000000000E+00 0.  1.
         22    1    3    3    0    0  0.48555689807E+02  0.13973756039E+02 -0.14287133242E+03  0.15154253033E+03  0.00000000000E+00 0.  1.
</event>
<event>
 7    1  0.7118985E-006  0.9252710E+02  0.7818608E-02  0.1375970E+00
          2   -1    0    0  502    0  0.00000000000E+00  0.00000000000E+00  0.14577403453E+03  0.14577403453E+03  0.00000000000E+00 0. -1.
          1   -1    0    0  501    0 -0.00000000000E+00 -0.00000000000E+00 -0.96931951387E+03  0.96931951387E+03  0.00000000000E+00 0. -1.
         25    2    1    2    0    0  0.54476973731E+02 -0.27278339192E+02 -0.27031577396E+02  0.14166052212E+03  0.12500059557E+03 0.  0.
          2    1    1    2  501    0  0.46416969056E+02 -0.12862120082E+00 -0.85322887570E+03  0.85449053002E+03  0.00000000000E+00 0. -1.
          1    1    1    2  502    0 -0.10089394279E+03  0.27406960393E+02  0.56714973761E+02  0.11894249626E+03  0.00000000000E+00 0. -1.
         22    1    3    3    0    0 -0.35267258125E+02 -0.32361085487E+02 -0.18697589534E+02  0.51386955582E+02  0.00000000000E+00 0. -1.
         22    1    3    3    0    0  0.89744231856E+02  0.50827462952E+01 -0.83339878626E+01  0.90273566535E+02  0.00000000000E+00 0. -1.
</event>
<event>
 7    1  0.7118985E-006  0.9195015E+02  0.7818608E-02  0.1315335E+00
          2   -1    0    0  502    0  0.00000000000E+00  0.00000000000E+00  0.33750516657E+04  0.33750516657E+04  0.00000000000E+00 0. -1.
          1   -1    0    0  501    0 -0.00000000000E+00 -0.00000000000E+00 -0.12447371460E+03  0.12447371460E+03  0.00000000000E+00 0. -1.
         25    2    1    2    0    0  0.11868159295E+03 -0.81604215017E+02  0.46432979924E+03  0.50197086898E+03  0.12501208912E+03 0.  0.
          2    1    1    2  501    0 -0.40038335744E+02  0.81213872992E+02 -0.85615347256E+02  0.12461440198E+03  0.00000000000E+00 0. -1.
          1    1    1    2  502    0 -0.78643257203E+02  0.39034202506E+00  0.28718634991E+04  0.28729401093E+04  0.00000000000E+00 0. -1.
         22    1    3    3    0    0  0.98635065673E+02 -0.25644658558E+01  0.33368321457E+03  0.34796542983E+03  0.00000000000E+00 0.  1.
         22    1    3    3    0    0  0.20046527274E+02 -0.79039749162E+02  0.13064658467E+03  0.15400543915E+03  0.00000000000E+00 0.  1.
</event>
<event>
 7    1  0.7118985E-006  0.7816933E+02  0.7818608E-02  0.1373220E+00
          2   -1    0    0  502    0  0.00000000000E+00  0.00000000000E+00  0.37404371559E+04  0.37404371559E+04  0.00000000000E+00 0. -1.
          1   -1    0    0  501    0 -0.00000000000E+00 -0.00000000000E+00 -0.20174256618E+03  0.20174256618E+03  0.00000000000E+00 0. -1.
         25    2    1    2    0    0  0.33211262777E+01 -0.23532156475E+02  0.39754799941E+03  0.41741302151E+03  0.12499770570E+03 0.  0.
          2    1    1    2  501    0  0.49501346107E+01  0.79119308408E+02 -0.18337153904E+03  0.19977359717E+03  0.00000000000E+00 0. -1.
          1    1    1    2  502    0 -0.82712608885E+01 -0.55587151933E+02  0.33245181293E+04  0.33249931034E+04  0.00000000000E+00 0. -1.
         22    1    3    3    0    0  0.78411845045E+01  0.50867634531E+02  0.13459763583E+03  0.14410247738E+03  0.00000000000E+00 0.  1.
         22    1    3    3    0    0 -0.45200582268E+01 -0.74399791007E+02  0.26295036358E+03  0.27331054413E+03  0.00000000000E+00 0.  1.
</event>
<event>
 7    1  0.7118985E-006  0.6632366E+02  0.7818608E-02  0.1378844E+00
          2   -1    0    0  502    0  0.00000000000E+00  0.00000000000E+00  0.37272499616E+03  0.37272499616E+03  0.00000000000E+00 0. -1.
          1   -1    0    0  501    0 -0.00000000000E+00 -0.00000000000E+00 -0.12277377389E+03  0.12277377389E+03  0.00000000000E+00 0. -1.
         25    2    1    2    0    0 -0.15452116603E+02  0.49056848211E+01  0.10283225367E+03  0.16266930747E+03  0.12499599012E+03 0.  0.
          2    1    1    2  501    0  0.28237448413E+02 -0.66850076849E+02 -0.73520447644E+02  0.10330315818E+03  0.00000000000E+00 0. -1.
          1    1    1    2  502    0 -0.12785331810E+02  0.61944392028E+02  0.22063941625E+03  0.22952630441E+03  0.00000000000E+00 0. -1.
         22    1    3    3    0    0 -0.29496415426E+02 -0.46623760441E+02  0.10734160255E+02  0.56205300080E+02  0.00000000000E+00 0.  1.
         22    1    3    3    0    0  0.14044298823E+02  0.51529445263E+02  0.92098093412E+02  0.10646400739E+03  0.00000000000E+00 0.  1.
</event>
<event>
 7    1  0.7118985E-006  0.9764824E+02  0.7818608E-02  0.1412383E+00
          2   -1    0    0  502    0  0.00000000000E+00  0.00000000000E+00  0.72564647535E+03  0.72564647535E+03  0.00000000000E+00 0. -1.
          1   -1    0    0  501    0 -0.00000000000E+00 -0.00000000000E+00 -0.68197721237E+02  0.68197721237E+02  0.00000000000E+00 0. -1.
         25    2    1    2    0    0 -0.28090877408E+02 -0.62684114160E+02  0.37103537117E+03  0.39749916847E+03  0.12497978522E+03 0.  0.
          2    1    1    2  501    0  0.46559415887E+02  0.89890801864E+02 -0.66418333233E+01  0.10145072409E+03  0.00000000000E+00 0. -1.
          1    1    1    2  502    0 -0.18468538480E+02 -0.27206687704E+02  0.29305521627E+03  0.29489430404E+03  0.00000000000E+00 0. -1.
         22    1    3    3    0    0  0.15840682745E+02  0.14420364835E+02  0.66002386387E+01  0.22415113247E+02  0.00000000000E+00 0.  1.
         22    1    3    3    0    0 -0.43931560153E+02 -0.77104478995E+02  0.36443513253E+03  0.37508405522E+03  0.00000000000E+00 0.  1.
</event>
<event>
 7    1  0.7118985E-006  0.1037555E+03  0.7818608E-02  0.1399355E+00
          2   -1    0    0  502    0  0.00000000000E+00  0.00000000000E+00  0.46207998755E+03  0.46207998755E+03  0.00000000000E+00 0. -1.
          1   -1    0    0  501    0 -0.00000000000E+00 -0.00000000000E+00 -0.20884438761E+04  0.20884438761E+04  0.00000000000E+00 0. -1.
         25    2    1    2    0    0  0.12701429386E+02  0.69268660806E+02  0.20894437410E+03  0.25346086364E+03  0.12500073700E+03 0.  0.
          2    1    1    2  501    0 -0.10122236493E+02 -0.10345150411E+03 -0.20635977999E+04  0.20662140628E+04  0.00000000000E+00 0. -1.
          1    1    1    2  502    0 -0.25791928930E+01  0.34182843306E+02  0.22828953725E+03  0.23084893725E+03  0.00000000000E+00 0. -1.
         22    1    3    3    0    0 -0.41280002920E+02  0.76870823566E+02  0.10905719509E+03  0.13966615179E+03  0.00000000000E+00 0.  1.
         22    1    3    3    0    0  0.53981432306E+02 -0.76021627594E+01  0.99887179017E+02  0.11379471185E+03  0.00000000000E+00 0.  1.
</event>
<event>
 7    1  0.7118985E-006  0.8677106E+02  0.7818608E-02  0.1343500E+00
          2   -1    0    0  502    0  0.00000000000E+00  0.00000000000E+00  0.36810984609E+03  0.36810984609E+03  0.00000000000E+00 0. -1.
          1   -1    0    0  501    0 -0.00000000000E+00 -0.00000000000E+00 -0.78926986207E+03  0.78926986207E+03  0.00000000000E+00 0. -1.
         25    2    1    2    0    0  0.82181112448E+02  0.47367710151E+02  0.42861907141E+02  0.16266240301E+03  0.12499791623E+03 0.  0.
          2    1    1    2  501    0 -0.27572482707E+02 -0.82684043902E+02 -0.72272680981E+03  0.72796355303E+03  0.00000000000E+00 0. -1.
          1    1    1    2  502    0 -0.54608629741E+02  0.35316333750E+02  0.25870488670E+03  0.26675375212E+03  0.00000000000E+00 0. -1.
         22    1    3    3    0    0  0.11578562615E+03  0.40048038416E+02  0.32912291865E+02  0.12685966877E+03  0.00000000000E+00 0.  1.
         22    1    3    3    0    0 -0.33604513700E+02  0.73196717355E+01  0.99496152766E+01  0.35802734246E+02  0.00000000000E+00 0.  1.
</event>
<event>
 7    1  0.7118985E-006  0.4258066E+02  0.7818608E-02  0.1566008E+00
          2   -1    0    0  502    0  0.00000000000E+00  0.00000000000E+00  0.22587080933E+03  0.22587080933E+03  0.00000000000E+00 0. -1.
          1   -1    0    0  501    0 -0.00000000000E+00 -0.00000000000E+00 -0.60569756234E+03  0.60569756234E+03  0.00000000000E+00 0. -1.
         25    2    1    2    0    0  0.61261908252E+02  0.73918474563E+01 -0.14347670263E+03  0.20004704343E+03  0.12500237827E+03 0.  0.
          2    1    1    2  501    0 -0.23188688097E+02  0.11203468604E+02 -0.43127552919E+03  0.43204376519E+03  0.00000000000E+00 0. -1.
          1    1    1    2  502    0 -0.38073220156E+02 -0.18595316060E+02  0.19492547881E+03  0.19947756306E+03  0.00000000000E+00 0. -1.
         22    1    3    3    0    0  0.40812572341E+01 -0.52099801977E+02 -0.81634153158E+02  0.96928741808E+02  0.00000000000E+00 0.  1.
         22    1    3    3    0    0  0.57180651018E+02  0.59491649433E+02 -0.61842549476E+02  0.10311830162E+03  0.00000000000E+00 0.  1.
</event>
<event>
 7    1  0.7118985E-006  0.5857346E+02  0.7818608E-02  0.1425002E+00
          2   -1    0    0  502    0  0.00000000000E+00  0.00000000000E+00  0.19585230893E+03  0.19585230893E+03  0.00000000000E+00 0. -1.
          1   -1    0    0  501    0 -0.00000000000E+00 -0.00000000000E+00 -0.96980329562E+03  0.96980329562E+03  0.00000000000E+00 0. -1.
         25    2    1    2    0    0  0.49711412584E+02 -0.43997597127E+02 -0.29762391924E+03  0.32956295514E+03  0.12499892400E+03 0.  0.
          2    1    1    2  501    0 -0.24361306624E+01  0.59461716560E+02 -0.65138881944E+03  0.65410169282E+03  0.00000000000E+00 0. -1.
          1    1    1    2  502    0 -0.47275281922E+02 -0.15464119433E+02  0.17506175199E+03  0.18199095659E+03  0.00000000000E+00 0. -1.
         22    1    3    3    0    0  0.28178341539E+02  0.42075816372E+02 -0.13704994751E+03  0.14610640426E+03  0.00000000000E+00 0.  1.
         22    1    3    3    0    0  0.21533071045E+02 -0.86073413500E+02 -0.16057397173E+03  0.18345655087E+03  0.00000000000E+00 0.  1.
</event>
<event>
 7    1  0.7118985E-006  0.8735657E+02  0.7818608E-02  0.1413627E+00
          2   -1    0    0  502    0  0.00000000000E+00  0.00000000000E+00  0.36298559558E+04  0.36298559558E+04  0.00000000000E+00 0. -1.
          1   -1    0    0  501    0 -0.00000000000E+00 -0.00000000000E+00 -0.13941016605E+03  0.13941016605E+03  0.00000000000E+00 0. -1.
         25    2    1    2    0    0 -0.80428826315E+02 -0.41651078997E+01  0.19348750906E+04  0.19405806090E+04  0.12500135928E+03 0.  0.
          2    1    1    2  501    0  0.77540129198E+02  0.40453775811E+02 -0.12233647459E+03  0.15038348523E+03  0.00000000000E+00 0. -1.
          1    1    1    2  502    0  0.28886971169E+01 -0.36288667911E+02  0.16779071738E+04  0.16783020276E+04  0.00000000000E+00 0. -1.
         22    1    3    3    0    0  0.11195070277E+02  0.64397080599E+01  0.11828227491E+04  0.11828932561E+04  0.00000000000E+00 0.  1.
         22    1    3    3    0    0 -0.91623896592E+02 -0.10604815960E+02  0.75205234144E+03  0.75768735295E+03  0.00000000000E+00 0.  1.
</event>
<event>
 7    1  0.7118985E-006  0.1310912E+03  0.7818608E-02  0.1390388E+00
          2   -1    0    0  502    0  0.00000000000E+00  0.00000000000E+00  0.11813743249E+04  0.11813743249E+04  0.00000000000E+00 0. -1.
          1   -1    0    0  501    0 -0.00000000000E+00 -0.00000000000E+00 -0.34904403647E+03  0.34904403647E+03  0.00000000000E+00 0. -1.
         25    2    1    2    0    0 -0.11458677068E+03  0.28744791816E+02  0.25239296885E+03  0.30542291907E+03  0.12499823077E+03 0.  0.
          2    1    1    2  501    0 -0.19123274720E+02 -0.21992512706E+02 -0.31689143733E+03  0.31822877510E+03  0.00000000000E+00 0. -1.
          1    1    1    2  502    0  0.13371004540E+03 -0.67522791106E+01  0.89682875690E+03  0.90676666719E+03  0.00000000000E+00 0. -1.
         22    1    3    3    0    0 -0.76324435750E+02 -0.45033992960E+02  0.12182729014E+03  0.15064982123E+03  0.00000000000E+00 0. -1.
         22    1    3    3    0    0 -0.38262334932E+02  0.73778784776E+02  0.13056567871E+03  0.15477309784E+03  0.00000000000E+00 0. -1.
</event>
<event>
 7    1  0.7118985E-006  0.8736776E+02  0.7818608E-02  0.1351217E+00
          2   -1    0    0  502    0  0.00000000000E+00  0.00000000000E+00  0.21172151241E+04  0.21172151241E+04  0.00000000000E+00 0. -1.
          1   -1    0    0  501    0 -0.00000000000E+00 -0.00000000000E+00 -0.82465627313E+03  0.82465627313E+03  0.00000000000E+00 0. -1.
         25    2    1    2    0    0 -0.14562411186E+03 -0.22257372453E+02  0.28539216164E+03  0.34463748159E+03  0.12499814083E+03 0.  0.
          2    1    1    2  501    0  0.85586606216E+02  0.15141816050E+02 -0.79214890925E+03  0.79690290260E+03  0.00000000000E+00 0. -1.
          1    1    1    2  502    0  0.60037505640E+02  0.71155564024E+01  0.17993155986E+04  0.18003310130E+04  0.00000000000E+00 0. -1.
         22    1    3    3    0    0 -0.11811106649E+03 -0.13230156698E+02  0.29171708923E+03  0.31499860511E+03  0.00000000000E+00 0.  1.
         22    1    3    3    0    0 -0.27513045368E+02 -0.90272157548E+01 -0.63249275977E+01  0.29638876477E+02  0.00000000000E+00 0.  1.
</event>
<event>
 7    1  0.7794369E-006  0.6616720E+02  0.7818608E-02  0.1416586E+00
          2   -1    0    0  502    0  0.00000000000E+00  0.00000000000E+00  0.64536593879E+03  0.64536593879E+03  0.00000000000E+00 0. -1.
          1   -1    0    0  501    0 -0.00000000000E+00 -0.00000000000E+00 -0.10413477692E+04  0.10413477692E+04  0.00000000000E+00 0. -1.
         25    2    1    2    0    0 -0.11020426075E+02  0.20814719291E+02 -0.32923778440E+03  0.35295451202E+03  0.12499866619E+03 0.  0.
          2    1    1    2  501    0 -0.44074017903E+02  0.16245202098E+02 -0.69771990786E+03  0.69929928891E+03  0.00000000000E+00 0. -1.
          1    1    1    2  502    0  0.55094443977E+02 -0.37059921389E+02  0.63097586181E+03  0.63445990710E+03  0.00000000000E+00 0. -1.
         22    1    3    3    0    0  0.22867356215E+02 -0.13445231659E+02 -0.28888877797E+03  0.29010414729E+03  0.00000000000E+00 0. -1.
         22    1    3    3    0    0 -0.33887782289E+02  0.34259950950E+02 -0.40349006426E+02  0.62850364734E+02  0.00000000000E+00 0. -1.
</event>
<event>
 7    1  0.7118985E-006  0.7532062E+02  0.7818608E-02  0.1404829E+00
          2   -1    0    0  502    0  0.00000000000E+00  0.00000000000E+00  0.86770542221E+03  0.86770542221E+03  0.00000000000E+00 0. -1.
          1   -1    0    0  501    0 -0.00000000000E+00 -0.00000000000E+00 -0.12085817443E+03  0.12085817443E+03  0.00000000000E+00 0. -1.
         25    2    1    2    0    0  0.66858392695E+02 -0.47546656155E+02  0.23220648528E+03  0.27617919433E+03  0.12499746554E+03 0.  0.
          2    1    1    2  501    0 -0.75587551844E+02  0.31724350028E+01 -0.83419899315E+02  0.11261625966E+03  0.00000000000E+00 0. -1.
          1    1    1    2  502    0  0.87291591486E+01  0.44374221153E+02  0.59806066182E+03  0.59976814265E+03  0.00000000000E+00 0. -1.
         22    1    3    3    0    0  0.27783302913E+02 -0.88574040879E+02  0.14682994732E+03  0.17371328697E+03  0.00000000000E+00 0.  1.
         22    1    3    3    0    0  0.39075089782E+02  0.41027384724E+02  0.85376537959E+02  0.10246590737E+03  0.00000000000E+00 0.  1.
</event>
<event>
 7    1  0.7118985E-006  0.5047129E+02  0.7818608E-02  0.1492639E+00
          2   -1    0    0  502    0  0.00000000000E+00  0.00000000000E+00  0.92443028258E+03  0.92443028258E+03  0.00000000000E+00 0. -1.
          1   -1    0    0  501    0 -0.00000000000E+00 -0.00000000000E+00 -0.12923954004E+03  0.12923954004E+03  0.00000000000E+00 0. -1.
         25    2    1    2    0    0  0.15964601061E+02 -0.19579318652E+02  0.15482363332E+03  0.20058345412E+03  0.12500058571E+03 0.  0.
          2    1    1    2  501    0 -0.10208866998E+01  0.51537314229E+02 -0.99668989423E+02  0.11220982319E+03  0.00000000000E+00 0. -1.
          1    1    1    2  502    0 -0.14943714361E+02 -0.31957995577E+02  0.74003609865E+03  0.74087654530E+03  0.00000000000E+00 0. -1.
         22    1    3    3    0    0  0.37957611600E+02 -0.52730978312E+02  0.33900822678E+02  0.73284392134E+02  0.00000000000E+00 0. -1.
         22    1    3    3    0    0 -0.21993010539E+02  0.33151659660E+02  0.12092281064E+03  0.12729906199E+03  0.00000000000E+00 0. -1.
</event>
<event>
 7    1  0.7118985E-006  0.5558319E+02  0.7818608E-02  0.1556617E+00
          2   -1    0    0  502    0  0.00000000000E+00  0.00000000000E+00  0.13624122189E+04  0.13624122189E+04  0.00000000000E+00 0. -1.
          1   -1    0    0  501    0 -0.00000000000E+00 -0.00000000000E+00 -0.11536413504E+03  0.11536413504E+03  0.00000000000E+00 0. -1.
         25    2    1    2    0    0  0.65615708866E+02 -0.38773635999E+02  0.66691325706E+03  0.68279366743E+03  0.12500033497E+03 0.  0.
          2    1    1    2  501    0 -0.48467736225E+02  0.26761420611E+02 -0.10011851870E+03  0.11440722387E+03  0.00000000000E+00 0. -1.
          1    1    1    2  502    0 -0.17147972641E+02  0.12012215389E+02  0.68025334549E+03  0.68057546263E+03  0.00000000000E+00 0. -1.
         22    1    3    3    0    0 -0.94447296103E+01  0.34656229911E+02  0.10042499271E+03  0.10665569066E+03  0.00000000000E+00 0. -1.
         22    1    3    3    0    0  0.75060438476E+02 -0.73429865911E+02  0.56648826436E+03  0.57613797678E+03  0.00000000000E+00 0. -1.
</event>
<event>
 7    1  0.7118985E-006  0.1069699E+03  0.7818608E-02  0.1301777E+00
          2   -1    0    0  502    0  0.00000000000E+00  0.00000000000E+00  0.12582349826E+04  0.12582349826E+04  0.00000000000E+00 0. -1.
          1   -1    0    0  501    0 -0.00000000000E+00 -0.00000000000E+00 -0.94142369976E+03  0.94142369976E+03  0.00000000000E+00 0. -1.
         25    2    1    2    0    0 -0.58969149623E+02 -0.10177737753E+03  0.21524780477E+03  0.27532014877E+03  0.12503428200E+03 0.  0.
          2    1    1    2  501    0  0.10039878069E+03  0.37498409009E+02 -0.90678394367E+03  0.91309537636E+03  0.00000000000E+00 0. -1.
          1    1    1    2  502    0 -0.41429631068E+02  0.64278968517E+02  0.10083474217E+04  0.10112431572E+04  0.00000000000E+00 0. -1.
         22    1    3    3    0    0  0.32147269585E+02 -0.64586069718E+02  0.75827505743E+02  0.10466431087E+03  0.00000000000E+00 0.  1.
         22    1    3    3    0    0 -0.91116419208E+02 -0.37191307808E+02  0.13942029903E+03  0.17065583789E+03  0.00000000000E+00 0.  1.
</event>
<event>
 7    1  0.7118985E-006  0.7786055E+02  0.7818608E-02  0.1366609E+00
          2   -1    0    0  502    0  0.00000000000E+00  0.00000000000E+00  0.16047647216E+04  0.16047647216E+04  0.00000000000E+00 0. -1.
          1   -1    0    0  501    0 -0.00000000000E+00 -0.00000000000E+00 -0.55362847135E+02  0.55362847135E+02  0.00000000000E+00 0. -1.
         25    2    1    2    0    0 -0.76398325730E+02 -0.52730813738E+02  0.34835741621E+03  0.38156921014E+03  0.12499971923E+03 0.  0.
          2    1    1    2  501    0  0.78016177911E+02 -0.68432396698E+01  0.23166128946E+01  0.78349988132E+02  0.00000000000E+00 0. -1.
          1    1    1    2  502    0 -0.16178521803E+01  0.59574053408E+02  0.11987278454E+04  0.12002083705E+04  0.00000000000E+00 0. -1.
         22    1    3    3    0    0 -0.95171606852E+02 -0.64374075743E+02  0.33833257151E+03  0.35731020881E+03  0.00000000000E+00 0. -1.
         22    1    3    3    0    0  0.18773281122E+02  0.11643262004E+02  0.10024844705E+02  0.24259001330E+02  0.00000000000E+00 0. -1.
</event>
<event>
 7    1  0.7118985E-006  0.1491312E+03  0.7818608E-02  0.1299312E+00
          2   -1    0    0  502    0  0.00000000000E+00  0.00000000000E+00  0.11563208860E+04  0.11563208860E+04  0.00000000000E+00 0. -1.
          1   -1    0    0  501    0 -0.00000000000E+00 -0.00000000000E+00 -0.25329937712E+03  0.25329937712E+03  0.00000000000E+00 0. -1.
         25    2    1    2    0    0  0.63472929568E+02 -0.17563639719E+03  0.17937569184E+03  0.28753617362E+03  0.12499782204E+03 0.  0.
          2    1    1    2  501    0 -0.79287764741E+02  0.12179826321E+03 -0.17171828000E+03  0.22496340645E+03  0.00000000000E+00 0. -1.
          1    1    1    2  502    0  0.15814835173E+02  0.53838133978E+02  0.89536409707E+03  0.89712068308E+03  0.00000000000E+00 0. -1.
         22    1    3    3    0    0  0.94445959709E+02 -0.14089296382E+03  0.16982044133E+03  0.24002051757E+03  0.00000000000E+00 0. -1.
         22    1    3    3    0    0 -0.30973030140E+02 -0.34743433366E+02  0.95552505074E+01  0.47515656056E+02  0.00000000000E+00 0. -1.
</event>
<event>
 7    1  0.7118985E-006  0.1772910E+03  0.7818608E-02  0.1297922E+00
          2   -1    0    0  502    0  0.00000000000E+00  0.00000000000E+00  0.16253479099E+04  0.16253479099E+04  0.00000000000E+00 0. -1.
          1   -1    0    0  501    0 -0.00000000000E+00 -0.00000000000E+00 -0.10231819816E+04  0.10231819816E+04  0.00000000000E+00 0. -1.
         25    2    1    2    0    0 -0.10886456508E+03  0.12861027419E+03  0.38064375241E+03  0.43463445391E+03  0.12500138447E+03 0.  0.
          2    1    1    2  501    0  0.14694757290E+03 -0.99705060698E+02 -0.98779666623E+03  0.10036318758E+04  0.00000000000E+00 0. -1.
          1    1    1    2  502    0 -0.38083007814E+02 -0.28905213487E+02  0.12093188422E+04  0.12102635618E+04  0.00000000000E+00 0. -1.
         22    1    3    3    0    0 -0.96937449272E+02  0.25930345683E+02  0.23962124048E+03  0.25978373850E+03  0.00000000000E+00 0.  1.
         22    1    3    3    0    0 -0.11927115811E+02  0.10267992850E+03  0.14102251193E+03  0.17485071541E+03  0.00000000000E+00 0.  1.
</event>
<event>
 7    1  0.7118985E-006  0.7028963E+02  0.7818608E-02  0.1502104E+00
          2   -1    0    0  502    0  0.00000000000E+00  0.00000000000E+00  0.46866033643E+03  0.46866033643E+03  0.00000000000E+00 0. -1.
          1   -1    0    0  501    0 -0.00000000000E+00 -0.00000000000E+00 -0.10950891178E+04  0.10950891178E+04  0.00000000000E+00 0. -1.
         25    2    1    2    0    0  0.33795749236E+02 -0.38187274378E+02 -0.96254663344E+01  0.13533860745E+03  0.12499387374E+03 0.  0.
          2    1    1    2  501    0  0.23352654989E+02 -0.42239992579E+01 -0.10193477739E+04  0.10196239860E+04  0.00000000000E+00 0. -1.
          1    1    1    2  502    0 -0.57148404225E+02  0.42411273636E+02  0.40254445883E+03  0.40878686081E+03  0.00000000000E+00 0. -1.
         22    1    3    3    0    0  0.32053223917E+02 -0.36695737351E+02  0.53390493200E+02  0.72280917726E+02  0.00000000000E+00 0.  1.
         22    1    3    3    0    0  0.17425253189E+01 -0.14915370276E+01 -0.63015959534E+02  0.63057689723E+02  0.00000000000E+00 0.  1.
</event>
<event>
 7    1  0.7118985E-006  0.6609853E+02  0.7818608E-02  0.1499983E+00
          2   -1    0    0  502    0  0.00000000000E+00  0.00000000000E+00  0.50858436024E+03  0.50858436024E+03  0.00000000000E+00 0. -1.
          1   -1    0    0  501    0 -0.00000000000E+00 -0.00000000000E+00 -0.36380376495E+03  0.36380376495E+03  0.00000000000E+00 0. -1.
         25    2    1    2    0    0  0.32947260158E+02  0.59806110179E+02  0.18917119811E+03  0.23679747563E+03  0.12500003801E+03 0.  0.
          2    1    1    2  501    0 -0.24863517323E+02  0.61225437400E+01 -0.33576563463E+03  0.33674061447E+03  0.00000000000E+00 0. -1.
          1    1    1    2  502    0 -0.80837428350E+01 -0.65928653919E+02  0.29137503182E+03  0.29885003509E+03  0.00000000000E+00 0. -1.
         22    1    3    3    0    0 -0.35692292096E+02 -0.59722625791E+01  0.16691866765E+02  0.39852553889E+02  0.00000000000E+00 0.  1.
         22    1    3    3    0    0  0.68639552255E+02  0.65778372758E+02  0.17247933135E+03  0.19694492174E+03  0.00000000000E+00 0.  1.
</event>
<event>
 7    1  0.7118985E-006  0.2249804E+03  0.7818608E-02  0.1262745E+00
          2   -1    0    0  502    0  0.00000000000E+00  0.00000000000E+00  0.42968356854E+03  0.42968356854E+03  0.00000000000E+00 0. -1.
          1   -1    0    0  501    0 -0.00000000000E+00 -0.00000000000E+00 -0.17402202642E+04  0.17402202642E+04  0.00000000000E+00 0. -1.
         25    2    1    2    0    0 -0.25308172807E+02  0.18234341539E+03 -0.31376404930E+03  0.38465971229E+03  0.12500236350E+03 0.  0.
          2    1    1    2  501    0  0.36689106198E+02 -0.23374652042E+03 -0.13791298344E+04  0.13992793240E+04  0.00000000000E+00 0. -1.
          1    1    1    2  502    0 -0.11380933391E+02  0.51403105024E+02  0.38235718806E+03  0.38596479647E+03  0.00000000000E+00 0. -1.
         22    1    3    3    0    0  0.30902713459E+02  0.24280001732E+01 -0.25010739216E+02  0.39829762240E+02  0.00000000000E+00 0.  1.
         22    1    3    3    0    0 -0.56210886266E+02  0.17991541522E+03 -0.28875331008E+03  0.34482995005E+03  0.00000000000E+00 0.  1.
</event>
<event>
 7    1  0.7118985E-006  0.1248866E+03  0.7818608E-02  0.1428944E+00
          2   -1    0    0  502    0  0.00000000000E+00  0.00000000000E+00  0.29873084078E+03  0.29873084078E+03  0.00000000000E+00 0. -1.
          1   -1    0    0  501    0 -0.00000000000E+00 -0.00000000000E+00 -0.58580864116E+03  0.58580864116E+03  0.00000000000E+00 0. -1.
         25    2    1    2    0    0 -0.25653785966E+02  0.13533060005E+03 -0.28241774057E+02  0.18814194704E+03  0.12500922522E+03 0.  0.
          2    1    1    2  501    0  0.39334201704E+02 -0.11729245893E+03 -0.46898764385E+03  0.48503000983E+03  0.00000000000E+00 0. -1.
          1    1    1    2  502    0 -0.13680415738E+02 -0.18038141114E+02  0.21015161753E+03  0.21136752508E+03  0.00000000000E+00 0. -1.
         22    1    3    3    0    0 -0.67220754350E+02  0.12587928028E+03 -0.14921138565E+02  0.14348123011E+03  0.00000000000E+00 0. -1.
         22    1    3    3    0    0  0.41566968384E+02  0.94513197664E+01 -0.13320635492E+02  0.44660716921E+02  0.00000000000E+00 0. -1.
</event>
<event>
 7    1  0.7118985E-006  0.1121962E+03  0.7818608E-02  0.1349026E+00
          2   -1    0    0  502    0  0.00000000000E+00  0.00000000000E+00  0.13993571301E+04  0.13993571301E+04  0.00000000000E+00 0. -1.
          1   -1    0    0  501    0 -0.00000000000E+00 -0.00000000000E+00 -0.71641152181E+03  0.71641152181E+03  0.00000000000E+00 0. -1.
         25    2    1    2    0    0 -0.81722388311E+02 -0.10980187971E+03  0.49542165858E+03  0.52896370637E+03  0.12499992530E+03 0.  0.
          2    1    1    2  501    0  0.33848925618E+02  0.10680980713E+03 -0.69449874835E+03  0.70347892373E+03  0.00000000000E+00 0. -1.
          1    1    1    2  502    0  0.47873462693E+02  0.29920725774E+01  0.88202269804E+03  0.88332602179E+03  0.00000000000E+00 0. -1.
         22    1    3    3    0    0 -0.38463096632E+02  0.12087531200E+02  0.45369325145E+02  0.60695089399E+02  0.00000000000E+00 0. -1.
         22    1    3    3    0    0 -0.43259291679E+02 -0.12188941091E+03  0.45005233344E+03  0.46826861697E+03  0.00000000000E+00 0. -1.
</event>
<event>
 7    1  0.7118985E-006  0.1516674E+03  0.7818608E-02  0.1274479E+00
          2   -1    0    0  502    0  0.00000000000E+00  0.00000000000E+00  0.11002501469E+04  0.11002501469E+04  0.00000000000E+00 0. -1.
          1   -1    0    0  501    0 -0.00000000000E+00 -0.00000000000E+00 -0.51416569051E+03  0.51416569051E+03  0.00000000000E+00 0. -1.
         25    2    1    2    0    0  0.94846493295E+02 -0.16237198003E+03 -0.19708382016E+03  0.29971073620E+03  0.12499590408E+03 0.  0.
          2    1    1    2  501    0  0.21736939493E+02  0.66226477545E+02 -0.25563535443E+03  0.26496768728E+03  0.00000000000E+00 0. -1.
          1    1    1    2  502    0 -0.11658343279E+03  0.96145502483E+02  0.10388036310E+04  0.10497374140E+04  0.00000000000E+00 0. -1.
         22    1    3    3    0    0  0.12530059044E+03 -0.14019664841E+03 -0.16737701424E+03  0.25173478719E+03  0.00000000000E+00 0.  1.
         22    1    3    3    0    0 -0.30454097141E+02 -0.22175331623E+02 -0.29706805923E+02  0.47975949010E+02  0.00000000000E+00 0.  1.
</event>
<event>
 7    1  0.7118985E-006  0.2530644E+03  0.7818608E-02  0.1192092E+00
          2   -1    0    0  502    0  0.00000000000E+00  0.00000000000E+00  0.23089872496E+04  0.23089872496E+04  0.00000000000E+00 0. -1.
          1   -1    0    0  501    0 -0.00000000000E+00 -0.00000000000E+00 -0.27843455532E+03  0.27843455532E+03  0.00000000000E+00 0. -1.
         25    2    1    2    0    0 -0.18654578967E+03  0.15513580503E+02  0.34782610928E+03  0.41430790270E+03  0.12501213190E+03 0.  0.
          2    1    1    2  501    0 -0.75716924687E+02  0.61329385233E+02 -0.22537716293E+03  0.24553861559E+03  0.00000000000E+00 0. -1.
          1    1    1    2  502    0  0.26226271435E+03 -0.76842965736E+02  0.19081037479E+04  0.19275752866E+04  0.00000000000E+00 0. -1.
         22    1    3    3    0    0 -0.38111071099E+02  0.59148600261E+02  0.10640549028E+03  0.12756621424E+03  0.00000000000E+00 0.  1.
         22    1    3    3    0    0 -0.14843471857E+03 -0.43635019758E+02  0.24142061899E+03  0.28674168846E+03  0.00000000000E+00 0.  1.
</event>
<event>
 7    1  0.7118985E-006  0.1331208E+03  0.7818608E-02  0.1304911E+00
          2   -1    0    0  502    0  0.00000000000E+00  0.00000000000E+00  0.14004214795E+04  0.14004214795E+04  0.00000000000E+00 0. -1.
          1   -1    0    0  501    0 -0.00000000000E+00 -0.00000000000E+00 -0.22915371298E+03  0.22915371298E+03  0.00000000000E+00 0. -1.
         25    2    1    2    0    0  0.15605086227E+03 -0.61650758221E+02  0.92065665555E+03  0.94413208287E+03  0.12499609949E+03 0.  0.
          2    1    1    2  501    0 -0.44750051977E+02  0.39530526555E+02 -0.20624001278E+03  0.21470950737E+03  0.00000000000E+00 0. -1.
          1    1    1    2  502    0 -0.11130081029E+03  0.22120231666E+02  0.45685112371E+03  0.47073360221E+03  0.00000000000E+00 0. -1.
         22    1    3    3    0    0  0.39230307006E+02 -0.78697327468E+02  0.31321341476E+03  0.32532280819E+03  0.00000000000E+00 0. -1.
         22    1    3    3    0    0  0.11682055526E+03  0.17046569246E+02  0.60744324079E+03  0.61880927468E+03  0.00000000000E+00 0. -1.
</event>
<event>
 7    1  0.7118985E-006  0.1877314E+03  0.7818608E-02  0.1228352E+00
          2   -1    0    0  502    0  0.00000000000E+00  0.00000000000E+00  0.89086238624E+03  0.89086238624E+03  0.00000000000E+00 0. -1.
          1   -1    0    0  501    0 -0.00000000000E+00 -0.00000000000E+00 -0.11066523696E+04  0.11066523696E+04  0.00000000000E+00 0. -1.
         25    2    1    2    0    0 -0.37458767133E+01 -0.15875352806E+03  0.30806717809E+03  0.36843594499E+03  0.12499178004E+03 0.  0.
          2    1    1    2  501    0 -0.84882600532E+02  0.16874636264E+03 -0.10644995763E+04  0.10811289186E+04  0.00000000000E+00 0. -1.
          1    1    1    2  502    0  0.88628477245E+02 -0.99928345794E+01  0.54064241481E+03  0.54794989225E+03  0.00000000000E+00 0. -1.
         22    1    3    3    0    0  0.30177451882E+02 -0.92474247060E+02  0.72324448766E+02  0.12121464788E+03  0.00000000000E+00 0. -1.
         22    1    3    3    0    0 -0.33923328595E+02 -0.66279281000E+02  0.23574272933E+03  0.24722129711E+03  0.00000000000E+00 0. -1.
</event>
<event>
 7    1  0.7118985E-006  0.8522355E+02  0.7818608E-02  0.1432942E+00
          2   -1    0    0  502    0  0.00000000000E+00  0.00000000000E+00  0.20814678359E+03  0.20814678359E+03  0.00000000000E+00 0. -1.
          1   -1    0    0  501    0 -0.00000000000E+00 -0.00000000000E+00 -0.10593235813E+03  0.10593235813E+03  0.00000000000E+00 0. -1.
         25    2    1    2    0    0  0.78817257149E+02  0.12096481749E+02  0.46247595128E+02  0.15531314193E+03  0.12499938842E+03 0.  0.
          2    1    1    2  501    0 -0.19240421540E+01  0.32128837615E+02 -0.23356160113E+02  0.39767755279E+02  0.00000000000E+00 0. -1.
          1    1    1    2  502    0 -0.76893214995E+02 -0.44225319364E+02  0.79322990440E+02  0.11899824451E+03  0.00000000000E+00 0. -1.
         22    1    3    3    0    0  0.34351356203E+02  0.45453823835E+02 -0.27255251640E+02  0.63157853955E+02  0.00000000000E+00 0. -1.
         22    1    3    3    0    0  0.44465900945E+02 -0.33357342086E+02  0.73502846768E+02  0.92155287971E+02  0.00000000000E+00 0. -1.
</event>
<event>
 7    1  0.7118985E-006  0.3171189E+03  0.7818608E-02  0.1248046E+00
          2   -1    0    0  502    0  0.00000000000E+00  0.00000000000E+00  0.31195871985E+04  0.31195871985E+04  0.00000000000E+00 0. -1.
          1   -1    0    0  501    0 -0.00000000000E+00 -0.00000000000E+00 -0.11193116217E+04  0.11193116217E+04  0.00000000000E+00 0. -1.
         25    2    1    2    0    0  0.17241304128E+03 -0.22020044397E+03 -0.20285066965E+03  0.36740840333E+03  0.12500419326E+03 0.  0.
          2    1    1    2  501    0  0.70036138327E+01 -0.42631486001E+02 -0.82527992431E+03  0.82640997555E+03  0.00000000000E+00 0. -1.
          1    1    1    2  502    0 -0.17941665511E+03  0.26283192997E+03  0.30284061707E+04  0.30450804414E+04  0.00000000000E+00 0. -1.
         22    1    3    3    0    0  0.83792143014E+02 -0.22099669068E+02 -0.80484270933E+02  0.11826764761E+03  0.00000000000E+00 0.  1.
         22    1    3    3    0    0  0.88620898264E+02 -0.19810077490E+03 -0.12236639872E+03  0.24914075572E+03  0.00000000000E+00 0.  1.
</event>
<event>
 7    1  0.7118985E-006  0.1870752E+03  0.7818608E-02  0.1287705E+00
          2   -1    0    0  502    0  0.00000000000E+00  0.00000000000E+00  0.10470804885E+04  0.10470804885E+04  0.00000000000E+00 0. -1.
          1   -1    0    0  501    0 -0.00000000000E+00 -0.00000000000E+00 -0.12195327282E+04  0.12195327282E+04  0.00000000000E+00 0. -1.
         25    2    1    2    0    0 -0.10502904858E+03  0.12375374612E+03 -0.89080036287E+02  0.22339635106E+03  0.12499834430E+03 0.  0.
          2    1    1    2  501    0  0.15368558932E+03 -0.11296528486E+03 -0.10540964185E+04  0.10712141127E+04  0.00000000000E+00 0. -1.
          1    1    1    2  502    0 -0.48656540739E+02 -0.10788461258E+02  0.97072421508E+03  0.97200275288E+03  0.00000000000E+00 0. -1.
         22    1    3    3    0    0 -0.93327695447E+01 -0.25350659572E+02 -0.58101732644E+01  0.27631768700E+02  0.00000000000E+00 0. -1.
         22    1    3    3    0    0 -0.95696279035E+02  0.14910440569E+03 -0.83269863023E+02  0.19576458236E+03  0.00000000000E+00 0. -1.
</event>
<event>
 7    1  0.7118985E-006  0.1512194E+03  0.7818608E-02  0.1281809E+00
          2   -1    0    0  502    0  0.00000000000E+00  0.00000000000E+00  0.94181207948E+03  0.94181207948E+03  0.00000000000E+00 0. -1.
          1   -1    0    0  501    0 -0.00000000000E+00 -0.00000000000E+00 -0.54839280079E+03  0.54839280079E+03  0.00000000000E+00 0. -1.
         25    2    1    2    0    0 -0.26740926239E+02 -0.19499646492E+03  0.11357178666E+03  0.25934820241E+03  0.12499696356E+03 0.  0.
          2    1    1    2  501    0  0.43343699714E+02  0.48687692303E+02 -0.46603851709E+03  0.47057525126E+03  0.00000000000E+00 0. -1.
          1    1    1    2  502    0 -0.16602773475E+02  0.14630877262E+03  0.74588600913E+03  0.76028142661E+03  0.00000000000E+00 0. -1.
         22    1    3    3    0    0  0.90310549838E+01 -0.19447765021E+03  0.80653909197E+02  0.21073245943E+03  0.00000000000E+00 0. -1.
         22    1    3    3    0    0 -0.35771981223E+02 -0.51881470799E+00  0.32917877458E+02  0.48615742982E+02  0.00000000000E+00 0. -1.
</event>
<event>
 7    1  0.7118985E-006  0.6263359E+02  0.7818608E-02  0.1536524E+00
          2   -1    0    0  502    0  0.00000000000E+00  0.00000000000E+00  0.11007929834E+04  0.11007929834E+04  0.00000000000E+00 0. -1.
          1   -1    0    0  501    0 -0.00000000000E+00 -0.00000000000E+00 -0.77901619085E+02  0.77901619085E+02  0.00000000000E+00 0. -1.
         25    2    1    2    0    0 -0.75474261690E+02  0.30968489839E+02  0.11390561681E+03  0.18776129551E+03  0.12499761201E+03 0.  0.
          2    1    1    2  501    0  0.15644348145E+02 -0.14235896270E+02 -0.37155614979E+02  0.42754486267E+02  0.00000000000E+00 0. -1.
          1    1    1    2  502    0  0.59829913544E+02 -0.16732593570E+02  0.94614136247E+03  0.94817882070E+03  0.00000000000E+00 0. -1.
         22    1    3    3    0    0 -0.50836838848E+02  0.41146649339E+02 -0.52952820411E+01  0.65616087569E+02  0.00000000000E+00 0.  1.
         22    1    3    3    0    0 -0.24637422842E+02 -0.10178159500E+02  0.11920089885E+03  0.12214520794E+03  0.00000000000E+00 0.  1.
</event>
<event>
 7    1  0.7118985E-006  0.1111143E+03  0.7818608E-02  0.1340116E+00
          2   -1    0    0  502    0  0.00000000000E+00  0.00000000000E+00  0.80138730277E+03  0.80138730277E+03  0.00000000000E+00 0. -1.
          1   -1    0    0  501    0 -0.00000000000E+00 -0.00000000000E+00 -0.21687679095E+03  0.21687679095E+03  0.00000000000E+00 0. -1.
         25    2    1    2    0    0  0.89785668166E+02  0.68206719596E+02  0.46486668736E+02  0.17464277695E+03  0.12500186545E+03 0.  0.
          2    1    1    2  501    0 -0.41032768427E+02  0.32415922478E+02 -0.14363265479E+03  0.15285555154E+03  0.00000000000E+00 0. -1.
          1    1    1    2  502    0 -0.48752899739E+02 -0.10062264207E+03  0.68165649787E+03  0.69076576523E+03  0.00000000000E+00 0. -1.
         22    1    3    3    0    0  0.11992151429E+03  0.67698382367E+02  0.43180524456E+02  0.14432185648E+03  0.00000000000E+00 0. -1.
         22    1    3    3    0    0 -0.30135846126E+02  0.50833722840E+00  0.33061442794E+01  0.30320920475E+02  0.00000000000E+00 0. -1.
</event>
<event>
 7    1  0.7118985E-006  0.9708277E+02  0.7818608E-02  0.1323610E+00
          2   -1    0    0  502    0  0.00000000000E+00  0.00000000000E+00  0.23795093355E+04  0.23795093355E+04  0.00000000000E+00 0. -1.
          1   -1    0    0  501    0 -0.00000000000E+00 -0.00000000000E+00 -0.35735519750E+02  0.35735519750E+02  0.00000000000E+00 0. -1.
         25    2    1    2    0    0  0.96673385931E+02 -0.33777146457E+01  0.58595131742E+03  0.60688487339E+03  0.12495259366E+03 0.  0.
          2    1    1    2  501    0 -0.19023208205E+02  0.66506907955E+02  0.26388776686E+02  0.74036604400E+02  0.00000000000E+00 0. -1.
          1    1    1    2  502    0 -0.77650177726E+02 -0.63129193309E+02  0.17314337216E+04  0.17343233774E+04  0.00000000000E+00 0. -1.
         22    1    3    3    0    0 -0.19774495942E+02  0.29868954042E+02  0.16601625252E+03  0.16983692533E+03  0.00000000000E+00 0. -1.
         22    1    3    3    0    0  0.11644788187E+03 -0.33246668688E+02  0.41993506490E+03  0.43704794806E+03  0.00000000000E+00 0. -1.
</event>
<event>
 7    1  0.7118985E-006  0.2432022E+03  0.7818608E-02  0.1231745E+00
          2   -1    0    0  502    0  0.00000000000E+00  0.00000000000E+00  0.19424456581E+04  0.19424456581E+04  0.00000000000E+00 0. -1.
          1   -1    0    0  501    0 -0.00000000000E+00 -0.00000000000E+00 -0.28111683205E+03  0.28111683205E+03  0.00000000000E+00 0. -1.
         25    2    1    2    0    0  0.12684266461E+03  0.26226066189E+03  0.60616388106E+03  0.68405306113E+03  0.12499689355E+03 0.  0.
          2    1    1    2  501    0 -0.48914325666E+02 -0.45018206694E+02 -0.22710490382E+03  0.23663450199E+03  0.00000000000E+00 0. -1.
          1    1    1    2  502    0 -0.77928338947E+02 -0.21724245519E+03  0.12822698488E+04  0.13028749271E+04  0.00000000000E+00 0. -1.
         22    1    3    3    0    0  0.57281906701E+02  0.12044701590E+03  0.14704207361E+03  0.19851970150E+03  0.00000000000E+00 0.  1.
         22    1    3    3    0    0  0.69560757912E+02  0.14181364599E+03  0.45912180746E+03  0.48553335963E+03  0.00000000000E+00 0.  1.
</event>
<event>
 7    1  0.7118985E-006  0.9541025E+02  0.7818608E-02  0.1307936E+00
          2   -1    0    0  502    0  0.00000000000E+00  0.00000000000E+00  0.31770335897E+03  0.31770335897E+03  0.00000000000E+00 0. -1.
          1   -1    0    0  501    0 -0.00000000000E+00 -0.00000000000E+00 -0.29437585416E+04  0.29437585416E+04  0.00000000000E+00 0. -1.
         25    2    1    2    0    0  0.35170248983E+02 -0.10907171261E+03  0.22791042859E+02  0.17109498301E+03  0.12498190538E+03 0.  0.
          2    1    1    2  501    0 -0.77901751025E+02  0.22338773035E+02 -0.28584178543E+04  0.28595664589E+04  0.00000000000E+00 0. -1.
          1    1    1    2  502    0  0.42731502042E+02  0.86732939572E+02  0.20957162881E+03  0.23080045857E+03  0.00000000000E+00 0. -1.
         22    1    3    3    0    0  0.56195105567E+02 -0.16559900797E+02 -0.26367326355E+02  0.64244502513E+02  0.00000000000E+00 0. -1.
         22    1    3    3    0    0 -0.21024856584E+02 -0.92511811810E+02  0.49158369213E+02  0.10685048050E+03  0.00000000000E+00 0. -1.
</event>
<event>
 7    1  0.7118985E-006  0.1090904E+03  0.7818608E-02  0.1296414E+00
          2   -1    0    0  502    0  0.00000000000E+00  0.00000000000E+00  0.41215325325E+03  0.41215325325E+03  0.00000000000E+00 0. -1.
          1   -1    0    0  501    0 -0.00000000000E+00 -0.00000000000E+00 -0.52098528637E+03  0.52098528637E+03  0.00000000000E+00 0. -1.
         25    2    1    2    0    0  0.34695716510E+02  0.28861656348E+02 -0.11271726663E+03  0.17426008283E+03  0.12499842527E+03 0.  0.
          2    1    1    2  501    0  0.57362354806E+00  0.78790318703E+02 -0.36478447753E+03  0.37319694320E+03  0.00000000000E+00 0. -1.
          1    1    1    2  502    0 -0.35269340058E+02 -0.10765197505E+03  0.36866971105E+03  0.38568151359E+03  0.00000000000E+00 0. -1.
         22    1    3    3    0    0 -0.29218229676E+01 -0.74006788877E+00  0.26692028796E+02  0.26861666947E+02  0.00000000000E+00 0.  1.
         22    1    3    3    0    0  0.37617539477E+02  0.29601724237E+02 -0.13940929543E+03  0.14739841588E+03  0.00000000000E+00 0.  1.
</event>
<event>
 7    1  0.7118985E-006  0.9162773E+02  0.7818608E-02  0.1476862E+00
          2   -1    0    0  502    0  0.00000000000E+00  0.00000000000E+00  0.78355366782E+03  0.78355366782E+03  0.00000000000E+00 0. -1.
          1   -1    0    0  501    0 -0.00000000000E+00 -0.00000000000E+00 -0.84523001477E+02  0.84523001477E+02  0.00000000000E+00 0. -1.
         25    2    1    2    0    0 -0.44336059608E+02  0.93822649394E+02  0.51838047459E+02  0.17053152834E+03  0.12500177308E+03 0.  0.
          2    1    1    2  501    0  0.20916138753E+02 -0.58095226307E+01 -0.16728814480E+02  0.27405996560E+02  0.00000000000E+00 0. -1.
          1    1    1    2  502    0  0.23419920855E+02 -0.88013126763E+02  0.66392143337E+03  0.67013914440E+03  0.00000000000E+00 0. -1.
         22    1    3    3    0    0 -0.56928458945E+02  0.11690114548E+03  0.59720585423E+02  0.14308485446E+03  0.00000000000E+00 0. -1.
         22    1    3    3    0    0  0.12592399337E+02 -0.23078496082E+02 -0.78825379631E+01  0.27446673883E+02  0.00000000000E+00 0. -1.
</event>
<event>
 7    1  0.7118985E-006  0.1262959E+03  0.7818608E-02  0.1327583E+00
          2   -1    0    0  502    0  0.00000000000E+00  0.00000000000E+00  0.49174905755E+03  0.49174905755E+03  0.00000000000E+00 0. -1.
          1   -1    0    0  501    0 -0.00000000000E+00 -0.00000000000E+00 -0.14702892829E+04  0.14702892829E+04  0.00000000000E+00 0. -1.
         25    2    1    2    0    0 -0.76805265014E+02 -0.27219433629E+02 -0.47284143872E+03  0.49582634262E+03  0.12499915823E+03 0.  0.
          2    1    1    2  501    0 -0.30055256646E+02 -0.41616990083E+02 -0.97685867397E+03  0.97820660457E+03  0.00000000000E+00 0. -1.
          1    1    1    2  502    0  0.10686052166E+03  0.68836423713E+02  0.47115988740E+03  0.48800539322E+03  0.00000000000E+00 0. -1.
         22    1    3    3    0    0 -0.74158605692E+02  0.37750660951E+02 -0.29314433335E+03  0.30472645335E+03  0.00000000000E+00 0. -1.
         22    1    3    3    0    0 -0.26466593214E+01 -0.64970094581E+02 -0.17969710538E+03  0.19109988926E+03  0.00000000000E+00 0. -1.
</event>
<event>
 7    1  0.7118985E-006  0.1451043E+03  0.7818608E-02  0.1411351E+00
          2   -1    0    0  502    0  0.00000000000E+00  0.00000000000E+00  0.43903610166E+03  0.43903610166E+03  0.00000000000E+00 0. -1.
          1   -1    0    0  501    0 -0.00000000000E+00 -0.00000000000E+00 -0.43250586050E+03  0.43250586050E+03  0.00000000000E+00 0. -1.
         25    2    1    2    0    0  0.15663529456E+03 -0.22532073680E+02  0.67242933249E+02  0.21257678554E+03  0.12499987132E+03 0.  0.
          2    1    1    2  501    0 -0.18723446673E+02 -0.12125963122E+02 -0.34255570458E+03  0.34328125084E+03  0.00000000000E+00 0. -1.
          1    1    1    2  502    0 -0.13791184789E+03  0.34658036802E+02  0.28184301249E+03  0.31568392578E+03  0.00000000000E+00 0. -1.
         22    1    3    3    0    0  0.14940923985E+03  0.26730512709E+02  0.47879153793E+02  0.15915418508E+03  0.00000000000E+00 0.  1.
         22    1    3    3    0    0  0.72260547153E+01 -0.49262586389E+02  0.19363779455E+02  0.53422600454E+02  0.00000000000E+00 0.  1.
</event>
<event>
 7    1  0.7118985E-006  0.5181771E+02  0.7818608E-02  0.1489927E+00
          2   -1    0    0  502    0  0.00000000000E+00  0.00000000000E+00  0.11259270468E+04  0.11259270468E+04  0.00000000000E+00 0. -1.
          1   -1    0    0  501    0 -0.00000000000E+00 -0.00000000000E+00 -0.23329473809E+03  0.23329473809E+03  0.00000000000E+00 0. -1.
         25    2    1    2    0    0  0.50518763898E+02  0.57285920084E+02  0.55585962344E+03  0.57483827959E+03  0.12500121825E+03 0.  0.
          2    1    1    2  501    0 -0.46572055290E+02 -0.22492182686E+02 -0.22026035256E+03  0.22625091719E+03  0.00000000000E+00 0. -1.
          1    1    1    2  502    0 -0.39467086074E+01 -0.34793737398E+02  0.55703303787E+03  0.55813258814E+03  0.00000000000E+00 0. -1.
         22    1    3    3    0    0  0.56903102610E+02 -0.15512499917E+02  0.12999459281E+03  0.14274871243E+03  0.00000000000E+00 0.  1.
         22    1    3    3    0    0 -0.63843387123E+01  0.72798420001E+02  0.42586503062E+03  0.43208956715E+03  0.00000000000E+00 0.  1.
</event>
<event>
 7    1  0.7118985E-006  0.9311015E+02  0.7818608E-02  0.1385816E+00
          2   -1    0    0  502    0  0.00000000000E+00  0.00000000000E+00  0.55636251549E+03  0.55636251549E+03  0.00000000000E+00 0. -1.
          1   -1    0    0  501    0 -0.00000000000E+00 -0.00000000000E+00 -0.70971508108E+03  0.70971508108E+03  0.00000000000E+00 0. -1.
         25    2    1    2    0    0  0.43490938860E+02  0.26621966001E+02  0.33568393018E+03  0.36181292495E+03  0.12499880337E+03 0.  0.
          2    1    1    2  501    0 -0.81453516130E+02 -0.45888915728E+02 -0.69128800384E+03  0.69758122977E+03  0.00000000000E+00 0. -1.
          1    1    1    2  502    0  0.37962577270E+02  0.19266949727E+02  0.20225150806E+03  0.20668344186E+03  0.00000000000E+00 0. -1.
         22    1    3    3    0    0  0.15852579902E+02 -0.11626953545E+02  0.30476021796E+03  0.30539364890E+03  0.00000000000E+00 0. -1.
         22    1    3    3    0    0  0.27638358958E+02  0.38248919547E+02  0.30923712221E+02  0.56419276049E+02  0.00000000000E+00 0. -1.
</event>
<event>
 7    1  0.7118985E-006  0.3100266E+02  0.7818608E-02  0.1595145E+00
          2   -1    0    0  502    0  0.00000000000E+00  0.00000000000E+00  0.16031239909E+03  0.16031239909E+03  0.00000000000E+00 0. -1.
          1   -1    0    0  501    0 -0.00000000000E+00 -0.00000000000E+00 -0.53662856842E+03  0.53662856842E+03  0.00000000000E+00 0. -1.
         25    2    1    2    0    0 -0.16303817461E+02 -0.51068893088E+02  0.11219741216E+02  0.13644294950E+03  0.12496779413E+03 0.  0.
          2    1    1    2  501    0  0.20661174676E+02  0.21127378174E+02 -0.47089307800E+03  0.47181939464E+03  0.00000000000E+00 0. -1.
          1    1    1    2  502    0 -0.43573572157E+01  0.29941514914E+02  0.83357167454E+02  0.88678623372E+02  0.00000000000E+00 0. -1.
         22    1    3    3    0    0  0.45393754175E+02 -0.58269701326E+02  0.61760396114E+01  0.74122159143E+02  0.00000000000E+00 0.  1.
         22    1    3    3    0    0 -0.61697571635E+02  0.72008082376E+01  0.50437016045E+01  0.62320790358E+02  0.00000000000E+00 0.  1.
</event>
<event>
 7    1  0.7118985E-006  0.7831736E+02  0.7818608E-02  0.1381434E+00
          2   -1    0    0  502    0  0.00000000000E+00  0.00000000000E+00  0.35219784858E+03  0.35219784858E+03  0.00000000000E+00 0. -1.
          1   -1    0    0  501    0 -0.00000000000E+00 -0.00000000000E+00 -0.31141889636E+03  0.31141889636E+03  0.00000000000E+00 0. -1.
         25    2    1    2    0    0 -0.12813566793E+03  0.10026238275E+02  0.77890430995E+02  0.19547613304E+03  0.12499889800E+03 0.  0.
          2    1    1    2  501    0  0.76103933765E+02 -0.34591737618E+01 -0.24352799904E+03  0.25516594783E+03  0.00000000000E+00 0. -1.
          1    1    1    2  502    0  0.52031734164E+02 -0.65670645129E+01  0.20641652026E+03  0.21297466406E+03  0.00000000000E+00 0. -1.
         22    1    3    3    0    0 -0.27447941563E+02 -0.41315927298E+02 -0.12037978741E+02  0.51042220531E+02  0.00000000000E+00 0. -1.
         22    1    3    3    0    0 -0.10068772636E+03  0.51342165573E+02  0.89928409736E+02  0.14443391251E+03  0.00000000000E+00 0. -1.
</event>
<event>
 7    1  0.7118985E-006  0.1164330E+03  0.7818608E-02  0.1317389E+00
          2   -1    0    0  502    0  0.00000000000E+00  0.00000000000E+00  0.28596664923E+04  0.28596664923E+04  0.00000000000E+00 0. -1.
          1   -1    0    0  501    0 -0.00000000000E+00 -0.00000000000E+00 -0.29074876539E+03  0.29074876539E+03  0.00000000000E+00 0. -1.
         25    2    1    2    0    0 -0.15286587086E+03  0.86397634431E+02  0.72991657653E+03  0.76107969717E+03  0.12502628139E+03 0.  0.
          2    1    1    2  501    0  0.10433578242E+03 -0.49487632909E+02 -0.26259022962E+03  0.28685991354E+03  0.00000000000E+00 0. -1.
          1    1    1    2  502    0  0.48530088439E+02 -0.36910001522E+02  0.21015913800E+04  0.21024756470E+04  0.00000000000E+00 0. -1.
         22    1    3    3    0    0  0.16416926509E+02  0.34426210379E+02  0.11389075418E+03  0.12010738247E+03  0.00000000000E+00 0. -1.
         22    1    3    3    0    0 -0.16928279736E+03  0.51971424052E+02  0.61602582235E+03  0.64097231470E+03  0.00000000000E+00 0. -1.
</event>
<event>
 7    1  0.7118985E-006  0.5769037E+02  0.7818608E-02  0.1409095E+00
          2   -1    0    0  502    0  0.00000000000E+00  0.00000000000E+00  0.26084010044E+03  0.26084010044E+03  0.00000000000E+00 0. -1.
          1   -1    0    0  501    0 -0.00000000000E+00 -0.00000000000E+00 -0.29912079135E+03  0.29912079135E+03  0.00000000000E+00 0. -1.
         25    2    1    2    0    0 -0.22836448300E+02 -0.39350327804E+02  0.80193272213E+02  0.15532292387E+03  0.12499719238E+03 0.  0.
          2    1    1    2  501    0 -0.40576365674E+02  0.41008985139E+02 -0.25108952399E+03  0.25763176701E+03  0.00000000000E+00 0. -1.
          1    1    1    2  502    0  0.63412813974E+02 -0.16586573349E+01  0.13261556087E+03  0.14700620091E+03  0.00000000000E+00 0. -1.
         22    1    3    3    0    0 -0.42952645889E+02 -0.31178241444E+02 -0.17001775128E+02  0.55732153071E+02  0.00000000000E+00 0.  1.
         22    1    3    3    0    0  0.20116197590E+02 -0.81720863601E+01  0.97195047341E+02  0.99590770800E+02  0.00000000000E+00 0.  1.
</event>
<event>
 7    1  0.1473738E-005  0.5830697E+02  0.7818608E-02  0.1473730E+00
          2   -1    0    0  502    0  0.00000000000E+00  0.00000000000E+00  0.17684728615E+04  0.17684728615E+04  0.00000000000E+00 0. -1.
          1   -1    0    0  501    0 -0.00000000000E+00 -0.00000000000E+00 -0.12219320758E+04  0.12219320758E+04  0.00000000000E+00 0. -1.
         25    2    1    2    0    0 -0.54116266469E+02 -0.70503099146E+02 -0.54973048876E+03  0.57072531610E+03  0.12499807549E+03 0.  0.
          2    1    1    2  501    0  0.30278977766E+02  0.17318006218E+02 -0.66076094977E+03  0.66168101271E+03  0.00000000000E+00 0. -1.
          1    1    1    2  502    0  0.23837288704E+02  0.53185092928E+02  0.17570322242E+04  0.17579986085E+04  0.00000000000E+00 0. -1.
         22    1    3    3    0    0  0.77009938867E+01  0.18969195514E+02 -0.15877254553E+02  0.25907969767E+02  0.00000000000E+00 0.  1.
         22    1    3    3    0    0 -0.61817260356E+02 -0.89472294660E+02 -0.53385323421E+03  0.54481734633E+03  0.00000000000E+00 0.  1.
</event>
<event>
 7    1  0.7118985E-006  0.6747410E+02  0.7818608E-02  0.1478320E+00
          2   -1    0    0  502    0  0.00000000000E+00  0.00000000000E+00  0.23312843987E+03  0.23312843987E+03  0.00000000000E+00 0. -1.
          1   -1    0    0  501    0 -0.00000000000E+00 -0.00000000000E+00 -0.31232195733E+03  0.31232195733E+03  0.00000000000E+00 0. -1.
         25    2    1    2    0    0  0.44686274559E+02 -0.45305889147E+02 -0.67813857660E+02  0.15579792456E+03  0.12499914912E+03 0.  0.
          2    1    1    2  501    0 -0.22236854341E+02 -0.18887768976E+02 -0.19327255537E+03  0.19546228835E+03  0.00000000000E+00 0. -1.
          1    1    1    2  502    0 -0.22449420218E+02  0.64193658123E+02  0.18189289558E+03  0.19419018428E+03  0.00000000000E+00 0. -1.
         22    1    3    3    0    0  0.86621801253E+02 -0.16121834383E+02 -0.33547650364E+02  0.94279875059E+02  0.00000000000E+00 0.  1.
         22    1    3    3    0    0 -0.41935526694E+02 -0.29184054764E+02 -0.34266207296E+02  0.61518049498E+02  0.00000000000E+00 0.  1.
</event>
<event>
 7    1  0.7118985E-006  0.9497576E+02  0.7818608E-02  0.1358851E+00
          2   -1    0    0  502    0  0.00000000000E+00  0.00000000000E+00  0.74513253509E+02  0.74513253509E+02  0.00000000000E+00 0. -1.
          1   -1    0    0  501    0 -0.00000000000E+00 -0.00000000000E+00 -0.19358303685E+04  0.19358303685E+04  0.00000000000E+00 0. -1.
         25    2    1    2    0    0  0.41889913260E+02 -0.83406230729E+02 -0.86827917001E+02  0.17853730963E+03  0.12500047841E+03 0.  0.
          2    1    1    2  501    0  0.43684370690E+02  0.28453614291E+02 -0.17112595504E+04  0.17120534984E+04  0.00000000000E+00 0. -1.
          1    1    1    2  502    0 -0.85574283950E+02  0.54952616438E+02 -0.63229647559E+02  0.11975281399E+03  0.00000000000E+00 0. -1.
         22    1    3    3    0    0 -0.36676303852E+01 -0.93403536117E+02 -0.92555478427E+02  0.13154538631E+03  0.00000000000E+00 0.  1.
         22    1    3    3    0    0  0.45557543645E+02  0.99973053880E+01  0.57275614256E+01  0.46991923326E+02  0.00000000000E+00 0.  1.
</event>
<event>
 7    1  0.7118985E-006  0.8497615E+02  0.7818608E-02  0.1480692E+00
          2   -1    0    0  502    0  0.00000000000E+00  0.00000000000E+00  0.78829370085E+03  0.78829370085E+03  0.00000000000E+00 0. -1.
          1   -1    0    0  501    0 -0.00000000000E+00 -0.00000000000E+00 -0.34497313099E+03  0.34497313099E+03  0.00000000000E+00 0. -1.
         25    2    1    2    0    0  0.69366218663E+02 -0.23299358330E+02  0.86378179011E+02  0.16864412185E+03  0.12500047054E+03 0.  0.
          2    1    1    2  501    0  0.32925511978E+01 -0.22542243828E+02 -0.30061491747E+03  0.30147690170E+03  0.00000000000E+00 0. -1.
          1    1    1    2  502    0 -0.72658769861E+02  0.45841602158E+02  0.65755730832E+03  0.66314580829E+03  0.00000000000E+00 0. -1.
         22    1    3    3    0    0 -0.21250087457E+02 -0.75506381585E+01 -0.18485905355E+02  0.29160024868E+02  0.00000000000E+00 0. -1.
         22    1    3    3    0    0  0.90616306119E+02 -0.15748720171E+02  0.10486408437E+03  0.13948409698E+03  0.00000000000E+00 0. -1.
</event>
<event>
 7    1  0.7118985E-006  0.1238050E+03  0.7818608E-02  0.1275479E+00
          2   -1    0    0  502    0  0.00000000000E+00  0.00000000000E+00  0.60443650198E+03  0.60443650198E+03  0.00000000000E+00 0. -1.
          1   -1    0    0  501    0 -0.00000000000E+00 -0.00000000000E+00 -0.48629011714E+03  0.48629011714E+03  0.00000000000E+00 0. -1.
         25    2    1    2    0    0  0.97690610213E+02 -0.20970125467E+02  0.29506989766E+03  0.33567009797E+03  0.12499987472E+03 0.  0.
          2    1    1    2  501    0  0.21320172671E+02 -0.81842276301E+02 -0.44027200753E+03  0.44832147904E+03  0.00000000000E+00 0. -1.
          1    1    1    2  502    0 -0.11901078288E+03  0.10281240177E+03  0.26334849470E+03  0.30673504212E+03  0.00000000000E+00 0. -1.
         22    1    3    3    0    0  0.12604275681E+03 -0.24531780606E+01  0.22774917959E+03  0.26031228060E+03  0.00000000000E+00 0. -1.
         22    1    3    3    0    0 -0.28352146593E+02 -0.18516947406E+02  0.67320718064E+02  0.75357817367E+02  0.00000000000E+00 0. -1.
</event>
<event>
 7    1  0.7118985E-006  0.8103105E+02  0.7818608E-02  0.1375697E+00
          2   -1    0    0  502    0  0.00000000000E+00  0.00000000000E+00  0.10213683730E+04  0.10213683730E+04  0.00000000000E+00 0. -1.
          1   -1    0    0  501    0 -0.00000000000E+00 -0.00000000000E+00 -0.15006109836E+03  0.15006109836E+03  0.00000000000E+00 0. -1.
         25    2    1    2    0    0  0.11450603546E+03 -0.69871059929E+01  0.82046826362E+02  0.18845912628E+03  0.12499883502E+03 0.  0.
          2    1    1    2  501    0 -0.73357039245E+02 -0.26608044617E+02 -0.80194224160E+02  0.11189440037E+03  0.00000000000E+00 0. -1.
          1    1    1    2  502    0 -0.41148996212E+02  0.33595150610E+02  0.86945467242E+03  0.87107594469E+03  0.00000000000E+00 0. -1.
         22    1    3    3    0    0  0.11204189229E+03  0.30622116904E+02  0.93455272361E+02  0.14908047358E+03  0.00000000000E+00 0.  1.
         22    1    3    3    0    0  0.24641431680E+01 -0.37609222897E+02 -0.11408445999E+02  0.39378652702E+02  0.00000000000E+00 0.  1.
</event>
<event>
 7    1  0.7118985E-006  0.1683893E+03  0.7818608E-02  0.1250924E+00
          2   -1    0    0  502    0  0.00000000000E+00  0.00000000000E+00  0.77768760767E+03  0.77768760767E+03  0.00000000000E+00 0. -1.
          1   -1    0    0  501    0 -0.00000000000E+00 -0.00000000000E+00 -0.35416594832E+03  0.35416594832E+03  0.00000000000E+00 0. -1.
         25    2    1    2    0    0  0.12005376286E+03  0.13598807131E+03  0.37703538243E+03  0.43667707463E+03  0.12500210554E+03 0.  0.
          2    1    1    2  501    0 -0.15545306466E+03 -0.65302500367E+02 -0.29764285994E+03  0.34208382590E+03  0.00000000000E+00 0. -1.
          1    1    1    2  502    0  0.35399301796E+02 -0.70685570939E+02  0.34412913686E+03  0.35309265546E+03  0.00000000000E+00 0. -1.
         22    1    3    3    0    0  0.17972873636E+02 -0.14402985246E+02  0.11803398284E+03  0.12026009843E+03  0.00000000000E+00 0. -1.
         22    1    3    3    0    0  0.10208088922E+03  0.15039105655E+03  0.25900139959E+03  0.31641697620E+03  0.00000000000E+00 0. -1.
</event>
<event>
 7    1  0.7118985E-006  0.8320104E+02  0.7818608E-02  0.1387496E+00
          2   -1    0    0  502    0  0.00000000000E+00  0.00000000000E+00  0.32746422037E+03  0.32746422037E+03  0.00000000000E+00 0. -1.
          1   -1    0    0  501    0 -0.00000000000E+00 -0.00000000000E+00 -0.15436829621E+04  0.15436829621E+04  0.00000000000E+00 0. -1.
         25    2    1    2    0    0  0.76016524687E+02  0.23173215428E+02  0.22261375351E+01  0.14814060000E+03  0.12500068696E+03 0.  0.
          2    1    1    2  501    0 -0.21583512117E+02  0.41751632642E+02 -0.14632244539E+04  0.14639791150E+04  0.00000000000E+00 0. -1.
          1    1    1    2  502    0 -0.54433012569E+02 -0.64924848070E+02  0.24477957461E+03  0.25902746746E+03  0.00000000000E+00 0. -1.
         22    1    3    3    0    0  0.42627793135E+02  0.62503959024E+02  0.38678774924E+02  0.84970119871E+02  0.00000000000E+00 0. -1.
         22    1    3    3    0    0  0.33388731552E+02 -0.39330743597E+02 -0.36452637389E+02  0.63170480124E+02  0.00000000000E+00 0. -1.
</event>
<event>
 7    1  0.7118985E-006  0.9721815E+02  0.7818608E-02  0.1290278E+00
          2   -1    0    0  502    0  0.00000000000E+00  0.00000000000E+00  0.20762195428E+04  0.20762195428E+04  0.00000000000E+00 0. -1.
          1   -1    0    0  501    0 -0.00000000000E+00 -0.00000000000E+00 -0.38045855905E+03  0.38045855905E+03  0.00000000000E+00 0. -1.
         25    2    1    2    0    0  0.23417681121E+01 -0.18996656444E+03  0.88614094438E+03  0.91485724608E+03  0.12500091164E+03 0.  0.
          2    1    1    2  501    0  0.31118206546E+01  0.96510062806E+02 -0.35782692583E+03  0.37062647571E+03  0.00000000000E+00 0. -1.
          1    1    1    2  502    0 -0.54535887667E+01  0.93456501635E+02  0.11674469651E+04  0.11711943800E+04  0.00000000000E+00 0. -1.
         22    1    3    3    0    0 -0.11146364948E+02 -0.12024934340E+03  0.28491344464E+03  0.30945083127E+03  0.00000000000E+00 0.  1.
         22    1    3    3    0    0  0.13488133060E+02 -0.69717221045E+02  0.60122749975E+03  0.60540641481E+03  0.00000000000E+00 0.  1.
</event>
<event>
 7    1  0.7118985E-006  0.1892337E+03  0.7818608E-02  0.1364327E+00
          2   -1    0    0  502    0  0.00000000000E+00  0.00000000000E+00  0.88781118657E+02  0.88781118657E+02  0.00000000000E+00 0. -1.
          1   -1    0    0  501    0 -0.00000000000E+00 -0.00000000000E+00 -0.11780479970E+04  0.11780479970E+04  0.00000000000E+00 0. -1.
         25    2    1    2    0    0  0.15870163529E+03  0.10900477577E+03 -0.52612150754E+03  0.57401944782E+03  0.12500494226E+03 0.  0.
          2    1    1    2  501    0 -0.18256779315E+02  0.17066861842E+02 -0.48963017337E+03  0.49026757433E+03  0.00000000000E+00 0. -1.
          1    1    1    2  502    0 -0.14044485597E+03 -0.12607163761E+03 -0.73515197390E+02  0.20254209347E+03  0.00000000000E+00 0. -1.
         22    1    3    3    0    0  0.15204160689E+03  0.41513255870E+02 -0.31424707410E+03  0.35155543549E+03  0.00000000000E+00 0. -1.
         22    1    3    3    0    0  0.66600284002E+01  0.67491519901E+02 -0.21187443344E+03  0.22246401233E+03  0.00000000000E+00 0. -1.
</event>
<event>
 7    1  0.7118985E-006  0.1564543E+03  0.7818608E-02  0.1231308E+00
          2   -1    0    0  502    0  0.00000000000E+00  0.00000000000E+00  0.17374704863E+04  0.17374704863E+04  0.00000000000E+00 0. -1.
          1   -1    0    0  501    0 -0.00000000000E+00 -0.00000000000E+00 -0.80411674642E+03  0.80411674642E+03  0.00000000000E+00 0. -1.
         25    2    1    2    0    0 -0.85903761522E+02  0.49567469432E+02  0.31761732696E+03  0.35544816592E+03  0.12500496793E+03 0.  0.
          2    1    1    2  501    0 -0.90919093859E+02 -0.50087631030E+02 -0.77615266938E+03  0.78306322771E+03  0.00000000000E+00 0. -1.
          1    1    1    2  502    0  0.17682285538E+03  0.52016159829E+00  0.13918890823E+04  0.14030758390E+04  0.00000000000E+00 0. -1.
         22    1    3    3    0    0 -0.28893588847E+02 -0.12991643663E+02  0.23515540547E+03  0.23727976526E+03  0.00000000000E+00 0. -1.
         22    1    3    3    0    0 -0.57010172675E+02  0.62559113094E+02  0.82461921485E+02  0.11816840066E+03  0.00000000000E+00 0. -1.
</event>
<event>
 7    1  0.7118985E-006  0.1051747E+03  0.7818608E-02  0.1422027E+00
          2   -1    0    0  502    0  0.00000000000E+00  0.00000000000E+00  0.43624301788E+03  0.43624301788E+03  0.00000000000E+00 0. -1.
          1   -1    0    0  501    0 -0.00000000000E+00 -0.00000000000E+00 -0.44534709208E+03  0.44534709208E+03  0.00000000000E+00 0. -1.
         25    2    1    2    0    0  0.12188620458E+03  0.11630758139E+02 -0.27053208782E+03  0.32218532738E+03  0.12499701291E+03 0.  0.
          2    1    1    2  501    0 -0.17587213886E+02 -0.22221402841E+02 -0.14085937522E+03  0.14368181661E+03  0.00000000000E+00 0. -1.
          1    1    1    2  502    0 -0.10429899069E+03  0.10590644702E+02  0.40228738884E+03  0.41572296597E+03  0.00000000000E+00 0. -1.
         22    1    3    3    0    0  0.14909462870E+02 -0.49214736476E+02 -0.69149900367E+02  0.86174770613E+02  0.00000000000E+00 0.  1.
         22    1    3    3    0    0  0.10697674171E+03  0.60845494615E+02 -0.20138218745E+03  0.23601055677E+03  0.00000000000E+00 0.  1.
</event>
<event>
 7    1  0.7118985E-006  0.2389904E+03  0.7818608E-02  0.1125354E+00
          2   -1    0    0  502    0  0.00000000000E+00  0.00000000000E+00  0.12658239869E+04  0.12658239869E+04  0.00000000000E+00 0. -1.
          1   -1    0    0  501    0 -0.00000000000E+00 -0.00000000000E+00 -0.42072387841E+03  0.42072387841E+03  0.00000000000E+00 0. -1.
         25    2    1    2    0    0  0.13092552419E+03  0.36642872477E+02  0.83754958310E+03  0.85767013703E+03  0.12499826723E+03 0.  0.
          2    1    1    2  501    0 -0.43244308919E+02 -0.24374279542E+03 -0.33655851879E+03  0.41779451545E+03  0.00000000000E+00 0. -1.
          1    1    1    2  502    0 -0.87681215269E+02  0.20709992294E+03  0.34410904421E+03  0.41108321287E+03  0.00000000000E+00 0. -1.
         22    1    3    3    0    0  0.11018973209E+03 -0.22706871636E+02  0.39614246394E+03  0.41180848803E+03  0.00000000000E+00 0. -1.
         22    1    3    3    0    0  0.20735792096E+02  0.59349744113E+02  0.44140711916E+03  0.44586164900E+03  0.00000000000E+00 0. -1.
</event>
<event>
 7    1  0.7118985E-006  0.1027181E+03  0.7818608E-02  0.1456602E+00
          2   -1    0    0  502    0  0.00000000000E+00  0.00000000000E+00  0.12983229117E+04  0.12983229117E+04  0.00000000000E+00 0. -1.
          1   -1    0    0  501    0 -0.00000000000E+00 -0.00000000000E+00 -0.16079545100E+04  0.16079545100E+04  0.00000000000E+00 0. -1.
         25    2    1    2    0    0  0.96599726938E+02 -0.51964907211E+02  0.16451299874E+03  0.23392453684E+03  0.12499721339E+03 0.  0.
          2    1    1    2  501    0  0.14056578399E+01  0.22359289195E+02 -0.15707845775E+04  0.15709443346E+04  0.00000000000E+00 0. -1.
          1    1    1    2  502    0 -0.98005384778E+02  0.29605618016E+02  0.10966399804E+04  0.11014085503E+04  0.00000000000E+00 0. -1.
         22    1    3    3    0    0  0.70806211789E+02 -0.66295145486E+02  0.17703839800E+03  0.20186916631E+03  0.00000000000E+00 0.  1.
         22    1    3    3    0    0  0.25793515149E+02  0.14330238275E+02 -0.12525399260E+02  0.32055370523E+02  0.00000000000E+00 0.  1.
</event>
<event>
 7    1  0.7118985E-006  0.5999341E+02  0.7818608E-02  0.1419027E+00
          2   -1    0    0  502    0  0.00000000000E+00  0.00000000000E+00  0.47803003198E+03  0.47803003198E+03  0.00000000000E+00 0. -1.
          1   -1    0    0  501    0 -0.00000000000E+00 -0.00000000000E+00 -0.20382339503E+03  0.20382339503E+03  0.00000000000E+00 0. -1.
         25    2    1    2    0    0 -0.37277561973E+02 -0.32508711574E+02 -0.61777746899E+01  0.13457276024E+03  0.12500091978E+03 0.  0.
          2    1    1    2  501    0  0.62210839933E+02 -0.11797153358E+02 -0.12425578647E+03  0.13945917648E+03  0.00000000000E+00 0. -1.
          1    1    1    2  502    0 -0.24933277960E+02  0.44305864932E+02  0.40464019811E+03  0.40782149029E+03  0.00000000000E+00 0. -1.
         22    1    3    3    0    0  0.48840133336E+01  0.52562742266E+01  0.52532948213E+02  0.53020681370E+02  0.00000000000E+00 0. -1.
         22    1    3    3    0    0 -0.42161575307E+02 -0.37764985800E+02 -0.58710722903E+02  0.81552078874E+02  0.00000000000E+00 0. -1.
</event>
<event>
 7    1  0.7118985E-006  0.7346301E+02  0.7818608E-02  0.1381792E+00
          2   -1    0    0  502    0  0.00000000000E+00  0.00000000000E+00  0.38180809467E+04  0.38180809467E+04  0.00000000000E+00 0. -1.
          1   -1    0    0  501    0 -0.00000000000E+00 -0.00000000000E+00 -0.60425821560E+03  0.60425821560E+03  0.00000000000E+00 0. -1.
         25    2    1    2    0    0 -0.12215469769E+03  0.39735079745E+02  0.13161936883E+03  0.22237138371E+03  0.12499890926E+03 0.  0.
          2    1    1    2  501    0  0.69504041405E+02 -0.21413159308E+02 -0.55630174889E+03  0.56103562363E+03  0.00000000000E+00 0. -1.
          1    1    1    2  502    0  0.52650656283E+02 -0.18321920437E+02  0.36385051111E+04  0.36389321549E+04  0.00000000000E+00 0. -1.
         22    1    3    3    0    0 -0.14628356100E+02 -0.15425444405E+01 -0.24371840518E+02  0.28466732439E+02  0.00000000000E+00 0. -1.
         22    1    3    3    0    0 -0.10752634159E+03  0.41277624185E+02  0.15599120934E+03  0.19390465127E+03  0.00000000000E+00 0. -1.
</event>
<event>
 7    1  0.7118985E-006  0.4893096E+02  0.7818608E-02  0.1486484E+00
          2   -1    0    0  502    0  0.00000000000E+00  0.00000000000E+00  0.85577671319E+03  0.85577671319E+03  0.00000000000E+00 0. -1.
          1   -1    0    0  501    0 -0.00000000000E+00 -0.00000000000E+00 -0.17015101151E+03  0.17015101151E+03  0.00000000000E+00 0. -1.
         25    2    1    2    0    0 -0.27788559745E+02  0.12026828232E+02  0.19651221338E+03  0.23486171005E+03  0.12500449670E+03 0.  0.
          2    1    1    2  501    0  0.12272529646E+02  0.35947969059E+02 -0.14757444682E+03  0.15238467383E+03  0.00000000000E+00 0. -1.
          1    1    1    2  502    0  0.15516030099E+02 -0.47974797291E+02  0.63668793512E+03  0.63868134081E+03  0.00000000000E+00 0. -1.
         22    1    3    3    0    0 -0.48545900434E+02  0.45124663947E+02  0.18112756241E+03  0.19287336159E+03  0.00000000000E+00 0. -1.
         22    1    3    3    0    0  0.20757340690E+02 -0.33097835714E+02  0.15384650961E+02  0.41988348463E+02  0.00000000000E+00 0. -1.
</event>
<event>
 7    1  0.7118985E-006  0.6686397E+02  0.7818608E-02  0.1389984E+00
          2   -1    0    0  502    0  0.00000000000E+00  0.00000000000E+00  0.26747531257E+03  0.26747531257E+03  0.00000000000E+00 0. -1.
          1   -1    0    0  501    0 -0.00000000000E+00 -0.00000000000E+00 -0.30876785279E+03  0.30876785279E+03  0.00000000000E+00 0. -1.
         25    2    1    2    0    0 -0.80452045646E+01 -0.42071239118E+02  0.36954964171E+02  0.13721368062E+03  0.12500884086E+03 0.  0.
          2    1    1    2  501    0 -0.56640464370E+02  0.88281799189E+01 -0.24790201628E+03  0.25444348811E+03  0.00000000000E+00 0. -1.
          1    1    1    2  502    0  0.64685668934E+02  0.33243059199E+02  0.16965451189E+03  0.18458599663E+03  0.00000000000E+00 0. -1.
         22    1    3    3    0    0  0.37770189282E+02  0.40230632226E+01  0.57623299575E+02  0.69016062551E+02  0.00000000000E+00 0. -1.
         22    1    3    3    0    0 -0.45815393846E+02 -0.46094302341E+02 -0.20668335405E+02  0.68197618067E+02  0.00000000000E+00 0. -1.
</event>
<event>
 7    1  0.7118985E-006  0.4812106E+02  0.7818608E-02  0.1474648E+00
          2   -1    0    0  502    0  0.00000000000E+00  0.00000000000E+00  0.20444734489E+04  0.20444734489E+04  0.00000000000E+00 0. -1.
          1   -1    0    0  501    0 -0.00000000000E+00 -0.00000000000E+00 -0.18139450958E+04  0.18139450958E+04  0.00000000000E+00 0. -1.
         25    2    1    2    0    0 -0.58361425044E+02 -0.82577341751E+01  0.35646872505E+03  0.38232191764E+03  0.12500340262E+03 0.  0.
          2    1    1    2  501    0  0.29076721622E+02  0.38349785081E+02 -0.18004337540E+04  0.18010768624E+04  0.00000000000E+00 0. -1.
          1    1    1    2  502    0  0.29284703422E+02 -0.30092050906E+02  0.16744933820E+04  0.16750197646E+04  0.00000000000E+00 0. -1.
         22    1    3    3    0    0  0.21921585115E+02 -0.87305386633E+01  0.82948643585E+01  0.25011656763E+02  0.00000000000E+00 0.  1.
         22    1    3    3    0    0 -0.80283010158E+02  0.47280448825E+00  0.34817386069E+03  0.35731026088E+03  0.00000000000E+00 0.  1.
</event>
