<event>
 7    1  0.5593520E-006  0.1545839E+03  0.7818608E-02  0.1387568E+00
          2   -1    0    0  502    0  0.00000000000E+00  0.00000000000E+00  0.18556814665E+04  0.18556814665E+04  0.00000000000E+00 0. -1.
          1   -1    0    0  501    0 -0.00000000000E+00 -0.00000000000E+00 -0.19623109864E+03  0.19623109864E+03  0.00000000000E+00 0. -1.
         25    2    1    2    0    0  0.10700937759E+03  0.97202549637E+02  0.77486057988E+03  0.79808023450E+03  0.12499519951E+03 0.  0.
          2    1    1    2  501    0 -0.34699597531E+01  0.25042882450E+02 -0.17772083601E+03  0.17951011708E+03  0.00000000000E+00 0. -1.
          1    1    1    2  502    0 -0.10353941784E+03 -0.12224543209E+03  0.10623106239E+04  0.10743222135E+04  0.00000000000E+00 0. -1.
         22    1    3    3    0    0  0.59061835418E+02  0.12301510593E+03  0.56987699676E+03  0.58598703750E+03  0.00000000000E+00 0.  1.
         22    1    3    3    0    0  0.47947542172E+02 -0.25812556289E+02  0.20498358313E+03  0.21209319700E+03  0.00000000000E+00 0.  1.
</event>
<event>
 7    1  0.5593520E-006  0.6284797E+02  0.7818608E-02  0.1439840E+00
          2   -1    0    0  502    0  0.00000000000E+00  0.00000000000E+00  0.14769313730E+04  0.14769313730E+04  0.00000000000E+00 0. -1.
          1   -1    0    0  501    0 -0.00000000000E+00 -0.00000000000E+00 -0.27970458155E+03  0.27970458155E+03  0.00000000000E+00 0. -1.
         25    2    1    2    0    0  0.75007344553E+02  0.64111574349E+02 -0.43371391747E+02  0.16505447756E+03  0.12500202894E+03 0.  0.
          2    1    1    2  501    0 -0.18510532751E+02 -0.37077980997E+02 -0.17234163103E+03  0.17725420809E+03  0.00000000000E+00 0. -1.
          1    1    1    2  502    0 -0.56496811802E+02 -0.27033593352E+02  0.14129398142E+04  0.14143272689E+04  0.00000000000E+00 0. -1.
         22    1    3    3    0    0  0.81788417457E+02  0.82371884823E+02 -0.67317128009E+02  0.13418669220E+03  0.00000000000E+00 0.  1.
         22    1    3    3    0    0 -0.67810729039E+01 -0.18260310475E+02  0.23945736262E+02  0.30867785367E+02  0.00000000000E+00 0.  1.
</event>
<event>
 7    1  0.5593520E-006  0.2123584E+03  0.7818608E-02  0.1299896E+00
          2   -1    0    0  502    0  0.00000000000E+00  0.00000000000E+00  0.43288352268E+03  0.43288352268E+03  0.00000000000E+00 0. -1.
          1   -1    0    0  501    0 -0.00000000000E+00 -0.00000000000E+00 -0.12802328254E+04  0.12802328254E+04  0.00000000000E+00 0. -1.
         25    2    1    2    0    0 -0.19405356310E+03  0.19167706026E+02 -0.73533416457E+01  0.23174062414E+03  0.12500183574E+03 0.  0.
          2    1    1    2  501    0 -0.17403046134E+02  0.35118629933E+02 -0.11231493834E+04  0.11238330489E+04  0.00000000000E+00 0. -1.
          1    1    1    2  502    0  0.21145660923E+03 -0.54286335959E+02  0.28315342240E+03  0.35754267504E+03  0.00000000000E+00 0. -1.
         22    1    3    3    0    0 -0.19581620502E+03  0.30902857556E+02  0.22598551513E+02  0.19952360082E+03  0.00000000000E+00 0. -1.
         22    1    3    3    0    0  0.17626419203E+01 -0.11735151529E+02 -0.29951893159E+02  0.32217023322E+02  0.00000000000E+00 0. -1.
</event>
<event>
 7    1  0.5593520E-006  0.8606873E+02  0.7818608E-02  0.1471412E+00
          2   -1    0    0  502    0  0.00000000000E+00  0.00000000000E+00  0.13558449305E+04  0.13558449305E+04  0.00000000000E+00 0. -1.
          1   -1    0    0  501    0 -0.00000000000E+00 -0.00000000000E+00 -0.15807431785E+04  0.15807431785E+04  0.00000000000E+00 0. -1.
         25    2    1    2    0    0 -0.67046926323E+02 -0.10718797232E+02 -0.12436200732E+03  0.18894418167E+03  0.12499524782E+03 0.  0.
          2    1    1    2  501    0  0.86814313240E+02 -0.29352818778E+01 -0.14226562619E+04  0.14253056445E+04  0.00000000000E+00 0. -1.
          1    1    1    2  502    0 -0.19767386916E+02  0.13654079110E+02  0.13221200213E+04  0.13223382828E+04  0.00000000000E+00 0. -1.
         22    1    3    3    0    0 -0.54141509917E+02 -0.43360376702E+02 -0.10948341415E+02  0.70223155323E+02  0.00000000000E+00 0. -1.
         22    1    3    3    0    0 -0.12905416407E+02  0.32641579470E+02 -0.11341366590E+03  0.11872102635E+03  0.00000000000E+00 0. -1.
</event>
<event>
 7    1  0.5593520E-006  0.9370999E+02  0.7818608E-02  0.1362010E+00
          2   -1    0    0  502    0  0.00000000000E+00  0.00000000000E+00  0.11482851783E+04  0.11482851783E+04  0.00000000000E+00 0. -1.
          1   -1    0    0  501    0 -0.00000000000E+00 -0.00000000000E+00 -0.14194975935E+03  0.14194975935E+03  0.00000000000E+00 0. -1.
         25    2    1    2    0    0  0.76937101118E+02  0.24124140870E+02  0.52094835472E+03  0.54176933165E+03  0.12500211491E+03 0.  0.
          2    1    1    2  501    0 -0.91077856343E+02  0.25349384872E+02 -0.11330513662E+03  0.14756632819E+03  0.00000000000E+00 0. -1.
          1    1    1    2  502    0  0.14140755225E+02 -0.49473525742E+02  0.59869220086E+03  0.60089927782E+03  0.00000000000E+00 0. -1.
         22    1    3    3    0    0  0.25940063469E+02 -0.36727365427E+02  0.35466458947E+03  0.35750350667E+03  0.00000000000E+00 0. -1.
         22    1    3    3    0    0  0.50997037649E+02  0.60851506297E+02  0.16628376525E+03  0.18426582498E+03  0.00000000000E+00 0. -1.
</event>
<event>
 7    1  0.5593520E-006  0.5254977E+02  0.7818608E-02  0.1522489E+00
          2   -1    0    0  502    0  0.00000000000E+00  0.00000000000E+00  0.99458018132E+03  0.99458018132E+03  0.00000000000E+00 0. -1.
          1   -1    0    0  501    0 -0.00000000000E+00 -0.00000000000E+00 -0.10132496554E+04  0.10132496554E+04  0.00000000000E+00 0. -1.
         25    2    1    2    0    0  0.55008680634E+02 -0.38999699918E+02 -0.76234653593E+02  0.16119601698E+03  0.12500200776E+03 0.  0.
          2    1    1    2  501    0 -0.27870836471E+02  0.44339956809E+02 -0.89356657068E+03  0.89510001203E+03  0.00000000000E+00 0. -1.
          1    1    1    2  502    0 -0.27137844163E+02 -0.53402568909E+01  0.95113175021E+03  0.95153380769E+03  0.00000000000E+00 0. -1.
         22    1    3    3    0    0  0.11860728719E+02 -0.80684530070E+02 -0.37316624194E+02  0.89683893312E+02  0.00000000000E+00 0. -1.
         22    1    3    3    0    0  0.43147951915E+02  0.41684830151E+02 -0.38918029399E+02  0.71512123668E+02  0.00000000000E+00 0. -1.
</event>
<event>
 7    1  0.5593520E-006  0.4675672E+02  0.7818608E-02  0.1534621E+00
          2   -1    0    0  502    0  0.00000000000E+00  0.00000000000E+00  0.32229002892E+02  0.32229002892E+02  0.00000000000E+00 0. -1.
          1   -1    0    0  501    0 -0.00000000000E+00 -0.00000000000E+00 -0.82065371655E+03  0.82065371655E+03  0.00000000000E+00 0. -1.
         25    2    1    2    0    0 -0.19126407144E+02  0.34072324116E+02 -0.47017772326E+03  0.48807759053E+03  0.12500360076E+03 0.  0.
          2    1    1    2  501    0  0.25552318023E+02  0.13045355432E+02 -0.31589291029E+03  0.31719305324E+03  0.00000000000E+00 0. -1.
          1    1    1    2  502    0 -0.64259108788E+01 -0.47117679549E+02 -0.23540801094E+01  0.47612075672E+02  0.00000000000E+00 0. -1.
         22    1    3    3    0    0 -0.63135175098E+02  0.32815642820E+02 -0.39155108443E+03  0.39796377783E+03  0.00000000000E+00 0. -1.
         22    1    3    3    0    0  0.44008767954E+02  0.12566812960E+01 -0.78626638828E+02  0.90113812693E+02  0.00000000000E+00 0. -1.
</event>
<event>
 7    1  0.5593520E-006  0.1109967E+03  0.7818608E-02  0.1444806E+00
          2   -1    0    0  502    0  0.00000000000E+00  0.00000000000E+00  0.18711134676E+04  0.18711134676E+04  0.00000000000E+00 0. -1.
          1   -1    0    0  501    0 -0.00000000000E+00 -0.00000000000E+00 -0.61688025526E+03  0.61688025526E+03  0.00000000000E+00 0. -1.
         25    2    1    2    0    0  0.80977244617E+02 -0.35745408785E+02  0.10731036224E+04  0.10839821278E+04  0.12502328060E+03 0.  0.
          2    1    1    2  501    0 -0.10213012806E+03  0.43738805912E+02 -0.60623038812E+03  0.61632696654E+03  0.00000000000E+00 0. -1.
          1    1    1    2  502    0  0.21152883445E+02 -0.79933971272E+01  0.78735997813E+03  0.78768462854E+03  0.00000000000E+00 0. -1.
         22    1    3    3    0    0  0.10586605043E+03 -0.18932203370E+02  0.98595071247E+03  0.99179879834E+03  0.00000000000E+00 0. -1.
         22    1    3    3    0    0 -0.24888805808E+02 -0.16813205415E+02  0.87152909904E+02  0.92183329489E+02  0.00000000000E+00 0. -1.
</event>
<event>
 7    1  0.5593520E-006  0.6107391E+02  0.7818608E-02  0.1482591E+00
          2   -1    0    0  502    0  0.00000000000E+00  0.00000000000E+00  0.54501892195E+02  0.54501892195E+02  0.00000000000E+00 0. -1.
          1   -1    0    0  501    0 -0.00000000000E+00 -0.00000000000E+00 -0.16271996434E+04  0.16271996434E+04  0.00000000000E+00 0. -1.
         25    2    1    2    0    0 -0.47804844674E+02  0.27884023939E+02 -0.10732370309E+03  0.17379995037E+03  0.12500089415E+03 0.  0.
          2    1    1    2  501    0  0.29914995956E+02 -0.53538067622E+02 -0.14741442157E+04  0.14754193981E+04  0.00000000000E+00 0. -1.
          1    1    1    2  502    0  0.17889848718E+02  0.25654043683E+02  0.87701675264E+01  0.32482187163E+02  0.00000000000E+00 0. -1.
         22    1    3    3    0    0  0.39914879369E+02  0.20914377263E+02 -0.56184706191E+02  0.72023121156E+02  0.00000000000E+00 0. -1.
         22    1    3    3    0    0 -0.87719724044E+02  0.69696466761E+01 -0.51138996902E+02  0.10177682922E+03  0.00000000000E+00 0. -1.
</event>
<event>
 7    1  0.5593520E-006  0.1179335E+03  0.7818608E-02  0.1248425E+00
          2   -1    0    0  502    0  0.00000000000E+00  0.00000000000E+00  0.40282469042E+03  0.40282469042E+03  0.00000000000E+00 0. -1.
          1   -1    0    0  501    0 -0.00000000000E+00 -0.00000000000E+00 -0.51384049882E+03  0.51384049882E+03  0.00000000000E+00 0. -1.
         25    2    1    2    0    0 -0.98468230021E+02  0.57752142595E+02 -0.18145315166E+02  0.17025119630E+03  0.12499966033E+03 0.  0.
          2    1    1    2  501    0  0.10648572780E+03  0.59908556585E+02 -0.39956400062E+03  0.41782728007E+03  0.00000000000E+00 0. -1.
          1    1    1    2  502    0 -0.80174977780E+01 -0.11766069918E+03  0.30669350738E+03  0.32858671287E+03  0.00000000000E+00 0. -1.
         22    1    3    3    0    0 -0.96184480936E+02  0.59734471720E+02 -0.60101079545E+02  0.12818658763E+03  0.00000000000E+00 0.  1.
         22    1    3    3    0    0 -0.22837490850E+01 -0.19823291249E+01  0.41955764379E+02  0.42064608678E+02  0.00000000000E+00 0.  1.
</event>
<event>
 7    1  0.5593520E-006  0.1029816E+03  0.7818608E-02  0.1372164E+00
          2   -1    0    0  502    0  0.00000000000E+00  0.00000000000E+00  0.16768265326E+04  0.16768265326E+04  0.00000000000E+00 0. -1.
          1   -1    0    0  501    0 -0.00000000000E+00 -0.00000000000E+00 -0.97980476355E+03  0.97980476355E+03  0.00000000000E+00 0. -1.
         25    2    1    2    0    0 -0.13728781906E+02 -0.14393505104E+03  0.53521084408E+03  0.56831476177E+03  0.12500096982E+03 0.  0.
          2    1    1    2  501    0  0.18258423586E+02  0.10114246065E+03 -0.96009761832E+03  0.96558303842E+03  0.00000000000E+00 0. -1.
          1    1    1    2  502    0 -0.45296416795E+01  0.42792590397E+02  0.11219085432E+04  0.11227334959E+04  0.00000000000E+00 0. -1.
         22    1    3    3    0    0  0.21267848057E+02 -0.11022207036E+03  0.19789135518E+03  0.22751310865E+03  0.00000000000E+00 0.  1.
         22    1    3    3    0    0 -0.34996629963E+02 -0.33712980686E+02  0.33731948890E+03  0.34080165312E+03  0.00000000000E+00 0.  1.
</event>
<event>
 7    1  0.5593520E-006  0.5437662E+02  0.7818608E-02  0.1444653E+00
          2   -1    0    0  502    0  0.00000000000E+00  0.00000000000E+00  0.12303174581E+04  0.12303174581E+04  0.00000000000E+00 0. -1.
          1   -1    0    0  501    0 -0.00000000000E+00 -0.00000000000E+00 -0.11115175892E+03  0.11115175892E+03  0.00000000000E+00 0. -1.
         25    2    1    2    0    0  0.80403988517E+02 -0.25867354925E+02  0.21335865979E+03  0.26130524288E+03  0.12499836331E+03 0.  0.
          2    1    1    2  501    0 -0.27773182586E+02  0.36934118408E+02 -0.80269900992E+02  0.92621465001E+02  0.00000000000E+00 0. -1.
          1    1    1    2  502    0 -0.52630805931E+02 -0.11066763483E+02  0.98607694035E+03  0.98754250910E+03  0.00000000000E+00 0. -1.
         22    1    3    3    0    0  0.58220722925E+02 -0.12773906727E+02  0.15245400691E+02  0.61524365199E+02  0.00000000000E+00 0.  1.
         22    1    3    3    0    0  0.22183265592E+02 -0.13093448198E+02  0.19811325910E+03  0.19978087769E+03  0.00000000000E+00 0.  1.
</event>
<event>
 7    1  0.5593520E-006  0.1045012E+03  0.7818608E-02  0.1311538E+00
          2   -1    0    0  502    0  0.00000000000E+00  0.00000000000E+00  0.16920481257E+04  0.16920481257E+04  0.00000000000E+00 0. -1.
          1   -1    0    0  501    0 -0.00000000000E+00 -0.00000000000E+00 -0.31264291604E+03  0.31264291604E+03  0.00000000000E+00 0. -1.
         25    2    1    2    0    0  0.62826170818E+02  0.37633815298E+02  0.26172820894E+03  0.29915131527E+03  0.12500568899E+03 0.  0.
          2    1    1    2  501    0 -0.10414673863E+03  0.20853346547E+02 -0.28339170282E+03  0.30264213595E+03  0.00000000000E+00 0. -1.
          1    1    1    2  502    0  0.41320567809E+02 -0.58487161845E+02  0.14010687036E+04  0.14028975906E+04  0.00000000000E+00 0. -1.
         22    1    3    3    0    0 -0.16988117654E+02 -0.29273204191E+02  0.30541492863E+02  0.45588369255E+02  0.00000000000E+00 0.  1.
         22    1    3    3    0    0  0.79814288473E+02  0.66907019489E+02  0.23118671607E+03  0.25356294601E+03  0.00000000000E+00 0.  1.
</event>
<event>
 7    1  0.5593520E-006  0.1152357E+03  0.7818608E-02  0.1346671E+00
          2   -1    0    0  502    0  0.00000000000E+00  0.00000000000E+00  0.32243354452E+04  0.32243354452E+04  0.00000000000E+00 0. -1.
          1   -1    0    0  501    0 -0.00000000000E+00 -0.00000000000E+00 -0.19398223504E+03  0.19398223504E+03  0.00000000000E+00 0. -1.
         25    2    1    2    0    0  0.15463372418E+03  0.32623885106E+02  0.26265676225E+04  0.26342852495E+04  0.12500157478E+03 0.  0.
          2    1    1    2  501    0 -0.10762326879E+03 -0.40420153514E+02 -0.17166919093E+03  0.20660800544E+03  0.00000000000E+00 0. -1.
          1    1    1    2  502    0 -0.47010455388E+02  0.77962684082E+01  0.57545477865E+03  0.57742442535E+03  0.00000000000E+00 0. -1.
         22    1    3    3    0    0  0.64373544805E+02 -0.48125826382E+02  0.10630745336E+04  0.10661085838E+04  0.00000000000E+00 0. -1.
         22    1    3    3    0    0  0.90260179374E+02  0.80749711488E+02  0.15634930888E+04  0.15681766656E+04  0.00000000000E+00 0. -1.
</event>
<event>
 7    1  0.5593520E-006  0.1211932E+03  0.7818608E-02  0.1310455E+00
          2   -1    0    0  502    0  0.00000000000E+00  0.00000000000E+00  0.47737554946E+02  0.47737554946E+02  0.00000000000E+00 0. -1.
          1   -1    0    0  501    0 -0.00000000000E+00 -0.00000000000E+00 -0.17097977485E+04  0.17097977485E+04  0.00000000000E+00 0. -1.
         25    2    1    2    0    0  0.94310770632E+02  0.90148197006E+02 -0.30847472784E+03  0.35749620415E+03  0.12500263753E+03 0.  0.
          2    1    1    2  501    0 -0.56826878611E+02  0.25672695330E+02 -0.12107941507E+04  0.12123988027E+04  0.00000000000E+00 0. -1.
          1    1    1    2  502    0 -0.37483892021E+02 -0.11582089234E+03 -0.14279131504E+03  0.18764029661E+03  0.00000000000E+00 0. -1.
         22    1    3    3    0    0  0.12450157708E+03  0.77747841502E+02 -0.26734751236E+03  0.30499190468E+03  0.00000000000E+00 0.  1.
         22    1    3    3    0    0 -0.30190806449E+02  0.12400355504E+02 -0.41127215473E+02  0.52504299474E+02  0.00000000000E+00 0.  1.
</event>
<event>
 7    1  0.5593520E-006  0.7887883E+02  0.7818608E-02  0.1366238E+00
          2   -1    0    0  502    0  0.00000000000E+00  0.00000000000E+00  0.16567672914E+04  0.16567672914E+04  0.00000000000E+00 0. -1.
          1   -1    0    0  501    0 -0.00000000000E+00 -0.00000000000E+00 -0.15663278898E+02  0.15663278898E+02  0.00000000000E+00 0. -1.
         25    2    1    2    0    0  0.25008269497E+02  0.17986754007E+02  0.12015462280E+04  0.12084234302E+04  0.12499964721E+03 0.  0.
          2    1    1    2  501    0 -0.67300437349E+02 -0.59137726870E+02  0.26026276741E+03  0.27525139002E+03  0.00000000000E+00 0. -1.
          1    1    1    2  502    0  0.42292167852E+02  0.41150972863E+02  0.17929501708E+03  0.18875575005E+03  0.00000000000E+00 0. -1.
         22    1    3    3    0    0  0.59736967328E+02  0.29717983584E+02  0.10635747230E+04  0.10656654518E+04  0.00000000000E+00 0.  1.
         22    1    3    3    0    0 -0.34728697831E+02 -0.11731229577E+02  0.13797150497E+03  0.14275797836E+03  0.00000000000E+00 0.  1.
</event>
<event>
 7    1  0.5593520E-006  0.9670849E+02  0.7818608E-02  0.1428409E+00
          2   -1    0    0  502    0  0.00000000000E+00  0.00000000000E+00  0.67386210526E+03  0.67386210526E+03  0.00000000000E+00 0. -1.
          1   -1    0    0  501    0 -0.00000000000E+00 -0.00000000000E+00 -0.63743758499E+03  0.63743758499E+03  0.00000000000E+00 0. -1.
         25    2    1    2    0    0  0.19506074203E+02 -0.11258212656E+03  0.37259660102E+03  0.40927828889E+03  0.12500107406E+03 0.  0.
          2    1    1    2  501    0  0.10396859537E+02  0.27451696969E+02 -0.61154177634E+03  0.61224589387E+03  0.00000000000E+00 0. -1.
          1    1    1    2  502    0 -0.29902933740E+02  0.85130429587E+02  0.27536969559E+03  0.28977550748E+03  0.00000000000E+00 0. -1.
         22    1    3    3    0    0 -0.58686541355E+01 -0.87273953009E+02  0.36124653360E+03  0.37168567636E+03  0.00000000000E+00 0.  1.
         22    1    3    3    0    0  0.25374728338E+02 -0.25308173548E+02  0.11350067422E+02  0.37592612533E+02  0.00000000000E+00 0.  1.
</event>
<event>
 7    1  0.5593520E-006  0.1071693E+03  0.7818608E-02  0.1285804E+00
          2   -1    0    0  502    0  0.00000000000E+00  0.00000000000E+00  0.31097320650E+04  0.31097320650E+04  0.00000000000E+00 0. -1.
          1   -1    0    0  501    0 -0.00000000000E+00 -0.00000000000E+00 -0.11247160323E+03  0.11247160323E+03  0.00000000000E+00 0. -1.
         25    2    1    2    0    0  0.54530257204E+02 -0.17880101850E+03  0.15326969821E+04  0.15491033574E+04  0.12497127611E+03 0.  0.
          2    1    1    2  501    0 -0.44190711756E+01  0.10577185027E+03 -0.75793377449E+02  0.13019926484E+03  0.00000000000E+00 0. -1.
          1    1    1    2  502    0 -0.50111186028E+02  0.73029168238E+02  0.15403568571E+04  0.15429010460E+04  0.00000000000E+00 0. -1.
         22    1    3    3    0    0  0.77610812249E+02 -0.46660467157E+02  0.64654200864E+03  0.65285312767E+03  0.00000000000E+00 0.  1.
         22    1    3    3    0    0 -0.23080555045E+02 -0.13214055135E+03  0.88615497350E+03  0.89625022978E+03  0.00000000000E+00 0.  1.
</event>
<event>
 7    1  0.5593520E-006  0.7129797E+02  0.7818608E-02  0.1391837E+00
          2   -1    0    0  502    0  0.00000000000E+00  0.00000000000E+00  0.21336470545E+04  0.21336470545E+04  0.00000000000E+00 0. -1.
          1   -1    0    0  501    0 -0.00000000000E+00 -0.00000000000E+00 -0.12472483342E+04  0.12472483342E+04  0.00000000000E+00 0. -1.
         25    2    1    2    0    0  0.19401121105E+02  0.10493114494E+03 -0.12529033317E+02  0.16482854260E+03  0.12499809239E+03 0.  0.
          2    1    1    2  501    0 -0.42120838742E+02 -0.57085622654E+02 -0.11571421505E+04  0.11593148363E+04  0.00000000000E+00 0. -1.
          1    1    1    2  502    0  0.22719717638E+02 -0.47845522281E+02  0.20560699041E+04  0.20567520098E+04  0.00000000000E+00 0. -1.
         22    1    3    3    0    0 -0.32193477532E+01  0.36582814009E+02 -0.65741475625E+02  0.75303440148E+02  0.00000000000E+00 0. -1.
         22    1    3    3    0    0  0.22620468858E+02  0.68348330927E+02  0.53212442308E+02  0.89525102447E+02  0.00000000000E+00 0. -1.
</event>
<event>
 7    1  0.5593520E-006  0.9159930E+02  0.7818608E-02  0.1318597E+00
          2   -1    0    0  502    0  0.00000000000E+00  0.00000000000E+00  0.23395377219E+03  0.23395377219E+03  0.00000000000E+00 0. -1.
          1   -1    0    0  501    0 -0.00000000000E+00 -0.00000000000E+00 -0.12430958029E+04  0.12430958029E+04  0.00000000000E+00 0. -1.
         25    2    1    2    0    0  0.35434767750E+02 -0.16015380634E+03 -0.14892972363E+03  0.25438163744E+03  0.12500036175E+03 0.  0.
          2    1    1    2  501    0 -0.22167918139E+02  0.73392754813E+02 -0.10293033893E+04  0.10321547270E+04  0.00000000000E+00 0. -1.
          1    1    1    2  502    0 -0.13266849610E+02  0.86761051530E+02  0.16909108225E+03  0.19051321071E+03  0.00000000000E+00 0. -1.
         22    1    3    3    0    0 -0.41320579584E+02 -0.10129697590E+03 -0.83062204664E+02  0.13736010144E+03  0.00000000000E+00 0.  1.
         22    1    3    3    0    0  0.76755347334E+02 -0.58856830440E+02 -0.65867518962E+02  0.11702153600E+03  0.00000000000E+00 0.  1.
</event>
<event>
 7    1  0.5593520E-006  0.8677455E+02  0.7818608E-02  0.1469193E+00
          2   -1    0    0  502    0  0.00000000000E+00  0.00000000000E+00  0.45623292366E+03  0.45623292366E+03  0.00000000000E+00 0. -1.
          1   -1    0    0  501    0 -0.00000000000E+00 -0.00000000000E+00 -0.24182900519E+03  0.24182900519E+03  0.00000000000E+00 0. -1.
         25    2    1    2    0    0  0.23225248167E+01 -0.10927386246E+03  0.22312659614E+03  0.27812764882E+03  0.12499335980E+03 0.  0.
          2    1    1    2  501    0 -0.76737994927E+01  0.85661807778E+02 -0.20492644421E+03  0.22224239030E+03  0.00000000000E+00 0. -1.
          1    1    1    2  502    0  0.53512746760E+01  0.23612054677E+02  0.19620376653E+03  0.19769188973E+03  0.00000000000E+00 0. -1.
         22    1    3    3    0    0 -0.29160051883E+02  0.18249191231E+02  0.39873981673E+02  0.52661902937E+02  0.00000000000E+00 0. -1.
         22    1    3    3    0    0  0.31482576700E+02 -0.12752305369E+03  0.18325261447E+03  0.22546574589E+03  0.00000000000E+00 0. -1.
</event>
<event>
 7    1  0.5593520E-006  0.7259390E+02  0.7818608E-02  0.1400153E+00
          2   -1    0    0  502    0  0.00000000000E+00  0.00000000000E+00  0.12819156292E+03  0.12819156292E+03  0.00000000000E+00 0. -1.
          1   -1    0    0  501    0 -0.00000000000E+00 -0.00000000000E+00 -0.10731625250E+04  0.10731625250E+04  0.00000000000E+00 0. -1.
         25    2    1    2    0    0 -0.10334528806E+03 -0.52919148425E+02 -0.82514181224E+02  0.18947533044E+03  0.12494649218E+03 0.  0.
          2    1    1    2  501    0  0.44908160329E+02  0.18804826809E+02 -0.92107053082E+03  0.92235637750E+03  0.00000000000E+00 0. -1.
          1    1    1    2  502    0  0.58437127730E+02  0.34114321616E+02  0.58613749946E+02  0.89522379992E+02  0.00000000000E+00 0. -1.
         22    1    3    3    0    0 -0.11976300979E+03 -0.75953412804E+02 -0.63448590409E+02  0.15536351906E+03  0.00000000000E+00 0.  1.
         22    1    3    3    0    0  0.16417721731E+02  0.23034264379E+02 -0.19065590815E+02  0.34111811377E+02  0.00000000000E+00 0.  1.
</event>
<event>
 7    1  0.5593520E-006  0.1217363E+03  0.7818608E-02  0.1266926E+00
          2   -1    0    0  502    0  0.00000000000E+00  0.00000000000E+00  0.93931452205E+03  0.93931452205E+03  0.00000000000E+00 0. -1.
          1   -1    0    0  501    0 -0.00000000000E+00 -0.00000000000E+00 -0.15767642309E+03  0.15767642309E+03  0.00000000000E+00 0. -1.
         25    2    1    2    0    0  0.16952924728E+03 -0.83354067630E+02  0.93454489759E+02  0.24504096803E+03  0.12499307213E+03 0.  0.
          2    1    1    2  501    0 -0.93136142633E+02 -0.71683619161E+01 -0.48881229900E+02  0.10542817988E+03  0.00000000000E+00 0. -1.
          1    1    1    2  502    0 -0.76393104651E+02  0.90522429546E+02  0.73706483911E+03  0.74652179723E+03  0.00000000000E+00 0. -1.
         22    1    3    3    0    0  0.90277304877E+02  0.20635617915E+02  0.59095607739E+02  0.10985495599E+03  0.00000000000E+00 0. -1.
         22    1    3    3    0    0  0.79251942407E+02 -0.10398968555E+03  0.34358882020E+02  0.13518601203E+03  0.00000000000E+00 0. -1.
</event>
<event>
 7    1  0.5593520E-006  0.1148446E+03  0.7818608E-02  0.1264170E+00
          2   -1    0    0  502    0  0.00000000000E+00  0.00000000000E+00  0.32455075955E+03  0.32455075955E+03  0.00000000000E+00 0. -1.
          1   -1    0    0  501    0 -0.00000000000E+00 -0.00000000000E+00 -0.11891606340E+04  0.11891606340E+04  0.00000000000E+00 0. -1.
         25    2    1    2    0    0  0.14308843607E+03  0.85435570745E+02 -0.41384925436E+03  0.46332290985E+03  0.12499350449E+03 0.  0.
          2    1    1    2  501    0 -0.99655498404E+02  0.20346520276E+02 -0.73604504740E+03  0.74303937383E+03  0.00000000000E+00 0. -1.
          1    1    1    2  502    0 -0.43432937670E+02 -0.10578209102E+03  0.28528442733E+03  0.30734910986E+03  0.00000000000E+00 0. -1.
         22    1    3    3    0    0  0.56205996383E+02  0.10121153154E+03 -0.18752854556E+03  0.22038567001E+03  0.00000000000E+00 0.  1.
         22    1    3    3    0    0  0.86882439690E+02 -0.15775960795E+02 -0.22632070881E+03  0.24293723984E+03  0.00000000000E+00 0.  1.
</event>
<event>
 7    1  0.5593520E-006  0.6010587E+02  0.7818608E-02  0.1473752E+00
          2   -1    0    0  502    0  0.00000000000E+00  0.00000000000E+00  0.61157294510E+03  0.61157294510E+03  0.00000000000E+00 0. -1.
          1   -1    0    0  501    0 -0.00000000000E+00 -0.00000000000E+00 -0.20469049438E+03  0.20469049438E+03  0.00000000000E+00 0. -1.
         25    2    1    2    0    0  0.78022241177E+02  0.50981023056E+02  0.20265735396E+03  0.25569813506E+03  0.12499999331E+03 0.  0.
          2    1    1    2  501    0 -0.49212214720E+02 -0.33243590971E+02 -0.17244187611E+03  0.18238195924E+03  0.00000000000E+00 0. -1.
          1    1    1    2  502    0 -0.28810026457E+02 -0.17737432085E+02  0.37666697287E+03  0.37818334518E+03  0.00000000000E+00 0. -1.
         22    1    3    3    0    0  0.35723888584E+02 -0.35397803558E+02  0.31421599284E+02  0.59300232832E+02  0.00000000000E+00 0.  1.
         22    1    3    3    0    0  0.42298352592E+02  0.86378826614E+02  0.17123575468E+03  0.19639790223E+03  0.00000000000E+00 0.  1.
</event>
<event>
 7    1  0.5593520E-006  0.3845740E+02  0.7818608E-02  0.1522989E+00
          2   -1    0    0  502    0  0.00000000000E+00  0.00000000000E+00  0.14974903657E+04  0.14974903657E+04  0.00000000000E+00 0. -1.
          1   -1    0    0  501    0 -0.00000000000E+00 -0.00000000000E+00 -0.80070886610E+02  0.80070886610E+02  0.00000000000E+00 0. -1.
         25    2    1    2    0    0  0.11140334294E+01  0.12825848849E+00  0.89273951536E+03  0.90144754448E+03  0.12499030223E+03 0.  0.
          2    1    1    2  501    0 -0.36275774753E+02  0.13381371840E+02 -0.70145861165E+02  0.80096409313E+02  0.00000000000E+00 0. -1.
          1    1    1    2  502    0  0.35161741324E+02 -0.13509630328E+02  0.59482582491E+03  0.59601729852E+03  0.00000000000E+00 0. -1.
         22    1    3    3    0    0  0.23361759426E+02  0.36684278289E+02  0.12198892503E+03  0.12950986799E+03  0.00000000000E+00 0. -1.
         22    1    3    3    0    0 -0.22247725997E+02 -0.36556019800E+02  0.77075059033E+03  0.77193767649E+03  0.00000000000E+00 0. -1.
</event>
<event>
 7    1  0.5593520E-006  0.5357333E+02  0.7818608E-02  0.1538095E+00
          2   -1    0    0  502    0  0.00000000000E+00  0.00000000000E+00  0.25133512306E+03  0.25133512306E+03  0.00000000000E+00 0. -1.
          1   -1    0    0  501    0 -0.00000000000E+00 -0.00000000000E+00 -0.45024005722E+03  0.45024005722E+03  0.00000000000E+00 0. -1.
         25    2    1    2    0    0 -0.17733036194E+02 -0.26911586313E+02 -0.56690855605E+02  0.14098673109E+03  0.12499884473E+03 0.  0.
          2    1    1    2  501    0  0.18794512909E+02  0.51365315949E+02 -0.34854514196E+03  0.35281063672E+03  0.00000000000E+00 0. -1.
          1    1    1    2  502    0 -0.10614767149E+01 -0.24453729636E+02  0.20633106341E+03  0.20777781246E+03  0.00000000000E+00 0. -1.
         22    1    3    3    0    0  0.57667872777E+01  0.38961252569E+02  0.13755417714E+02  0.41718659539E+02  0.00000000000E+00 0.  1.
         22    1    3    3    0    0 -0.23499823472E+02 -0.65872838882E+02 -0.70446273319E+02  0.99268071555E+02  0.00000000000E+00 0.  1.
</event>
<event>
 7    1  0.5593520E-006  0.7651780E+02  0.7818608E-02  0.1504541E+00
          2   -1    0    0  502    0  0.00000000000E+00  0.00000000000E+00  0.26324853271E+03  0.26324853271E+03  0.00000000000E+00 0. -1.
          1   -1    0    0  501    0 -0.00000000000E+00 -0.00000000000E+00 -0.40333785582E+03  0.40333785582E+03  0.00000000000E+00 0. -1.
         25    2    1    2    0    0  0.24613551401E+02 -0.92001186866E+02  0.28405090623E+02  0.15969013849E+03  0.12499618338E+03 0.  0.
          2    1    1    2  501    0 -0.11874730560E+02  0.74756522807E+02 -0.33274825194E+03  0.34124909684E+03  0.00000000000E+00 0. -1.
          1    1    1    2  502    0 -0.12738820842E+02  0.17244664059E+02  0.16425383821E+03  0.16564715319E+03  0.00000000000E+00 0. -1.
         22    1    3    3    0    0  0.10822158912E+02 -0.92431087740E+02 -0.31474873617E+02  0.98240993345E+02  0.00000000000E+00 0. -1.
         22    1    3    3    0    0  0.13791392489E+02  0.42990087316E+00  0.59879964240E+02  0.61449145144E+02  0.00000000000E+00 0. -1.
</event>
<event>
 7    1  0.5593520E-006  0.1040402E+03  0.7818608E-02  0.1403921E+00
          2   -1    0    0  502    0  0.00000000000E+00  0.00000000000E+00  0.55585511853E+02  0.55585511853E+02  0.00000000000E+00 0. -1.
          1   -1    0    0  501    0 -0.00000000000E+00 -0.00000000000E+00 -0.16618821271E+04  0.16618821271E+04  0.00000000000E+00 0. -1.
         25    2    1    2    0    0  0.47984824405E+01 -0.97117526958E+02 -0.37565849737E+03  0.40767974400E+03  0.12501450936E+03 0.  0.
          2    1    1    2  501    0 -0.32560969520E+02 -0.52107505166E+01 -0.11985607786E+04  0.11990143071E+04  0.00000000000E+00 0. -1.
          1    1    1    2  502    0  0.27762487080E+02  0.10232827747E+03 -0.32077339230E+02  0.11077358779E+03  0.00000000000E+00 0. -1.
         22    1    3    3    0    0 -0.26539014520E-01  0.28415787068E+02 -0.38301253662E+02  0.47691128012E+02  0.00000000000E+00 0. -1.
         22    1    3    3    0    0  0.48250214550E+01 -0.12553331403E+03 -0.33735724371E+03  0.35998861599E+03  0.00000000000E+00 0. -1.
</event>
<event>
 7    1  0.5593520E-006  0.5701351E+02  0.7818608E-02  0.1557060E+00
          2   -1    0    0  502    0  0.00000000000E+00  0.00000000000E+00  0.13256017405E+04  0.13256017405E+04  0.00000000000E+00 0. -1.
          1   -1    0    0  501    0 -0.00000000000E+00 -0.00000000000E+00 -0.87089344720E+03  0.87089344720E+03  0.00000000000E+00 0. -1.
         25    2    1    2    0    0 -0.68204517953E+02 -0.34625907537E+02  0.28762439812E+03  0.32280563318E+03  0.12499949071E+03 0.  0.
          2    1    1    2  501    0  0.17770988370E+02  0.99236570379E+01 -0.85240856711E+03  0.85265154212E+03  0.00000000000E+00 0. -1.
          1    1    1    2  502    0  0.50433529583E+02  0.24702250499E+02  0.10194924623E+04  0.10210380124E+04  0.00000000000E+00 0. -1.
         22    1    3    3    0    0 -0.54096033361E+02  0.52605791269E+01  0.27251233675E+03  0.27787952101E+03  0.00000000000E+00 0. -1.
         22    1    3    3    0    0 -0.14108484592E+02 -0.39886486664E+02  0.15112061374E+02  0.44926112171E+02  0.00000000000E+00 0. -1.
</event>
<event>
 7    1  0.5593520E-006  0.1137131E+03  0.7818608E-02  0.1424678E+00
          2   -1    0    0  502    0  0.00000000000E+00  0.00000000000E+00  0.36454142215E+03  0.36454142215E+03  0.00000000000E+00 0. -1.
          1   -1    0    0  501    0 -0.00000000000E+00 -0.00000000000E+00 -0.17130683801E+03  0.17130683801E+03  0.00000000000E+00 0. -1.
         25    2    1    2    0    0  0.11893819725E+03  0.42244109770E+02 -0.47329540339E+02  0.18383567517E+03  0.12499844200E+03 0.  0.
          2    1    1    2  501    0 -0.76202130399E+01 -0.24528169406E+02 -0.41193272439E+02  0.48544664335E+02  0.00000000000E+00 0. -1.
          1    1    1    2  502    0 -0.11131798421E+03 -0.17715940364E+02  0.28175739692E+03  0.30346792066E+03  0.00000000000E+00 0. -1.
         22    1    3    3    0    0 -0.85476581904E+00  0.13530480908E+02 -0.58587960310E+02  0.60136125844E+02  0.00000000000E+00 0.  1.
         22    1    3    3    0    0  0.11979296307E+03  0.28713628862E+02  0.11258419971E+02  0.12369954933E+03  0.00000000000E+00 0.  1.
</event>
<event>
 7    1  0.5593520E-006  0.1387604E+03  0.7818608E-02  0.1319091E+00
          2   -1    0    0  502    0  0.00000000000E+00  0.00000000000E+00  0.66701274110E+03  0.66701274110E+03  0.00000000000E+00 0. -1.
          1   -1    0    0  501    0 -0.00000000000E+00 -0.00000000000E+00 -0.95014642156E+03  0.95014642156E+03  0.00000000000E+00 0. -1.
         25    2    1    2    0    0  0.92216960752E+02 -0.10544902928E+03 -0.19797468447E+03  0.27283830882E+03  0.12499320559E+03 0.  0.
          2    1    1    2  501    0  0.30481643744E+02  0.40121276905E+02 -0.70615845941E+03  0.70795382425E+03  0.00000000000E+00 0. -1.
          1    1    1    2  502    0 -0.12269860450E+03  0.65327752372E+02  0.62099946343E+03  0.63636702959E+03  0.00000000000E+00 0. -1.
         22    1    3    3    0    0  0.63216266573E+02 -0.96511855423E+02 -0.21047183758E+03  0.24001922633E+03  0.00000000000E+00 0.  1.
         22    1    3    3    0    0  0.29000694179E+02 -0.89371738544E+01  0.12497153110E+02  0.32819082486E+02  0.00000000000E+00 0.  1.
</event>
<event>
 7    1  0.5593520E-006  0.9006732E+02  0.7818608E-02  0.1309009E+00
          2   -1    0    0  502    0  0.00000000000E+00  0.00000000000E+00  0.13495902391E+04  0.13495902391E+04  0.00000000000E+00 0. -1.
          1   -1    0    0  501    0 -0.00000000000E+00 -0.00000000000E+00 -0.44269027652E+03  0.44269027652E+03  0.00000000000E+00 0. -1.
         25    2    1    2    0    0 -0.66237648912E+02 -0.23280888068E+02  0.32701674674E+03  0.35706392103E+03  0.12500106068E+03 0.  0.
          2    1    1    2  501    0  0.21552604739E+01  0.90041532036E+02 -0.42076587518E+03  0.43029762300E+03  0.00000000000E+00 0. -1.
          1    1    1    2  502    0  0.64082388438E+02 -0.66760643967E+02  0.10006490910E+04  0.10049189716E+04  0.00000000000E+00 0. -1.
         22    1    3    3    0    0 -0.91393055453E+02  0.14399270939E+02  0.26169467770E+03  0.27756825094E+03  0.00000000000E+00 0.  1.
         22    1    3    3    0    0  0.25155406541E+02 -0.37680159007E+02  0.65322069038E+02  0.79495670099E+02  0.00000000000E+00 0.  1.
</event>
<event>
 7    1  0.5593520E-006  0.1078308E+03  0.7818608E-02  0.1340453E+00
          2   -1    0    0  502    0  0.00000000000E+00  0.00000000000E+00  0.11301134769E+04  0.11301134769E+04  0.00000000000E+00 0. -1.
          1   -1    0    0  501    0 -0.00000000000E+00 -0.00000000000E+00 -0.20061418976E+03  0.20061418976E+03  0.00000000000E+00 0. -1.
         25    2    1    2    0    0  0.39264804576E+02  0.81128255800E+02  0.10360951805E+03  0.18569187671E+03  0.12499208807E+03 0.  0.
          2    1    1    2  501    0  0.50673586825E+02 -0.17856229212E+02 -0.15187938539E+03  0.16110246748E+03  0.00000000000E+00 0. -1.
          1    1    1    2  502    0 -0.89938391400E+02 -0.63272026587E+02  0.97776915453E+03  0.98393332251E+03  0.00000000000E+00 0. -1.
         22    1    3    3    0    0 -0.58799428267E+01  0.72704908672E+02  0.63944179175E+00  0.72945091394E+02  0.00000000000E+00 0. -1.
         22    1    3    3    0    0  0.45144747402E+02  0.84233471278E+01  0.10297007626E+03  0.11274678532E+03  0.00000000000E+00 0. -1.
</event>
<event>
 7    1  0.6291972E-006  0.8988358E+02  0.7818608E-02  0.1321323E+00
          2   -1    0    0  502    0  0.00000000000E+00  0.00000000000E+00  0.78757933806E+03  0.78757933806E+03  0.00000000000E+00 0. -1.
          1   -1    0    0  501    0 -0.00000000000E+00 -0.00000000000E+00 -0.14096480023E+04  0.14096480023E+04  0.00000000000E+00 0. -1.
         25    2    1    2    0    0  0.40232053087E+02  0.26812872867E+02 -0.90385669780E+02  0.16165484162E+03  0.12500068108E+03 0.  0.
          2    1    1    2  501    0 -0.86392714722E+02  0.33878004445E+02 -0.12800106684E+04  0.12833700680E+04  0.00000000000E+00 0. -1.
          1    1    1    2  502    0  0.46160661635E+02 -0.60690877312E+02  0.74832767390E+03  0.75220243073E+03  0.00000000000E+00 0. -1.
         22    1    3    3    0    0  0.13103205680E+02 -0.18251362872E+02  0.25743136515E+02  0.34168923357E+02  0.00000000000E+00 0. -1.
         22    1    3    3    0    0  0.27128847407E+02  0.45064235739E+02 -0.11612880630E+03  0.12748591827E+03  0.00000000000E+00 0. -1.
</event>
<event>
 7    1  0.5593520E-006  0.1295501E+03  0.7818608E-02  0.1315333E+00
          2   -1    0    0  502    0  0.00000000000E+00  0.00000000000E+00  0.90422359228E+03  0.90422359228E+03  0.00000000000E+00 0. -1.
          1   -1    0    0  501    0 -0.00000000000E+00 -0.00000000000E+00 -0.69541838032E+03  0.69541838032E+03  0.00000000000E+00 0. -1.
         25    2    1    2    0    0  0.75978663946E+02  0.15256564969E+03  0.53088910397E+02  0.21792494048E+03  0.12499524965E+03 0.  0.
          2    1    1    2  501    0 -0.48025271593E+02 -0.28450820770E+02 -0.60644587029E+03  0.60900941659E+03  0.00000000000E+00 0. -1.
          1    1    1    2  502    0 -0.27953392353E+02 -0.12411482892E+03  0.76216217185E+03  0.77270761553E+03  0.00000000000E+00 0. -1.
         22    1    3    3    0    0  0.34491065847E+02  0.93246310907E+02 -0.33638563751E+02  0.10495742514E+03  0.00000000000E+00 0.  1.
         22    1    3    3    0    0  0.41487598099E+02  0.59319338779E+02  0.86727474148E+02  0.11296751534E+03  0.00000000000E+00 0.  1.
</event>
<event>
 7    1  0.5593520E-006  0.2331999E+03  0.7818608E-02  0.1214117E+00
          2   -1    0    0  502    0  0.00000000000E+00  0.00000000000E+00  0.24469624086E+04  0.24469624086E+04  0.00000000000E+00 0. -1.
          1   -1    0    0  501    0 -0.00000000000E+00 -0.00000000000E+00 -0.27189877819E+03  0.27189877819E+03  0.00000000000E+00 0. -1.
         25    2    1    2    0    0 -0.14845042199E+03  0.26273397456E+03  0.54268159222E+03  0.63339933454E+03  0.12499894916E+03 0.  0.
          2    1    1    2  501    0  0.60145099054E+02 -0.57701435271E+02 -0.21190795252E+03  0.22771005449E+03  0.00000000000E+00 0. -1.
          1    1    1    2  502    0  0.88305322932E+02 -0.20503253929E+03  0.18442899907E+04  0.18577517978E+04  0.00000000000E+00 0. -1.
         22    1    3    3    0    0 -0.15074090565E+03  0.27362053991E+03  0.50236094091E+03  0.59157208813E+03  0.00000000000E+00 0. -1.
         22    1    3    3    0    0  0.22904836657E+01 -0.10886565356E+02  0.40320651311E+02  0.41827246417E+02  0.00000000000E+00 0. -1.
</event>
<event>
 7    1  0.5593520E-006  0.1123441E+03  0.7818608E-02  0.1438826E+00
          2   -1    0    0  502    0  0.00000000000E+00  0.00000000000E+00  0.10011364752E+04  0.10011364752E+04  0.00000000000E+00 0. -1.
          1   -1    0    0  501    0 -0.00000000000E+00 -0.00000000000E+00 -0.11638684332E+04  0.11638684332E+04  0.00000000000E+00 0. -1.
         25    2    1    2    0    0 -0.42580620829E+02  0.11025257836E+03  0.16999570398E+02  0.17284129828E+03  0.12496555002E+03 0.  0.
          2    1    1    2  501    0 -0.17475275134E+02 -0.15501806274E+02 -0.10823493637E+04  0.10826014209E+04  0.00000000000E+00 0. -1.
          1    1    1    2  502    0  0.60055895963E+02 -0.94750772089E+02  0.90261783535E+03  0.90956218927E+03  0.00000000000E+00 0. -1.
         22    1    3    3    0    0 -0.10605992329E+02  0.70148630396E+02  0.69591569128E+02  0.99379595056E+02  0.00000000000E+00 0. -1.
         22    1    3    3    0    0 -0.31974628501E+02  0.40103947967E+02 -0.52591998729E+02  0.73461703224E+02  0.00000000000E+00 0. -1.
</event>
<event>
 7    1  0.5593520E-006  0.1810329E+03  0.7818608E-02  0.1309991E+00
          2   -1    0    0  502    0  0.00000000000E+00  0.00000000000E+00  0.26691753230E+03  0.26691753230E+03  0.00000000000E+00 0. -1.
          1   -1    0    0  501    0 -0.00000000000E+00 -0.00000000000E+00 -0.79132643270E+03  0.79132643270E+03  0.00000000000E+00 0. -1.
         25    2    1    2    0    0 -0.75913505626E+02 -0.12396049333E+03  0.15344304378E+03  0.24555786440E+03  0.12499933135E+03 0.  0.
          2    1    1    2  501    0  0.77626988601E+02  0.16584684597E+03 -0.72606285117E+03  0.74879796309E+03  0.00000000000E+00 0. -1.
          1    1    1    2  502    0 -0.17134829749E+01 -0.41886352646E+02  0.48210906987E+02  0.63888137509E+02  0.00000000000E+00 0. -1.
         22    1    3    3    0    0  0.34225801079E+02 -0.19375121722E+02  0.24624861283E+02  0.46402420136E+02  0.00000000000E+00 0.  1.
         22    1    3    3    0    0 -0.11013930671E+03 -0.10458537161E+03  0.12881818250E+03  0.19915544426E+03  0.00000000000E+00 0.  1.
</event>
<event>
 7    1  0.5593520E-006  0.4028474E+02  0.7818608E-02  0.1514912E+00
          2   -1    0    0  502    0  0.00000000000E+00  0.00000000000E+00  0.24819224153E+03  0.24819224153E+03  0.00000000000E+00 0. -1.
          1   -1    0    0  501    0 -0.00000000000E+00 -0.00000000000E+00 -0.46757661845E+03  0.46757661845E+03  0.00000000000E+00 0. -1.
         25    2    1    2    0    0 -0.76167322500E+02 -0.10672498339E+02 -0.11602516582E+03  0.18708632779E+03  0.12499636676E+03 0.  0.
          2    1    1    2  501    0  0.38868504083E+02  0.36321458006E+01 -0.31310531624E+03  0.31552954244E+03  0.00000000000E+00 0. -1.
          1    1    1    2  502    0  0.37298818417E+02  0.70403525388E+01  0.20974610514E+03  0.21315298976E+03  0.00000000000E+00 0. -1.
         22    1    3    3    0    0 -0.78444384994E+02 -0.23002882641E+02 -0.12373080369E+02  0.82678578028E+02  0.00000000000E+00 0. -1.
         22    1    3    3    0    0  0.22770624935E+01  0.12330384301E+02 -0.10365208545E+03  0.10440774976E+03  0.00000000000E+00 0. -1.
</event>
<event>
 7    1  0.5593520E-006  0.4802777E+02  0.7818608E-02  0.1552098E+00
          2   -1    0    0  502    0  0.00000000000E+00  0.00000000000E+00  0.31357752192E+03  0.31357752192E+03  0.00000000000E+00 0. -1.
          1   -1    0    0  501    0 -0.00000000000E+00 -0.00000000000E+00 -0.19590924558E+03  0.19590924558E+03  0.00000000000E+00 0. -1.
         25    2    1    2    0    0  0.48162205672E+02  0.37267524491E+02 -0.22103010695E+02  0.14079134022E+03  0.12500076785E+03 0.  0.
          2    1    1    2  501    0 -0.45639866987E+02 -0.12455593281E+02 -0.10892320635E+03  0.11875354371E+03  0.00000000000E+00 0. -1.
          1    1    1    2  502    0 -0.25223386857E+01 -0.24811931210E+02  0.24869449339E+03  0.24994188357E+03  0.00000000000E+00 0. -1.
         22    1    3    3    0    0 -0.34843811849E+02 -0.11328965392E+02  0.12284463465E+02  0.38643818699E+02  0.00000000000E+00 0.  1.
         22    1    3    3    0    0  0.83006017522E+02  0.48596489883E+02 -0.34387474159E+02  0.10214752152E+03  0.00000000000E+00 0.  1.
</event>
<event>
 7    1  0.5593520E-006  0.5353575E+02  0.7818608E-02  0.1546213E+00
          2   -1    0    0  502    0  0.00000000000E+00  0.00000000000E+00  0.37708847898E+03  0.37708847898E+03  0.00000000000E+00 0. -1.
          1   -1    0    0  501    0 -0.00000000000E+00 -0.00000000000E+00 -0.15133229392E+04  0.15133229392E+04  0.00000000000E+00 0. -1.
         25    2    1    2    0    0 -0.46077143829E+02  0.31120783025E+02  0.10189714461E+03  0.17058870153E+03  0.12500348272E+03 0.  0.
          2    1    1    2  501    0  0.52804816478E+02 -0.88792118064E+01 -0.14779307163E+04  0.14789003994E+04  0.00000000000E+00 0. -1.
          1    1    1    2  502    0 -0.67276726490E+01 -0.22241571219E+02  0.23979911151E+03  0.24092231725E+03  0.00000000000E+00 0. -1.
         22    1    3    3    0    0  0.18950333920E+02 -0.35018652013E+02  0.51280668113E+02  0.64924017641E+02  0.00000000000E+00 0.  1.
         22    1    3    3    0    0 -0.65027477749E+02  0.66139435038E+02  0.50616476496E+02  0.10566468389E+03  0.00000000000E+00 0.  1.
</event>
<event>
 7    1  0.5593520E-006  0.3196005E+02  0.7818608E-02  0.1588411E+00
          2   -1    0    0  502    0  0.00000000000E+00  0.00000000000E+00  0.10364226044E+04  0.10364226044E+04  0.00000000000E+00 0. -1.
          1   -1    0    0  501    0 -0.00000000000E+00 -0.00000000000E+00 -0.72607761471E+02  0.72607761471E+02  0.00000000000E+00 0. -1.
         25    2    1    2    0    0  0.12559114977E+02  0.17427061519E+02  0.22059242404E+03  0.25445778764E+03  0.12500525711E+03 0.  0.
          2    1    1    2  501    0  0.15108497574E+02 -0.28666995017E+02 -0.50655294223E+02  0.60133369563E+02  0.00000000000E+00 0. -1.
          1    1    1    2  502    0 -0.27667612551E+02  0.11239933498E+02  0.79387771309E+03  0.79443920865E+03  0.00000000000E+00 0. -1.
         22    1    3    3    0    0  0.63247661388E+02  0.26318991446E+02  0.16524246240E+03  0.17887992442E+03  0.00000000000E+00 0.  1.
         22    1    3    3    0    0 -0.50688546412E+02 -0.88919299267E+01  0.55349961642E+02  0.75577863220E+02  0.00000000000E+00 0.  1.
</event>
<event>
 7    1  0.5593520E-006  0.7921866E+02  0.7818608E-02  0.1476751E+00
          2   -1    0    0  502    0  0.00000000000E+00  0.00000000000E+00  0.72129105899E+03  0.72129105899E+03  0.00000000000E+00 0. -1.
          1   -1    0    0  501    0 -0.00000000000E+00 -0.00000000000E+00 -0.29076582179E+03  0.29076582179E+03  0.00000000000E+00 0. -1.
         25    2    1    2    0    0 -0.82407211105E+02  0.33982423475E+02  0.39374721961E+03  0.42262033179E+03  0.12500127338E+03 0.  0.
          2    1    1    2  501    0  0.21613187432E+02  0.12817639284E+02 -0.27103957071E+03  0.27220189316E+03  0.00000000000E+00 0. -1.
          1    1    1    2  502    0  0.60794023673E+02 -0.46800062760E+02  0.30781758831E+03  0.31723465583E+03  0.00000000000E+00 0. -1.
         22    1    3    3    0    0 -0.12744151299E+02 -0.20981308398E+02  0.65806663211E+01  0.25415228971E+02  0.00000000000E+00 0.  1.
         22    1    3    3    0    0 -0.69663059806E+02  0.54963731873E+02  0.38716655329E+03  0.39720510282E+03  0.00000000000E+00 0.  1.
</event>
<event>
 7    1  0.5593520E-006  0.1548376E+03  0.7818608E-02  0.1321258E+00
          2   -1    0    0  502    0  0.00000000000E+00  0.00000000000E+00  0.65772258884E+03  0.65772258884E+03  0.00000000000E+00 0. -1.
          1   -1    0    0  501    0 -0.00000000000E+00 -0.00000000000E+00 -0.26077767013E+03  0.26077767013E+03  0.00000000000E+00 0. -1.
         25    2    1    2    0    0  0.79836354967E+02 -0.14235393720E+03  0.26271834209E+03  0.33359279713E+03  0.12499896005E+03 0.  0.
          2    1    1    2  501    0 -0.36261055308E+02  0.15027491324E+03 -0.19718024462E+03  0.25055431058E+03  0.00000000000E+00 0. -1.
          1    1    1    2  502    0 -0.43575299658E+02 -0.79209760406E+01  0.33140682124E+03  0.33435315127E+03  0.00000000000E+00 0. -1.
         22    1    3    3    0    0  0.10804935387E+03 -0.92305501659E+02  0.14735898733E+03  0.20471843995E+03  0.00000000000E+00 0. -1.
         22    1    3    3    0    0 -0.28212998905E+02 -0.50048435542E+02  0.11535935476E+03  0.12887435718E+03  0.00000000000E+00 0. -1.
</event>
<event>
 7    1  0.5593520E-006  0.5746376E+02  0.7818608E-02  0.1419524E+00
          2   -1    0    0  502    0  0.00000000000E+00  0.00000000000E+00  0.36135891726E+03  0.36135891726E+03  0.00000000000E+00 0. -1.
          1   -1    0    0  501    0 -0.00000000000E+00 -0.00000000000E+00 -0.72701383890E+03  0.72701383890E+03  0.00000000000E+00 0. -1.
         25    2    1    2    0    0 -0.41640348597E+02  0.58910131869E+02 -0.53255498478E+02  0.15383552605E+03  0.12499959475E+03 0.  0.
          2    1    1    2  501    0  0.52822474916E+02 -0.23561779196E+01 -0.61966178650E+03  0.62191357525E+03  0.00000000000E+00 0. -1.
          1    1    1    2  502    0 -0.11182126319E+02 -0.56553953949E+02  0.30726236334E+03  0.31262365486E+03  0.00000000000E+00 0. -1.
         22    1    3    3    0    0 -0.62526995689E+02  0.47235740083E+02  0.16507315951E+02  0.80083280471E+02  0.00000000000E+00 0.  1.
         22    1    3    3    0    0  0.20886647092E+02  0.11674391786E+02 -0.69762814428E+02  0.73752245575E+02  0.00000000000E+00 0.  1.
</event>
<event>
 7    1  0.5593520E-006  0.4446933E+02  0.7818608E-02  0.1499662E+00
          2   -1    0    0  502    0  0.00000000000E+00  0.00000000000E+00  0.79151675962E+03  0.79151675962E+03  0.00000000000E+00 0. -1.
          1   -1    0    0  501    0 -0.00000000000E+00 -0.00000000000E+00 -0.17510261647E+03  0.17510261647E+03  0.00000000000E+00 0. -1.
         25    2    1    2    0    0 -0.44139548373E+02  0.58667818701E+02  0.73313104058E+03  0.74732493259E+03  0.12499287790E+03 0.  0.
          2    1    1    2  501    0  0.91754335634E+01 -0.43418807793E+02 -0.15739378498E+03  0.16353037945E+03  0.00000000000E+00 0. -1.
          1    1    1    2  502    0  0.34964114810E+02 -0.15249010908E+02  0.40676887558E+02  0.55764064051E+02  0.00000000000E+00 0. -1.
         22    1    3    3    0    0  0.32413030235E+02 -0.10351140657E+02  0.30816573506E+03  0.31003849907E+03  0.00000000000E+00 0. -1.
         22    1    3    3    0    0 -0.76552578608E+02  0.69018959358E+02  0.42496530552E+03  0.43728643352E+03  0.00000000000E+00 0. -1.
</event>
<event>
 7    1  0.5593520E-006  0.4306732E+02  0.7818608E-02  0.1495833E+00
          2   -1    0    0  502    0  0.00000000000E+00  0.00000000000E+00  0.15955855823E+04  0.15955855823E+04  0.00000000000E+00 0. -1.
          1   -1    0    0  501    0 -0.00000000000E+00 -0.00000000000E+00 -0.82707685807E+03  0.82707685807E+03  0.00000000000E+00 0. -1.
         25    2    1    2    0    0  0.14043243807E+02 -0.39116588220E+01  0.10120675865E+04  0.10198617288E+04  0.12499852970E+03 0.  0.
          2    1    1    2  501    0  0.22015884431E+02 -0.33921662420E+02 -0.82150320470E+03  0.82249795968E+03  0.00000000000E+00 0. -1.
          1    1    1    2  502    0 -0.36059128238E+02  0.37833321242E+02  0.57794434245E+03  0.58030275193E+03  0.00000000000E+00 0. -1.
         22    1    3    3    0    0  0.52273045885E+02 -0.35746504273E+02  0.77760077117E+03  0.78017513625E+03  0.00000000000E+00 0. -1.
         22    1    3    3    0    0 -0.38229802078E+02  0.31834845451E+02  0.23446681530E+03  0.23968659251E+03  0.00000000000E+00 0. -1.
</event>
<event>
 7    1  0.6956367E-006  0.5287163E+02  0.7818608E-02  0.1526112E+00
          2   -1    0    0  502    0  0.00000000000E+00  0.00000000000E+00  0.16602880723E+04  0.16602880723E+04  0.00000000000E+00 0. -1.
          1   -1    0    0  501    0 -0.00000000000E+00 -0.00000000000E+00 -0.64437350484E+03  0.64437350484E+03  0.00000000000E+00 0. -1.
         25    2    1    2    0    0 -0.36158557138E+02  0.68824558437E+02 -0.24901126145E+03  0.28927088191E+03  0.12500709457E+03 0.  0.
          2    1    1    2  501    0  0.46229444775E+01 -0.26434541052E+02 -0.37432647817E+03  0.37528718182E+03  0.00000000000E+00 0. -1.
          1    1    1    2  502    0  0.31535612661E+02 -0.42390017385E+02  0.16392523071E+04  0.16401035134E+04  0.00000000000E+00 0. -1.
         22    1    3    3    0    0 -0.11847690864E+02 -0.19209445928E+02 -0.16053355693E+03  0.16211228668E+03  0.00000000000E+00 0.  1.
         22    1    3    3    0    0 -0.24310866274E+02  0.88034004365E+02 -0.88477704517E+02  0.12715859523E+03  0.00000000000E+00 0.  1.
</event>
<event>
 7    1  0.5593520E-006  0.1606805E+03  0.7818608E-02  0.1355406E+00
          2   -1    0    0  502    0  0.00000000000E+00  0.00000000000E+00  0.18943408458E+04  0.18943408458E+04  0.00000000000E+00 0. -1.
          1   -1    0    0  501    0 -0.00000000000E+00 -0.00000000000E+00 -0.47056399041E+03  0.47056399041E+03  0.00000000000E+00 0. -1.
         25    2    1    2    0    0  0.16932820591E+03 -0.26817762903E+02 -0.23783590874E+03  0.31871959205E+03  0.12500010058E+03 0.  0.
          2    1    1    2  501    0 -0.17778993827E+02 -0.26274741733E+02 -0.18747382181E+03  0.19013912942E+03  0.00000000000E+00 0. -1.
          1    1    1    2  502    0 -0.15154921209E+03  0.53092504636E+02  0.18490865860E+04  0.18560461148E+04  0.00000000000E+00 0. -1.
         22    1    3    3    0    0  0.16592986362E+03  0.16792652572E+02 -0.20350206662E+03  0.26311177081E+03  0.00000000000E+00 0.  1.
         22    1    3    3    0    0  0.33983422968E+01 -0.43610415475E+02 -0.34333842128E+02  0.55607821244E+02  0.00000000000E+00 0.  1.
</event>
<event>
 7    1  0.5593520E-006  0.6853853E+02  0.7818608E-02  0.1445488E+00
          2   -1    0    0  502    0  0.00000000000E+00  0.00000000000E+00  0.91852964006E+03  0.91852964006E+03  0.00000000000E+00 0. -1.
          1   -1    0    0  501    0 -0.00000000000E+00 -0.00000000000E+00 -0.24401624614E+02  0.24401624614E+02  0.00000000000E+00 0. -1.
         25    2    1    2    0    0 -0.48969349665E+02 -0.10183377626E+01  0.44868036948E+03  0.46833378716E+03  0.12499371191E+03 0.  0.
          2    1    1    2  501    0 -0.20854675263E+02 -0.29877706260E+02  0.18476793212E+02  0.40853233643E+02  0.00000000000E+00 0. -1.
          1    1    1    2  502    0  0.69824024928E+02  0.30896044023E+02  0.42697085275E+03  0.43374424388E+03  0.00000000000E+00 0. -1.
         22    1    3    3    0    0  0.17033341636E+02 -0.37913202057E+02  0.64139978548E+02  0.76429591558E+02  0.00000000000E+00 0.  1.
         22    1    3    3    0    0 -0.66002691301E+02  0.36894864295E+02  0.38454039093E+03  0.39190419560E+03  0.00000000000E+00 0.  1.
</event>
<event>
 7    1  0.5593520E-006  0.3792196E+02  0.7818608E-02  0.1545796E+00
          2   -1    0    0  502    0  0.00000000000E+00  0.00000000000E+00  0.22977819237E+04  0.22977819237E+04  0.00000000000E+00 0. -1.
          1   -1    0    0  501    0 -0.00000000000E+00 -0.00000000000E+00 -0.13636236861E+03  0.13636236861E+03  0.00000000000E+00 0. -1.
         25    2    1    2    0    0  0.18958826584E+02  0.40894384141E+02  0.12960709522E+02  0.13351019996E+03  0.12500082297E+03 0.  0.
          2    1    1    2  501    0 -0.36079878680E+02 -0.12809015069E+02 -0.71141793527E+02  0.80789747486E+02  0.00000000000E+00 0. -1.
          1    1    1    2  502    0  0.17121052097E+02 -0.28085369071E+02  0.22196006391E+04  0.22198443449E+04  0.00000000000E+00 0. -1.
         22    1    3    3    0    0 -0.42107024269E+01  0.80551002499E+02  0.27683144055E+02  0.85279250016E+02  0.00000000000E+00 0.  1.
         22    1    3    3    0    0  0.23169529011E+02 -0.39656618359E+02 -0.14722434532E+02  0.48230949947E+02  0.00000000000E+00 0.  1.
</event>
<event>
 7    1  0.5593520E-006  0.1265445E+03  0.7818608E-02  0.1240097E+00
          2   -1    0    0  502    0  0.00000000000E+00  0.00000000000E+00  0.16404408505E+03  0.16404408505E+03  0.00000000000E+00 0. -1.
          1   -1    0    0  501    0 -0.00000000000E+00 -0.00000000000E+00 -0.84878207033E+03  0.84878207033E+03  0.00000000000E+00 0. -1.
         25    2    1    2    0    0  0.10112738230E+03  0.16108014454E+03 -0.93641078108E+02  0.24610194659E+03  0.12499582469E+03 0.  0.
          2    1    1    2  501    0  0.76540612313E+01 -0.11705410501E+03 -0.63173552659E+03  0.64253406424E+03  0.00000000000E+00 0. -1.
          1    1    1    2  502    0 -0.10878144354E+03 -0.44026039531E+02  0.40638619418E+02  0.12419014455E+03  0.00000000000E+00 0. -1.
         22    1    3    3    0    0  0.69039891311E+02  0.16827612499E+03 -0.10652171561E+03  0.21078481143E+03  0.00000000000E+00 0. -1.
         22    1    3    3    0    0  0.32087490993E+02 -0.71959804534E+01  0.12880637506E+02  0.35317135154E+02  0.00000000000E+00 0. -1.
</event>
<event>
 7    1  0.5593520E-006  0.1389032E+03  0.7818608E-02  0.1257073E+00
          2   -1    0    0  502    0  0.00000000000E+00  0.00000000000E+00  0.21616933310E+04  0.21616933310E+04  0.00000000000E+00 0. -1.
          1   -1    0    0  501    0 -0.00000000000E+00 -0.00000000000E+00 -0.74987367362E+02  0.74987367362E+02  0.00000000000E+00 0. -1.
         25    2    1    2    0    0  0.58657655036E+02 -0.94416513708E+02  0.13132041600E+03  0.21266197319E+03  0.12499945852E+03 0.  0.
          2    1    1    2  501    0 -0.14625165382E+03  0.11578315960E+03  0.22934753283E+03  0.29562742956E+03  0.00000000000E+00 0. -1.
          1    1    1    2  502    0  0.87593998784E+02 -0.21366645888E+02  0.17260380148E+04  0.17283912956E+04  0.00000000000E+00 0. -1.
         22    1    3    3    0    0 -0.27865269332E+02  0.40009424174E+01  0.52961146197E+02  0.59978027490E+02  0.00000000000E+00 0. -1.
         22    1    3    3    0    0  0.86522924368E+02 -0.98417456125E+02  0.78359269800E+02  0.15268394570E+03  0.00000000000E+00 0. -1.
</event>
<event>
 7    1  0.5593520E-006  0.7642706E+02  0.7818608E-02  0.1387625E+00
          2   -1    0    0  502    0  0.00000000000E+00  0.00000000000E+00  0.35944949912E+03  0.35944949912E+03  0.00000000000E+00 0. -1.
          1   -1    0    0  501    0 -0.00000000000E+00 -0.00000000000E+00 -0.70049258638E+03  0.70049258638E+03  0.00000000000E+00 0. -1.
         25    2    1    2    0    0  0.97259281142E+02 -0.80510241501E+01  0.92783325053E+02  0.18373410725E+03  0.12500115999E+03 0.  0.
          2    1    1    2  501    0 -0.29945739539E+02  0.41421967986E+02 -0.64760110667E+03  0.64961505533E+03  0.00000000000E+00 0. -1.
          1    1    1    2  502    0 -0.67313541603E+02 -0.33370943836E+02  0.21377469436E+03  0.22659292293E+03  0.00000000000E+00 0. -1.
         22    1    3    3    0    0  0.10225005267E+02  0.38094027549E+02 -0.10691436166E+02  0.40865786117E+02  0.00000000000E+00 0. -1.
         22    1    3    3    0    0  0.87034275875E+02 -0.46145051699E+02  0.10347476122E+03  0.14286832113E+03  0.00000000000E+00 0. -1.
</event>
<event>
 7    1  0.5593520E-006  0.1710909E+03  0.7818608E-02  0.1336889E+00
          2   -1    0    0  502    0  0.00000000000E+00  0.00000000000E+00  0.17843293353E+04  0.17843293353E+04  0.00000000000E+00 0. -1.
          1   -1    0    0  501    0 -0.00000000000E+00 -0.00000000000E+00 -0.50107131214E+03  0.50107131214E+03  0.00000000000E+00 0. -1.
         25    2    1    2    0    0 -0.10469587307E+03  0.16898990206E+03  0.47041743156E+03  0.52577209719E+03  0.12499970172E+03 0.  0.
          2    1    1    2  501    0  0.10497560683E+03 -0.13406521621E+03 -0.45783483433E+03  0.48847322931E+03  0.00000000000E+00 0. -1.
          1    1    1    2  502    0 -0.27973375914E+00 -0.34924685854E+02  0.12706754259E+04  0.12711553210E+04  0.00000000000E+00 0. -1.
         22    1    3    3    0    0 -0.28112481066E+02  0.81114857307E+02  0.76558891004E+02  0.11502693363E+03  0.00000000000E+00 0.  1.
         22    1    3    3    0    0 -0.76583392005E+02  0.87875044756E+02  0.39385854056E+03  0.41074516357E+03  0.00000000000E+00 0.  1.
</event>
<event>
 7    1  0.5593520E-006  0.5665604E+02  0.7818608E-02  0.1497475E+00
          2   -1    0    0  502    0  0.00000000000E+00  0.00000000000E+00  0.54948198217E+03  0.54948198217E+03  0.00000000000E+00 0. -1.
          1   -1    0    0  501    0 -0.00000000000E+00 -0.00000000000E+00 -0.58746798901E+02  0.58746798901E+02  0.00000000000E+00 0. -1.
         25    2    1    2    0    0  0.34306777918E+02  0.23598772990E+01  0.20501386399E+03  0.24256716130E+03  0.12500247710E+03 0.  0.
          2    1    1    2  501    0 -0.56016202337E+02  0.18912199714E+02 -0.16921402291E+02  0.61496504598E+02  0.00000000000E+00 0. -1.
          1    1    1    2  502    0  0.21709424419E+02 -0.21272077013E+02  0.30264272158E+03  0.30416511518E+03  0.00000000000E+00 0. -1.
         22    1    3    3    0    0  0.18805393223E+02 -0.45058386170E+02  0.23244239253E+02  0.54075832282E+02  0.00000000000E+00 0. -1.
         22    1    3    3    0    0  0.15501384695E+02  0.47418263469E+02  0.18176962473E+03  0.18849132901E+03  0.00000000000E+00 0. -1.
</event>
<event>
 7    1  0.5593520E-006  0.1014891E+03  0.7818608E-02  0.1466246E+00
          2   -1    0    0  502    0  0.00000000000E+00  0.00000000000E+00  0.15337554393E+03  0.15337554393E+03  0.00000000000E+00 0. -1.
          1   -1    0    0  501    0 -0.00000000000E+00 -0.00000000000E+00 -0.66467447442E+03  0.66467447442E+03  0.00000000000E+00 0. -1.
         25    2    1    2    0    0  0.42650168915E+02  0.72816740459E+02 -0.69657147818E+02  0.16610106025E+03  0.12496451246E+03 0.  0.
          2    1    1    2  501    0  0.77619642705E+01  0.19667242128E+02 -0.52014930924E+03  0.52057886281E+03  0.00000000000E+00 0. -1.
          1    1    1    2  502    0 -0.50412133186E+02 -0.92483982588E+02  0.78507526565E+02  0.13137009528E+03  0.00000000000E+00 0. -1.
         22    1    3    3    0    0  0.30357361672E+02  0.41066468188E+02 -0.10516414572E+03  0.11690817663E+03  0.00000000000E+00 0. -1.
         22    1    3    3    0    0  0.12292807243E+02  0.31750272271E+02  0.35506997903E+02  0.49192883624E+02  0.00000000000E+00 0. -1.
</event>
<event>
 7    1  0.5835067E-006  0.7668591E+02  0.7818608E-02  0.1343696E+00
          2   -1    0    0  502    0  0.00000000000E+00  0.00000000000E+00  0.27880103177E+04  0.27880103177E+04  0.00000000000E+00 0. -1.
          1   -1    0    0  501    0 -0.00000000000E+00 -0.00000000000E+00 -0.35332749906E+03  0.35332749906E+03  0.00000000000E+00 0. -1.
         25    2    1    2    0    0 -0.34057959996E+02 -0.13360174712E+03  0.45882122350E+02  0.19167411653E+03  0.12499770527E+03 0.  0.
          2    1    1    2  501    0 -0.88401347961E+01  0.73965899731E+02 -0.27496922806E+03  0.28488099039E+03  0.00000000000E+00 0. -1.
          1    1    1    2  502    0  0.42898094792E+02  0.59635847390E+02  0.26637699243E+04  0.26647827098E+04  0.00000000000E+00 0. -1.
         22    1    3    3    0    0  0.12744464498E+02 -0.13813264493E+03  0.39415048417E+02  0.14421024586E+03  0.00000000000E+00 0.  1.
         22    1    3    3    0    0 -0.46802424494E+02  0.45308978042E+01  0.64670739331E+01  0.47463870667E+02  0.00000000000E+00 0.  1.
</event>
<event>
 7    1  0.5593520E-006  0.6349965E+02  0.7818608E-02  0.1406726E+00
          2   -1    0    0  502    0  0.00000000000E+00  0.00000000000E+00  0.41152639540E+03  0.41152639540E+03  0.00000000000E+00 0. -1.
          1   -1    0    0  501    0 -0.00000000000E+00 -0.00000000000E+00 -0.35687896970E+03  0.35687896970E+03  0.00000000000E+00 0. -1.
         25    2    1    2    0    0  0.74353144513E+02 -0.84198613906E+02  0.10624738113E+03  0.19882432403E+03  0.12499923658E+03 0.  0.
          2    1    1    2  501    0 -0.31471738302E+02  0.42458376225E+02 -0.30482931462E+03  0.30937694658E+03  0.00000000000E+00 0. -1.
          1    1    1    2  502    0 -0.42881406211E+02  0.41740237681E+02  0.25322935918E+03  0.26020409449E+03  0.00000000000E+00 0. -1.
         22    1    3    3    0    0  0.83759789343E+02 -0.36914705309E+01  0.73171180504E+02  0.11128050558E+03  0.00000000000E+00 0.  1.
         22    1    3    3    0    0 -0.94066448298E+01 -0.80507143375E+02  0.33076200629E+02  0.87543818453E+02  0.00000000000E+00 0.  1.
</event>
<event>
 7    1  0.5593520E-006  0.6949349E+02  0.7818608E-02  0.1415519E+00
          2   -1    0    0  502    0  0.00000000000E+00  0.00000000000E+00  0.65324950883E+02  0.65324950883E+02  0.00000000000E+00 0. -1.
          1   -1    0    0  501    0 -0.00000000000E+00 -0.00000000000E+00 -0.28608219082E+04  0.28608219082E+04  0.00000000000E+00 0. -1.
         25    2    1    2    0    0 -0.38024630339E+02 -0.95301151298E+02 -0.24850659129E+03  0.29649319838E+03  0.12499803525E+03 0.  0.
          2    1    1    2  501    0  0.14200941488E+01  0.68964084750E+02 -0.25754211476E+04  0.25763447263E+04  0.00000000000E+00 0. -1.
          1    1    1    2  502    0  0.36604536190E+02  0.26337066548E+02  0.28430781536E+02  0.53308934362E+02  0.00000000000E+00 0. -1.
         22    1    3    3    0    0 -0.75135512666E+02 -0.63210420474E+02 -0.21701583249E+03  0.23819482377E+03  0.00000000000E+00 0. -1.
         22    1    3    3    0    0  0.37110882327E+02 -0.32090730823E+02 -0.31490758805E+02  0.58298374608E+02  0.00000000000E+00 0. -1.
</event>
<event>
 7    1  0.5593520E-006  0.1205767E+03  0.7818608E-02  0.1431672E+00
          2   -1    0    0  502    0  0.00000000000E+00  0.00000000000E+00  0.10909981059E+04  0.10909981059E+04  0.00000000000E+00 0. -1.
          1   -1    0    0  501    0 -0.00000000000E+00 -0.00000000000E+00 -0.16578140748E+03  0.16578140748E+03  0.00000000000E+00 0. -1.
         25    2    1    2    0    0 -0.61565898309E+02  0.12744388008E+03  0.43582402351E+03  0.47497377882E+03  0.12500083478E+03 0.  0.
          2    1    1    2  501    0  0.46654984984E+02 -0.10997331643E+03 -0.12155284535E+03  0.17042861310E+03  0.00000000000E+00 0. -1.
          1    1    1    2  502    0  0.14910913325E+02 -0.17470563652E+02  0.61094552023E+03  0.61137712144E+03  0.00000000000E+00 0. -1.
         22    1    3    3    0    0  0.27829818005E+02 -0.56209504408E+01  0.72209713925E+02  0.77590828318E+02  0.00000000000E+00 0. -1.
         22    1    3    3    0    0 -0.89395716314E+02  0.13306483052E+03  0.36361430959E+03  0.39738295051E+03  0.00000000000E+00 0. -1.
</event>
<event>
 7    1  0.5593520E-006  0.1215289E+03  0.7818608E-02  0.1308091E+00
          2   -1    0    0  502    0  0.00000000000E+00  0.00000000000E+00  0.14813384480E+04  0.14813384480E+04  0.00000000000E+00 0. -1.
          1   -1    0    0  501    0 -0.00000000000E+00 -0.00000000000E+00 -0.20128158149E+03  0.20128158149E+03  0.00000000000E+00 0. -1.
         25    2    1    2    0    0  0.92681387238E+02 -0.86102220339E+02  0.40246931910E+03  0.44000816989E+03  0.12498881895E+03 0.  0.
          2    1    1    2  501    0 -0.36817678008E+02  0.11636611840E+03 -0.16102734700E+03  0.20205549091E+03  0.00000000000E+00 0. -1.
          1    1    1    2  502    0 -0.55863709230E+02 -0.30263898058E+02  0.10386148944E+04  0.10405563687E+04  0.00000000000E+00 0. -1.
         22    1    3    3    0    0 -0.25467692200E+02 -0.43125173989E+01  0.12385947193E+03  0.12652418717E+03  0.00000000000E+00 0.  1.
         22    1    3    3    0    0  0.11814907944E+03 -0.81789702940E+02  0.27860984717E+03  0.31348398271E+03  0.00000000000E+00 0.  1.
</event>
<event>
 7    1  0.5593520E-006  0.9420758E+02  0.7818608E-02  0.1407365E+00
          2   -1    0    0  502    0  0.00000000000E+00  0.00000000000E+00  0.60915087303E+03  0.60915087303E+03  0.00000000000E+00 0. -1.
          1   -1    0    0  501    0 -0.00000000000E+00 -0.00000000000E+00 -0.19890525778E+04  0.19890525778E+04  0.00000000000E+00 0. -1.
         25    2    1    2    0    0 -0.99044577389E+02  0.70867225079E+02 -0.44931643634E+02  0.18021092869E+03  0.12500053727E+03 0.  0.
          2    1    1    2  501    0  0.63656489641E+02 -0.68855721233E+02 -0.18747281354E+04  0.18770718795E+04  0.00000000000E+00 0. -1.
          1    1    1    2  502    0  0.35388087748E+02 -0.20115038466E+01  0.53975807428E+03  0.54092064266E+03  0.00000000000E+00 0. -1.
         22    1    3    3    0    0 -0.31939009067E+02 -0.35254841746E+02 -0.22658788117E+02  0.52691791065E+02  0.00000000000E+00 0.  1.
         22    1    3    3    0    0 -0.67105568321E+02  0.10612206683E+03 -0.22272855518E+02  0.12751913762E+03  0.00000000000E+00 0.  1.
</event>
<event>
 7    1  0.5593520E-006  0.5488480E+02  0.7818608E-02  0.1421422E+00
          2   -1    0    0  502    0  0.00000000000E+00  0.00000000000E+00  0.65790394670E+03  0.65790394670E+03  0.00000000000E+00 0. -1.
          1   -1    0    0  501    0 -0.00000000000E+00 -0.00000000000E+00 -0.58362852753E+02  0.58362852753E+02  0.00000000000E+00 0. -1.
         25    2    1    2    0    0 -0.23070474716E+02  0.17519494304E+02  0.33221838039E+03  0.35613917429E+03  0.12500751862E+03 0.  0.
          2    1    1    2  501    0 -0.16764692099E+02 -0.54798597635E+02 -0.25170314775E+02  0.62589823053E+02  0.00000000000E+00 0. -1.
          1    1    1    2  502    0  0.39835166815E+02  0.37279103331E+02  0.29249302834E+03  0.29753780212E+03  0.00000000000E+00 0. -1.
         22    1    3    3    0    0 -0.10110304374E+02  0.11710803541E+02  0.33972359575E+03  0.34007570140E+03  0.00000000000E+00 0.  1.
         22    1    3    3    0    0 -0.12960170341E+02  0.58086907635E+01 -0.75052153607E+01  0.16063472890E+02  0.00000000000E+00 0.  1.
</event>
<event>
 7    1  0.5593520E-006  0.4124328E+02  0.7818608E-02  0.1554469E+00
          2   -1    0    0  502    0  0.00000000000E+00  0.00000000000E+00  0.19435236297E+03  0.19435236297E+03  0.00000000000E+00 0. -1.
          1   -1    0    0  501    0 -0.00000000000E+00 -0.00000000000E+00 -0.15596021949E+03  0.15596021949E+03  0.00000000000E+00 0. -1.
         25    2    1    2    0    0 -0.55228789112E+02 -0.11721358814E+02  0.11488802318E+03  0.17891958603E+03  0.12500140397E+03 0.  0.
          2    1    1    2  501    0  0.30989057206E+02  0.26910287526E+02 -0.11575619612E+03  0.12281686440E+03  0.00000000000E+00 0. -1.
          1    1    1    2  502    0  0.24239731907E+02 -0.15188928712E+02  0.39260316414E+02  0.48576132033E+02  0.00000000000E+00 0. -1.
         22    1    3    3    0    0 -0.73954729543E+02  0.36672175810E+02  0.87315040472E+02  0.12015850695E+03  0.00000000000E+00 0.  1.
         22    1    3    3    0    0  0.18725940431E+02 -0.48393534623E+02  0.27572982711E+02  0.58761079074E+02  0.00000000000E+00 0.  1.
</event>
<event>
 7    1  0.5593520E-006  0.1213835E+03  0.7818608E-02  0.1325171E+00
          2   -1    0    0  502    0  0.00000000000E+00  0.00000000000E+00  0.11493639639E+04  0.11493639639E+04  0.00000000000E+00 0. -1.
          1   -1    0    0  501    0 -0.00000000000E+00 -0.00000000000E+00 -0.14598448018E+03  0.14598448018E+03  0.00000000000E+00 0. -1.
         25    2    1    2    0    0  0.12833823332E+03 -0.25682429358E+02  0.20589397478E+03  0.27413037476E+03  0.12499937683E+03 0.  0.
          2    1    1    2  501    0 -0.11825194008E+03 -0.27941711354E+02 -0.77768863214E+02  0.14426453706E+03  0.00000000000E+00 0. -1.
          1    1    1    2  502    0 -0.10086293243E+02  0.53624140713E+02  0.87525437219E+03  0.87695353230E+03  0.00000000000E+00 0. -1.
         22    1    3    3    0    0  0.17645933266E+02 -0.60947677846E+02  0.57144255508E+02  0.85390071632E+02  0.00000000000E+00 0. -1.
         22    1    3    3    0    0  0.11069230006E+03  0.35265248488E+02  0.14874971927E+03  0.18874030313E+03  0.00000000000E+00 0. -1.
</event>
<event>
 7    1  0.5593520E-006  0.2087172E+03  0.7818608E-02  0.1292040E+00
          2   -1    0    0  502    0  0.00000000000E+00  0.00000000000E+00  0.22029348167E+04  0.22029348167E+04  0.00000000000E+00 0. -1.
          1   -1    0    0  501    0 -0.00000000000E+00 -0.00000000000E+00 -0.24920883940E+03  0.24920883940E+03  0.00000000000E+00 0. -1.
         25    2    1    2    0    0 -0.40283434161E+02 -0.21450002740E+03  0.16338264139E+03  0.29991291080E+03  0.12498339784E+03 0.  0.
          2    1    1    2  501    0  0.42434822582E+02  0.62520818273E+01 -0.17281417441E+03  0.17805769169E+03  0.00000000000E+00 0. -1.
          1    1    1    2  502    0 -0.21513884207E+01  0.20824794557E+03  0.19631575103E+04  0.19741730536E+04  0.00000000000E+00 0. -1.
         22    1    3    3    0    0 -0.34414136526E+02 -0.10197596602E+03  0.15257993621E+03  0.18671922069E+03  0.00000000000E+00 0.  1.
         22    1    3    3    0    0 -0.58692976353E+01 -0.11252406137E+03  0.10802705179E+02  0.11319369012E+03  0.00000000000E+00 0.  1.
</event>
<event>
 7    1  0.5593520E-006  0.7828172E+02  0.7818608E-02  0.1485410E+00
          2   -1    0    0  502    0  0.00000000000E+00  0.00000000000E+00  0.20658322640E+04  0.20658322640E+04  0.00000000000E+00 0. -1.
          1   -1    0    0  501    0 -0.00000000000E+00 -0.00000000000E+00 -0.15048074264E+03  0.15048074264E+03  0.00000000000E+00 0. -1.
         25    2    1    2    0    0  0.34852221737E+02  0.44418660399E+02  0.12275022613E+04  0.12351415984E+04  0.12500108793E+03 0.  0.
          2    1    1    2  501    0 -0.39296704848E+02 -0.67924486507E+02 -0.13597806999E+03  0.15699682289E+03  0.00000000000E+00 0. -1.
          1    1    1    2  502    0  0.44444831108E+01  0.23505826108E+02  0.82382733009E+03  0.82417458532E+03  0.00000000000E+00 0. -1.
         22    1    3    3    0    0  0.27466024280E+02 -0.32330503585E+02  0.77159847488E+03  0.77276377399E+03  0.00000000000E+00 0.  1.
         22    1    3    3    0    0  0.73861974574E+01  0.76749163984E+02  0.45590378639E+03  0.46237782444E+03  0.00000000000E+00 0.  1.
</event>
<event>
 7    1  0.5593520E-006  0.1129593E+03  0.7818608E-02  0.1383878E+00
          2   -1    0    0  502    0  0.00000000000E+00  0.00000000000E+00  0.28559944204E+03  0.28559944204E+03  0.00000000000E+00 0. -1.
          1   -1    0    0  501    0 -0.00000000000E+00 -0.00000000000E+00 -0.10418557736E+04  0.10418557736E+04  0.00000000000E+00 0. -1.
         25    2    1    2    0    0  0.77682091727E+02  0.80505473326E+02 -0.39069706002E+03  0.42518924432E+03  0.12500424862E+03 0.  0.
          2    1    1    2  501    0 -0.28507129279E+02  0.21401089016E+02 -0.62145164243E+03  0.62247313750E+03  0.00000000000E+00 0. -1.
          1    1    1    2  502    0 -0.49174962448E+02 -0.10190656234E+03  0.25589237089E+03  0.27979283382E+03  0.00000000000E+00 0. -1.
         22    1    3    3    0    0  0.27805292275E+01  0.63276715731E+02 -0.65821991006E+02  0.91346639766E+02  0.00000000000E+00 0. -1.
         22    1    3    3    0    0  0.74901562499E+02  0.17228757594E+02 -0.32487506901E+03  0.33384260456E+03  0.00000000000E+00 0. -1.
</event>
<event>
 7    1  0.5593520E-006  0.1122224E+03  0.7818608E-02  0.1391189E+00
          2   -1    0    0  502    0  0.00000000000E+00  0.00000000000E+00  0.13911474640E+04  0.13911474640E+04  0.00000000000E+00 0. -1.
          1   -1    0    0  501    0 -0.00000000000E+00 -0.00000000000E+00 -0.30609224698E+03  0.30609224698E+03  0.00000000000E+00 0. -1.
         25    2    1    2    0    0  0.57200743884E+02 -0.88417681737E+02  0.10368878800E+04  0.10496907849E+04  0.12499862664E+03 0.  0.
          2    1    1    2  501    0 -0.86557085414E+02  0.71612957225E+02 -0.28828489417E+03  0.30940058966E+03  0.00000000000E+00 0. -1.
          1    1    1    2  502    0  0.29356341530E+02  0.16804724512E+02  0.33645223123E+03  0.33814833647E+03  0.00000000000E+00 0. -1.
         22    1    3    3    0    0  0.63027879276E+02 -0.73054666965E+02  0.10247011185E+04  0.10292336374E+04  0.00000000000E+00 0. -1.
         22    1    3    3    0    0 -0.58271353923E+01 -0.15363014772E+02  0.12186761411E+02  0.20457147490E+02  0.00000000000E+00 0. -1.
</event>
<event>
 7    1  0.5593520E-006  0.5713430E+02  0.7818608E-02  0.1449748E+00
          2   -1    0    0  502    0  0.00000000000E+00  0.00000000000E+00  0.17470440095E+03  0.17470440095E+03  0.00000000000E+00 0. -1.
          1   -1    0    0  501    0 -0.00000000000E+00 -0.00000000000E+00 -0.21986336109E+04  0.21986336109E+04  0.00000000000E+00 0. -1.
         25    2    1    2    0    0  0.80310022105E+02  0.28195403788E+02 -0.50100033472E+03  0.52332683150E+03  0.12499982692E+03 0.  0.
          2    1    1    2  501    0 -0.40469219228E+02  0.12494557121E+02 -0.16812378131E+04  0.16817712258E+04  0.00000000000E+00 0. -1.
          1    1    1    2  502    0 -0.39840802877E+02 -0.40689960909E+02  0.15830893789E+03  0.16823995456E+03  0.00000000000E+00 0. -1.
         22    1    3    3    0    0  0.77136808593E+01  0.64878932570E+02 -0.16142565859E+03  0.17414654753E+03  0.00000000000E+00 0.  1.
         22    1    3    3    0    0  0.72596341246E+02 -0.36683528782E+02 -0.33957467613E+03  0.34918028397E+03  0.00000000000E+00 0.  1.
</event>
<event>
 7    1  0.7305068E-006  0.7958386E+02  0.7818608E-02  0.1395933E+00
          2   -1    0    0  502    0  0.00000000000E+00  0.00000000000E+00  0.75368666488E+03  0.75368666488E+03  0.00000000000E+00 0. -1.
          1   -1    0    0  501    0 -0.00000000000E+00 -0.00000000000E+00 -0.14416501710E+04  0.14416501710E+04  0.00000000000E+00 0. -1.
         25    2    1    2    0    0 -0.38386829376E+02 -0.91782786449E+02 -0.50496744511E+03  0.52963643934E+03  0.12500003480E+03 0.  0.
          2    1    1    2  501    0  0.44203750611E+02  0.12449867523E+02 -0.92164108082E+03  0.92278451039E+03  0.00000000000E+00 0. -1.
          1    1    1    2  502    0 -0.58169212347E+01  0.79332918926E+02  0.73864501980E+03  0.74291588614E+03  0.00000000000E+00 0. -1.
         22    1    3    3    0    0 -0.67664361897E+02 -0.27446646399E+02 -0.37149019152E+03  0.37859839760E+03  0.00000000000E+00 0.  1.
         22    1    3    3    0    0  0.29277532521E+02 -0.64336140050E+02 -0.13347725359E+03  0.15103804174E+03  0.00000000000E+00 0.  1.
</event>
<event>
 7    1  0.5593520E-006  0.1691051E+03  0.7818608E-02  0.1264718E+00
          2   -1    0    0  502    0  0.00000000000E+00  0.00000000000E+00  0.10425300606E+04  0.10425300606E+04  0.00000000000E+00 0. -1.
          1   -1    0    0  501    0 -0.00000000000E+00 -0.00000000000E+00 -0.47476042017E+03  0.47476042017E+03  0.00000000000E+00 0. -1.
         25    2    1    2    0    0  0.12038068118E+03 -0.10440343032E+02  0.10821430533E+03  0.20477896647E+03  0.12499432013E+03 0.  0.
          2    1    1    2  501    0 -0.17161069509E+03 -0.35342731408E+02 -0.40706503342E+03  0.44317184113E+03  0.00000000000E+00 0. -1.
          1    1    1    2  502    0  0.51230013910E+02  0.45783074440E+02  0.86662036851E+03  0.86933967317E+03  0.00000000000E+00 0. -1.
         22    1    3    3    0    0  0.14468679607E+03  0.13281030142E+01  0.78458622172E+02  0.16459583290E+03  0.00000000000E+00 0. -1.
         22    1    3    3    0    0 -0.24306114889E+02 -0.11768446046E+02  0.29755683153E+02  0.40183133567E+02  0.00000000000E+00 0. -1.
</event>
<event>
 7    1  0.5593520E-006  0.5156406E+02  0.7818608E-02  0.1544173E+00
          2   -1    0    0  502    0  0.00000000000E+00  0.00000000000E+00  0.13440827961E+04  0.13440827961E+04  0.00000000000E+00 0. -1.
          1   -1    0    0  501    0 -0.00000000000E+00 -0.00000000000E+00 -0.18421781288E+02  0.18421781288E+02  0.00000000000E+00 0. -1.
         25    2    1    2    0    0 -0.53906982646E+02 -0.19186790771E+02  0.82043155243E+03  0.83186921092E+03  0.12499742456E+03 0.  0.
          2    1    1    2  501    0  0.28805134655E+01  0.24275167827E+02  0.17032775119E+01  0.24504740054E+02  0.00000000000E+00 0. -1.
          1    1    1    2  502    0  0.51026469181E+02 -0.50883770556E+01  0.50352618488E+03  0.50613062642E+03  0.00000000000E+00 0. -1.
         22    1    3    3    0    0 -0.71948861634E+02  0.34345651517E+02  0.53417284310E+03  0.54008970438E+03  0.00000000000E+00 0.  1.
         22    1    3    3    0    0  0.18041878988E+02 -0.53532442288E+02  0.28625870932E+03  0.29177950654E+03  0.00000000000E+00 0.  1.
</event>
<event>
 7    1  0.5593520E-006  0.4169220E+02  0.7818608E-02  0.1566302E+00
          2   -1    0    0  502    0  0.00000000000E+00  0.00000000000E+00  0.16907395412E+03  0.16907395412E+03  0.00000000000E+00 0. -1.
          1   -1    0    0  501    0 -0.00000000000E+00 -0.00000000000E+00 -0.12744083054E+04  0.12744083054E+04  0.00000000000E+00 0. -1.
         25    2    1    2    0    0 -0.53179598913E+02 -0.15311536620E+02 -0.93553324729E+02  0.16564860774E+03  0.12499889513E+03 0.  0.
          2    1    1    2  501    0  0.22821337714E+02 -0.12978403013E+02 -0.11414166207E+04  0.11417185093E+04  0.00000000000E+00 0. -1.
          1    1    1    2  502    0  0.30358261199E+02  0.28289939633E+02  0.12963559423E+03  0.13611514243E+03  0.00000000000E+00 0. -1.
         22    1    3    3    0    0 -0.85338055444E+02 -0.41215965329E+02 -0.72340912565E+02  0.11922477568E+03  0.00000000000E+00 0.  1.
         22    1    3    3    0    0  0.32158456531E+02  0.25904428709E+02 -0.21212412164E+02  0.46423832058E+02  0.00000000000E+00 0.  1.
</event>
<event>
 7    1  0.5593520E-006  0.6048072E+02  0.7818608E-02  0.1442841E+00
          2   -1    0    0  502    0  0.00000000000E+00  0.00000000000E+00  0.12066843412E+04  0.12066843412E+04  0.00000000000E+00 0. -1.
          1   -1    0    0  501    0 -0.00000000000E+00 -0.00000000000E+00 -0.96096932578E+03  0.96096932578E+03  0.00000000000E+00 0. -1.
         25    2    1    2    0    0  0.61843921426E+02 -0.57914638779E+02  0.28765801897E+02  0.15374962004E+03  0.12503078942E+03 0.  0.
          2    1    1    2  501    0 -0.37072887291E+01  0.41947169080E+02 -0.89716851508E+03  0.89815625224E+03  0.00000000000E+00 0. -1.
          1    1    1    2  502    0 -0.58136632697E+02  0.15967469699E+02  0.11141177286E+04  0.11157477947E+04  0.00000000000E+00 0. -1.
         22    1    3    3    0    0 -0.24488384485E+01  0.18970809967E+02 -0.31462344650E+02  0.36820749196E+02  0.00000000000E+00 0.  1.
         22    1    3    3    0    0  0.64292759875E+02 -0.76885448745E+02  0.60228146547E+02  0.11692887085E+03  0.00000000000E+00 0.  1.
</event>
<event>
 7    1  0.5593520E-006  0.6640870E+02  0.7818608E-02  0.1449129E+00
          2   -1    0    0  502    0  0.00000000000E+00  0.00000000000E+00  0.68621746385E+03  0.68621746385E+03  0.00000000000E+00 0. -1.
          1   -1    0    0  501    0 -0.00000000000E+00 -0.00000000000E+00 -0.68539288794E+03  0.68539288794E+03  0.00000000000E+00 0. -1.
         25    2    1    2    0    0 -0.28842644810E+02 -0.53513966925E+02 -0.64942121996E+02  0.15342690559E+03  0.12500677316E+03 0.  0.
          2    1    1    2  501    0 -0.52417642481E+01  0.66864414754E+02 -0.57373149468E+03  0.57763842847E+03  0.00000000000E+00 0. -1.
          1    1    1    2  502    0  0.34084409058E+02 -0.13350447829E+02  0.63949819259E+03  0.64054501772E+03  0.00000000000E+00 0. -1.
         22    1    3    3    0    0  0.15179406184E+02 -0.72342515943E+02 -0.14845882384E+01  0.73932793720E+02  0.00000000000E+00 0. -1.
         22    1    3    3    0    0 -0.44022050994E+02  0.18828549018E+02 -0.63457533758E+02  0.79494111873E+02  0.00000000000E+00 0. -1.
</event>
<event>
 7    1  0.5593520E-006  0.5278793E+02  0.7818608E-02  0.1449738E+00
          2   -1    0    0  502    0  0.00000000000E+00  0.00000000000E+00  0.82469827922E+03  0.82469827922E+03  0.00000000000E+00 0. -1.
          1   -1    0    0  501    0 -0.00000000000E+00 -0.00000000000E+00 -0.17085105643E+03  0.17085105643E+03  0.00000000000E+00 0. -1.
         25    2    1    2    0    0 -0.84473996041E+02  0.33800729291E+02 -0.57496381953E+02  0.16499017320E+03  0.12505030190E+03 0.  0.
          2    1    1    2  501    0  0.31957531150E+02 -0.32870517430E+02 -0.49751795243E+02  0.67653498381E+02  0.00000000000E+00 0. -1.
          1    1    1    2  502    0  0.52516464891E+02 -0.93021186126E+00  0.76109539999E+03  0.76290566407E+03  0.00000000000E+00 0. -1.
         22    1    3    3    0    0 -0.93239828554E+02  0.91763903405E+01  0.84324715560E+01  0.94069008419E+02  0.00000000000E+00 0.  1.
         22    1    3    3    0    0  0.87658325132E+01  0.24624338951E+02 -0.65928853509E+02  0.70921164778E+02  0.00000000000E+00 0.  1.
</event>
<event>
 7    1  0.5593520E-006  0.1486696E+03  0.7818608E-02  0.1344170E+00
          2   -1    0    0  502    0  0.00000000000E+00  0.00000000000E+00  0.23937556308E+04  0.23937556308E+04  0.00000000000E+00 0. -1.
          1   -1    0    0  501    0 -0.00000000000E+00 -0.00000000000E+00 -0.26028593777E+04  0.26028593777E+04  0.00000000000E+00 0. -1.
         25    2    1    2    0    0  0.36677261441E+02 -0.15267315977E+03 -0.21064469405E+04  0.21159862552E+04  0.12499921531E+03 0.  0.
          2    1    1    2  501    0 -0.57919619531E+02  0.12148094626E+03 -0.48228026917E+03  0.50070606214E+03  0.00000000000E+00 0. -1.
          1    1    1    2  502    0  0.21242358090E+02  0.31192213510E+02  0.23796234627E+04  0.23799226913E+04  0.00000000000E+00 0. -1.
         22    1    3    3    0    0 -0.83459596175E-01 -0.14135745496E+03 -0.11336320110E+04  0.11424112541E+04  0.00000000000E+00 0. -1.
         22    1    3    3    0    0  0.36760721037E+02 -0.11315704815E+02 -0.97281492944E+03  0.97357500108E+03  0.00000000000E+00 0. -1.
</event>
<event>
 7    1  0.5593520E-006  0.3811222E+02  0.7818608E-02  0.1559910E+00
          2   -1    0    0  502    0  0.00000000000E+00  0.00000000000E+00  0.12074758514E+04  0.12074758514E+04  0.00000000000E+00 0. -1.
          1   -1    0    0  501    0 -0.00000000000E+00 -0.00000000000E+00 -0.33337849610E+02  0.33337849610E+02  0.00000000000E+00 0. -1.
         25    2    1    2    0    0  0.27259112235E+02  0.25955934238E+02  0.46030269843E+03  0.47845606976E+03  0.12499946714E+03 0.  0.
          2    1    1    2  501    0 -0.11537511731E+00 -0.38499845643E+02 -0.84806578868E+01  0.39423000699E+02  0.00000000000E+00 0. -1.
          1    1    1    2  502    0 -0.27143737118E+02  0.12543911404E+02  0.72231596124E+03  0.72293463055E+03  0.00000000000E+00 0. -1.
         22    1    3    3    0    0 -0.46546644332E+02 -0.93917791905E+01  0.20170893295E+03  0.20722280098E+03  0.00000000000E+00 0. -1.
         22    1    3    3    0    0  0.73805756567E+02  0.35347713429E+02  0.25859376548E+03  0.27123326878E+03  0.00000000000E+00 0. -1.
</event>
<event>
 7    1  0.5593520E-006  0.9125851E+02  0.7818608E-02  0.1409004E+00
          2   -1    0    0  502    0  0.00000000000E+00  0.00000000000E+00  0.97582683225E+03  0.97582683225E+03  0.00000000000E+00 0. -1.
          1   -1    0    0  501    0 -0.00000000000E+00 -0.00000000000E+00 -0.75477634630E+02  0.75477634630E+02  0.00000000000E+00 0. -1.
         25    2    1    2    0    0  0.10451829548E+03 -0.11597415399E+02  0.19718487302E+03  0.25605731055E+03  0.12499959201E+03 0.  0.
          2    1    1    2  501    0 -0.16423978621E+02  0.32174990206E+02 -0.35745243109E+02  0.50820266365E+02  0.00000000000E+00 0. -1.
          1    1    1    2  502    0 -0.88094316864E+02 -0.20577574807E+02  0.73890956771E+03  0.74442688996E+03  0.00000000000E+00 0. -1.
         22    1    3    3    0    0  0.43817831504E+02  0.54711422403E+02  0.11252571783E+03  0.13257216628E+03  0.00000000000E+00 0. -1.
         22    1    3    3    0    0  0.60700463981E+02 -0.66308837802E+02  0.84659155189E+02  0.12348514427E+03  0.00000000000E+00 0. -1.
</event>
<event>
 7    1  0.5593520E-006  0.1715817E+03  0.7818608E-02  0.1248755E+00
          2   -1    0    0  502    0  0.00000000000E+00  0.00000000000E+00  0.95280783808E+02  0.95280783808E+02  0.00000000000E+00 0. -1.
          1   -1    0    0  501    0 -0.00000000000E+00 -0.00000000000E+00 -0.23821066391E+04  0.23821066391E+04  0.00000000000E+00 0. -1.
         25    2    1    2    0    0 -0.81977348041E+02 -0.15745879304E+03 -0.17751556992E+03  0.28044795406E+03  0.12500288107E+03 0.  0.
          2    1    1    2  501    0  0.77362244254E+02 -0.17345683133E+02 -0.19746297715E+04  0.19762207681E+04  0.00000000000E+00 0. -1.
          1    1    1    2  502    0  0.46151037874E+01  0.17480447617E+03 -0.13468051391E+03  0.22071870084E+03  0.00000000000E+00 0. -1.
         22    1    3    3    0    0 -0.53151861351E+02 -0.54138989883E+02 -0.34025637676E+01  0.75945559652E+02  0.00000000000E+00 0.  1.
         22    1    3    3    0    0 -0.28825486691E+02 -0.10331980316E+03 -0.17411300615E+03  0.20450239441E+03  0.00000000000E+00 0.  1.
</event>
<event>
 7    1  0.5593520E-006  0.6030560E+02  0.7818608E-02  0.1538382E+00
          2   -1    0    0  502    0  0.00000000000E+00  0.00000000000E+00  0.37855191359E+03  0.37855191359E+03  0.00000000000E+00 0. -1.
          1   -1    0    0  501    0 -0.00000000000E+00 -0.00000000000E+00 -0.32580951384E+02  0.32580951384E+02  0.00000000000E+00 0. -1.
         25    2    1    2    0    0 -0.16671246011E+02  0.41759109917E+02  0.22611856091E+03  0.26225275443E+03  0.12500059965E+03 0.  0.
          2    1    1    2  501    0  0.21375444925E+02 -0.62946763341E+02  0.86634710053E+02  0.10920063025E+03  0.00000000000E+00 0. -1.
          1    1    1    2  502    0 -0.47041989140E+01  0.21187653424E+02  0.33217691238E+02  0.39679480292E+02  0.00000000000E+00 0. -1.
         22    1    3    3    0    0 -0.63627512801E+02  0.54818049957E+02  0.14836484225E+03  0.17048637893E+03  0.00000000000E+00 0.  1.
         22    1    3    3    0    0  0.46956266790E+02 -0.13058940040E+02  0.77753718667E+02  0.91766375500E+02  0.00000000000E+00 0.  1.
</event>
<event>
 7    1  0.5593520E-006  0.9828550E+02  0.7818608E-02  0.1302732E+00
          2   -1    0    0  502    0  0.00000000000E+00  0.00000000000E+00  0.53708483790E+02  0.53708483790E+02  0.00000000000E+00 0. -1.
          1   -1    0    0  501    0 -0.00000000000E+00 -0.00000000000E+00 -0.11365109030E+04  0.11365109030E+04  0.00000000000E+00 0. -1.
         25    2    1    2    0    0  0.28044605822E+02 -0.19934345499E+02 -0.26763646925E+03  0.29738561602E+03  0.12500018759E+03 0.  0.
          2    1    1    2  501    0 -0.84894088889E+02  0.79725451745E+02 -0.80063429399E+03  0.80906021204E+03  0.00000000000E+00 0. -1.
          1    1    1    2  502    0  0.56849483067E+02 -0.59791106246E+02 -0.14531655922E+02  0.83773558686E+02  0.00000000000E+00 0. -1.
         22    1    3    3    0    0 -0.37434133526E+02 -0.24911219404E+02 -0.19211500834E+03  0.19730701871E+03  0.00000000000E+00 0. -1.
         22    1    3    3    0    0  0.65478739348E+02  0.49768739050E+01 -0.75521460909E+02  0.10007859730E+03  0.00000000000E+00 0. -1.
</event>
<event>
 7    1  0.5593520E-006  0.6965180E+02  0.7818608E-02  0.1497862E+00
          2   -1    0    0  502    0  0.00000000000E+00  0.00000000000E+00  0.58778132976E+03  0.58778132976E+03  0.00000000000E+00 0. -1.
          1   -1    0    0  501    0 -0.00000000000E+00 -0.00000000000E+00 -0.53864622914E+03  0.53864622914E+03  0.00000000000E+00 0. -1.
         25    2    1    2    0    0 -0.58934150464E+02  0.18992417665E+02 -0.26472825276E+03  0.29923101278E+03  0.12499682069E+03 0.  0.
          2    1    1    2  501    0  0.72759550010E+02  0.14241623428E+01 -0.25123392094E+03  0.26156158623E+03  0.00000000000E+00 0. -1.
          1    1    1    2  502    0 -0.13825399546E+02 -0.20416580008E+02  0.56509727432E+03  0.56563495989E+03  0.00000000000E+00 0. -1.
         22    1    3    3    0    0  0.28514561851E+02 -0.18629229531E+02 -0.28047943415E+02  0.44122732920E+02  0.00000000000E+00 0. -1.
         22    1    3    3    0    0 -0.87448712315E+02  0.37621647196E+02 -0.23668030934E+03  0.25510827986E+03  0.00000000000E+00 0. -1.
</event>
<event>
 7    1  0.5593520E-006  0.1769833E+03  0.7818608E-02  0.1188745E+00
          2   -1    0    0  502    0  0.00000000000E+00  0.00000000000E+00  0.11716032900E+04  0.11716032900E+04  0.00000000000E+00 0. -1.
          1   -1    0    0  501    0 -0.00000000000E+00 -0.00000000000E+00 -0.32991328423E+03  0.32991328423E+03  0.00000000000E+00 0. -1.
         25    2    1    2    0    0  0.39026191669E+02 -0.15463827970E+02  0.11330972829E+03  0.17385532159E+03  0.12499761880E+03 0.  0.
          2    1    1    2  501    0  0.61178839898E+02  0.16607300767E+03 -0.26460228987E+03  0.31833546163E+03  0.00000000000E+00 0. -1.
          1    1    1    2  502    0 -0.10020503157E+03 -0.15060917970E+03  0.99298256734E+03  0.10093257910E+04  0.00000000000E+00 0. -1.
         22    1    3    3    0    0  0.29956405696E+02 -0.57561341318E+02  0.15106566857E+02  0.66625090009E+02  0.00000000000E+00 0.  1.
         22    1    3    3    0    0  0.90697859736E+01  0.42097513348E+02  0.98203161436E+02  0.10723023158E+03  0.00000000000E+00 0.  1.
</event>
<event>
 7    1  0.5593520E-006  0.3067920E+02  0.7818608E-02  0.1591876E+00
          2   -1    0    0  502    0  0.00000000000E+00  0.00000000000E+00  0.26565499706E+03  0.26565499706E+03  0.00000000000E+00 0. -1.
          1   -1    0    0  501    0 -0.00000000000E+00 -0.00000000000E+00 -0.25902966477E+03  0.25902966477E+03  0.00000000000E+00 0. -1.
         25    2    1    2    0    0  0.19858614158E+01  0.62498952102E+01 -0.16283469578E+03  0.20538556765E+03  0.12500035366E+03 0.  0.
          2    1    1    2  501    0 -0.29520218920E+02 -0.19780327502E+02 -0.69670170591E+02  0.78208933962E+02  0.00000000000E+00 0. -1.
          1    1    1    2  502    0  0.27534357504E+02  0.13530432292E+02  0.23913019867E+03  0.24109016022E+03  0.00000000000E+00 0. -1.
         22    1    3    3    0    0  0.16714281380E+01 -0.25587753536E+02 -0.17067886150E+03  0.17259432367E+03  0.00000000000E+00 0.  1.
         22    1    3    3    0    0  0.31443327771E+00  0.31837648747E+02  0.78441657135E+01  0.32791243980E+02  0.00000000000E+00 0.  1.
</event>
<event>
 7    1  0.6598891E-006  0.9250315E+02  0.7818608E-02  0.1364003E+00
          2   -1    0    0  502    0  0.00000000000E+00  0.00000000000E+00  0.22846411680E+04  0.22846411680E+04  0.00000000000E+00 0. -1.
          1   -1    0    0  501    0 -0.00000000000E+00 -0.00000000000E+00 -0.11173071644E+04  0.11173071644E+04  0.00000000000E+00 0. -1.
         25    2    1    2    0    0 -0.56128771236E+02 -0.22015602046E+02 -0.39488035966E+02  0.14428883001E+03  0.12499934314E+03 0.  0.
          2    1    1    2  501    0  0.93189814751E+02 -0.13403186661E+02 -0.10229624355E+04  0.10272858080E+04  0.00000000000E+00 0. -1.
          1    1    1    2  502    0 -0.37061043515E+02  0.35418788707E+02  0.22297844750E+04  0.22303736944E+04  0.00000000000E+00 0. -1.
         22    1    3    3    0    0 -0.75257974597E+01 -0.31117828034E+02 -0.76233131445E+02  0.82682810662E+02  0.00000000000E+00 0.  1.
         22    1    3    3    0    0 -0.48602973776E+02  0.91022259886E+01  0.36745095479E+02  0.61606019345E+02  0.00000000000E+00 0.  1.
</event>
<event>
 7    1  0.5593520E-006  0.4260182E+02  0.7818608E-02  0.1585925E+00
          2   -1    0    0  502    0  0.00000000000E+00  0.00000000000E+00  0.81459590518E+03  0.81459590518E+03  0.00000000000E+00 0. -1.
          1   -1    0    0  501    0 -0.00000000000E+00 -0.00000000000E+00 -0.15950227579E+04  0.15950227579E+04  0.00000000000E+00 0. -1.
         25    2    1    2    0    0 -0.16967841681E+02 -0.17143187965E+02 -0.64120672328E+03  0.65372182995E+03  0.12499748971E+03 0.  0.
          2    1    1    2  501    0 -0.22694599849E+02  0.15443178816E+01 -0.94686000848E+03  0.94713320364E+03  0.00000000000E+00 0. -1.
          1    1    1    2  502    0  0.39662441530E+02  0.15598870084E+02  0.80763987909E+03  0.80876362944E+03  0.00000000000E+00 0. -1.
         22    1    3    3    0    0  0.80430835055E+00 -0.69488082159E+02 -0.42013553792E+03  0.42584399807E+03  0.00000000000E+00 0.  1.
         22    1    3    3    0    0 -0.17772150032E+02  0.52344894194E+02 -0.22107118536E+03  0.22787783188E+03  0.00000000000E+00 0.  1.
</event>
<event>
 7    1  0.5709692E-006  0.9135824E+02  0.7818608E-02  0.1325258E+00
          2   -1    0    0  502    0  0.00000000000E+00  0.00000000000E+00  0.27426377236E+04  0.27426377236E+04  0.00000000000E+00 0. -1.
          1   -1    0    0  501    0 -0.00000000000E+00 -0.00000000000E+00 -0.43338944322E+03  0.43338944322E+03  0.00000000000E+00 0. -1.
         25    2    1    2    0    0 -0.66805973205E+02 -0.14737971313E+03 -0.47595812552E+00  0.20447565788E+03  0.12500500082E+03 0.  0.
          2    1    1    2  501    0  0.39417790070E+02  0.60778262325E+02 -0.32615741110E+03  0.33410539678E+03  0.00000000000E+00 0. -1.
          1    1    1    2  502    0  0.27388183135E+02  0.86601450808E+02  0.26358816496E+04  0.26374461121E+04  0.00000000000E+00 0. -1.
         22    1    3    3    0    0  0.28816274999E+02 -0.86362185704E+02  0.17182574390E-01  0.91042875172E+02  0.00000000000E+00 0. -1.
         22    1    3    3    0    0 -0.95622248204E+02 -0.61017527429E+02 -0.49314069991E+00  0.11343278271E+03  0.00000000000E+00 0. -1.
</event>
<event>
 7    1  0.5593520E-006  0.4912816E+02  0.7818608E-02  0.1544269E+00
          2   -1    0    0  502    0  0.00000000000E+00  0.00000000000E+00  0.17198501135E+04  0.17198501135E+04  0.00000000000E+00 0. -1.
          1   -1    0    0  501    0 -0.00000000000E+00 -0.00000000000E+00 -0.64042629378E+03  0.64042629378E+03  0.00000000000E+00 0. -1.
         25    2    1    2    0    0 -0.59548290510E+02  0.31588132336E+02  0.20060438053E+03  0.24578621993E+03  0.12499975765E+03 0.  0.
          2    1    1    2  501    0  0.34164192321E+02 -0.35212836125E+02 -0.61675128258E+03  0.61869966901E+03  0.00000000000E+00 0. -1.
          1    1    1    2  502    0  0.25384098189E+02  0.36247037890E+01  0.14955707217E+04  0.14957905183E+04  0.00000000000E+00 0. -1.
         22    1    3    3    0    0 -0.43867757028E+02  0.74596308838E+02  0.84363193316E+02  0.12085585540E+03  0.00000000000E+00 0. -1.
         22    1    3    3    0    0 -0.15680533482E+02 -0.43008176502E+02  0.11624118721E+03  0.12493036453E+03  0.00000000000E+00 0. -1.
</event>
<event>
 7    1  0.5593520E-006  0.3680748E+02  0.7818608E-02  0.1630687E+00
          2   -1    0    0  502    0  0.00000000000E+00  0.00000000000E+00  0.37689689680E+03  0.37689689680E+03  0.00000000000E+00 0. -1.
          1   -1    0    0  501    0 -0.00000000000E+00 -0.00000000000E+00 -0.11906097865E+04  0.11906097865E+04  0.00000000000E+00 0. -1.
         25    2    1    2    0    0  0.40193182786E+02  0.11132156982E+02 -0.31116586294E+02  0.13540345145E+03  0.12500574331E+03 0.  0.
          2    1    1    2  501    0 -0.26300202892E+02 -0.25752778926E+02 -0.11067303530E+04  0.11073423050E+04  0.00000000000E+00 0. -1.
          1    1    1    2  502    0 -0.13892979893E+02  0.14620621944E+02  0.32413404960E+03  0.32476092681E+03  0.00000000000E+00 0. -1.
         22    1    3    3    0    0  0.83315024607E+02  0.11724576758E+02 -0.36936345697E+02  0.91886629380E+02  0.00000000000E+00 0. -1.
         22    1    3    3    0    0 -0.43121841821E+02 -0.59241977548E+00  0.58197594030E+01  0.43516822066E+02  0.00000000000E+00 0. -1.
</event>
<event>
 7    1  0.5593520E-006  0.3667109E+02  0.7818608E-02  0.1566452E+00
          2   -1    0    0  502    0  0.00000000000E+00  0.00000000000E+00  0.36752013450E+03  0.36752013450E+03  0.00000000000E+00 0. -1.
          1   -1    0    0  501    0 -0.00000000000E+00 -0.00000000000E+00 -0.15050555134E+04  0.15050555134E+04  0.00000000000E+00 0. -1.
         25    2    1    2    0    0 -0.12596848604E+02  0.83538076268E+01 -0.44411339401E+03  0.46161654895E+03  0.12499865930E+03 0.  0.
          2    1    1    2  501    0  0.36476361561E+02  0.95068808575E+01 -0.10512325081E+04  0.10519081195E+04  0.00000000000E+00 0. -1.
          1    1    1    2  502    0 -0.23879512956E+02 -0.17860688484E+02  0.35781052322E+03  0.35905097947E+03  0.00000000000E+00 0. -1.
         22    1    3    3    0    0 -0.49797476613E+02  0.47580352984E+02 -0.19804475722E+03  0.20967928970E+03  0.00000000000E+00 0. -1.
         22    1    3    3    0    0  0.37200628008E+02 -0.39226545357E+02 -0.24606863679E+03  0.25193725925E+03  0.00000000000E+00 0. -1.
</event>
<event>
 7    1  0.5593520E-006  0.1846939E+03  0.7818608E-02  0.1246269E+00
          2   -1    0    0  502    0  0.00000000000E+00  0.00000000000E+00  0.39433147729E+03  0.39433147729E+03  0.00000000000E+00 0. -1.
          1   -1    0    0  501    0 -0.00000000000E+00 -0.00000000000E+00 -0.85697595583E+03  0.85697595583E+03  0.00000000000E+00 0. -1.
         25    2    1    2    0    0  0.20274628770E+03  0.13359264068E+03 -0.15116041418E+03  0.31213295515E+03  0.12499784019E+03 0.  0.
          2    1    1    2  501    0 -0.12835756326E+03 -0.12060529261E+03 -0.60810205299E+03  0.63309510147E+03  0.00000000000E+00 0. -1.
          1    1    1    2  502    0 -0.74388724440E+02 -0.12987348069E+02  0.29661798864E+03  0.30607937650E+03  0.00000000000E+00 0. -1.
         22    1    3    3    0    0  0.16681567324E+03  0.15279833478E+03 -0.14989274214E+03  0.27137176363E+03  0.00000000000E+00 0.  1.
         22    1    3    3    0    0  0.35930614464E+02 -0.19205694102E+02 -0.12676720486E+01  0.40761191520E+02  0.00000000000E+00 0.  1.
</event>
<event>
 7    1  0.5593520E-006  0.7126537E+02  0.7818608E-02  0.1388240E+00
          2   -1    0    0  502    0  0.00000000000E+00  0.00000000000E+00  0.66187072943E+02  0.66187072943E+02  0.00000000000E+00 0. -1.
          1   -1    0    0  501    0 -0.00000000000E+00 -0.00000000000E+00 -0.18781404606E+04  0.18781404606E+04  0.00000000000E+00 0. -1.
         25    2    1    2    0    0  0.13420828608E+02 -0.11897398720E+02 -0.70674543549E+02  0.14471289894E+03  0.12500106110E+03 0.  0.
          2    1    1    2  501    0 -0.48811438983E+02  0.53401253048E+02 -0.17435238834E+04  0.17450242928E+04  0.00000000000E+00 0. -1.
          1    1    1    2  502    0  0.35390610375E+02 -0.41503854328E+02  0.22450392276E+01  0.54590341892E+02  0.00000000000E+00 0. -1.
         22    1    3    3    0    0 -0.18346312442E+02 -0.51827561910E+02  0.30381944450E+01  0.55062818483E+02  0.00000000000E+00 0.  1.
         22    1    3    3    0    0  0.31767141050E+02  0.39930163190E+02 -0.73712737994E+02  0.89650080454E+02  0.00000000000E+00 0.  1.
</event>
<event>
 7    1  0.5593520E-006  0.5878588E+02  0.7818608E-02  0.1447775E+00
          2   -1    0    0  502    0  0.00000000000E+00  0.00000000000E+00  0.59689784485E+03  0.59689784485E+03  0.00000000000E+00 0. -1.
          1   -1    0    0  501    0 -0.00000000000E+00 -0.00000000000E+00 -0.30339704794E+03  0.30339704794E+03  0.00000000000E+00 0. -1.
         25    2    1    2    0    0 -0.33240427349E+02  0.48156435859E+02  0.85186853217E+02  0.16218979957E+03  0.12499905119E+03 0.  0.
          2    1    1    2  501    0 -0.24493450887E+02 -0.33832298714E+02 -0.26136145173E+03  0.26467784574E+03  0.00000000000E+00 0. -1.
          1    1    1    2  502    0  0.57733878236E+02 -0.14324137145E+02  0.46967539543E+03  0.47342724749E+03  0.00000000000E+00 0. -1.
         22    1    3    3    0    0 -0.33214809134E+02  0.90003652835E+02  0.54923920812E+02  0.11054645244E+03  0.00000000000E+00 0.  1.
         22    1    3    3    0    0 -0.25618214847E-01 -0.41847216976E+02  0.30262932405E+02  0.51643347129E+02  0.00000000000E+00 0.  1.
</event>
<event>
 7    1  0.5593520E-006  0.3974572E+03  0.7818608E-02  0.1238910E+00
          2   -1    0    0  502    0  0.00000000000E+00  0.00000000000E+00  0.79878037880E+03  0.79878037880E+03  0.00000000000E+00 0. -1.
          1   -1    0    0  501    0 -0.00000000000E+00 -0.00000000000E+00 -0.15538859220E+04  0.15538859220E+04  0.00000000000E+00 0. -1.
         25    2    1    2    0    0 -0.37397361040E+03 -0.15171239687E+03 -0.26656483851E+03  0.49955497993E+03  0.12500180879E+03 0.  0.
          2    1    1    2  501    0 -0.59446097096E+01  0.37330829169E+02 -0.11127964249E+04  0.11134382841E+04  0.00000000000E+00 0. -1.
          1    1    1    2  502    0  0.37991822011E+03  0.11438156770E+03  0.62425572026E+03  0.73967303674E+03  0.00000000000E+00 0. -1.
         22    1    3    3    0    0 -0.25205986282E+03 -0.14393093650E+03 -0.23478094367E+03  0.37332610468E+03  0.00000000000E+00 0. -1.
         22    1    3    3    0    0 -0.12191374758E+03 -0.77814603700E+01 -0.31783894843E+02  0.12622887525E+03  0.00000000000E+00 0. -1.
</event>
<event>
 7    1  0.5593520E-006  0.9758792E+02  0.7818608E-02  0.1306938E+00
          2   -1    0    0  502    0  0.00000000000E+00  0.00000000000E+00  0.18040842738E+03  0.18040842738E+03  0.00000000000E+00 0. -1.
          1   -1    0    0  501    0 -0.00000000000E+00 -0.00000000000E+00 -0.92134670840E+03  0.92134670840E+03  0.00000000000E+00 0. -1.
         25    2    1    2    0    0 -0.99190208264E+02  0.13246410366E+03 -0.19828197608E+03  0.28692572859E+03  0.12500078207E+03 0.  0.
          2    1    1    2  501    0  0.33601184855E+02 -0.86734883936E+02 -0.66346724358E+03  0.66995579184E+03  0.00000000000E+00 0. -1.
          1    1    1    2  502    0  0.65589023408E+02 -0.45729219728E+02  0.12081093863E+03  0.14487361534E+03  0.00000000000E+00 0. -1.
         22    1    3    3    0    0 -0.79060636445E+02  0.12767561091E+03 -0.21365296727E+03  0.26114983492E+03  0.00000000000E+00 0. -1.
         22    1    3    3    0    0 -0.20129571819E+02  0.47884927492E+01  0.15370991190E+02  0.25775893672E+02  0.00000000000E+00 0. -1.
</event>
<event>
 7    1  0.5593520E-006  0.5375929E+02  0.7818608E-02  0.1426181E+00
          2   -1    0    0  502    0  0.00000000000E+00  0.00000000000E+00  0.75334921805E+03  0.75334921805E+03  0.00000000000E+00 0. -1.
          1   -1    0    0  501    0 -0.00000000000E+00 -0.00000000000E+00 -0.11736838056E+03  0.11736838056E+03  0.00000000000E+00 0. -1.
         25    2    1    2    0    0  0.34262164926E+01  0.40207187040E+01 -0.39759338897E+02  0.13127775377E+03  0.12500055387E+03 0.  0.
          2    1    1    2  501    0  0.43208799718E+02 -0.31985324099E+02 -0.72875825319E+01  0.54250992525E+02  0.00000000000E+00 0. -1.
          1    1    1    2  502    0 -0.46635016210E+02  0.27964605395E+02  0.68302775892E+03  0.68518885232E+03  0.00000000000E+00 0. -1.
         22    1    3    3    0    0 -0.34375680607E+01 -0.39980230742E+02  0.28892463416E+02  0.49447044064E+02  0.00000000000E+00 0. -1.
         22    1    3    3    0    0  0.68637845533E+01  0.44000949446E+02 -0.68651802313E+02  0.81830709708E+02  0.00000000000E+00 0. -1.
</event>
<event>
 7    1  0.5593520E-006  0.1880510E+03  0.7818608E-02  0.1233288E+00
          2   -1    0    0  502    0  0.00000000000E+00  0.00000000000E+00  0.24154809767E+04  0.24154809767E+04  0.00000000000E+00 0. -1.
          1   -1    0    0  501    0 -0.00000000000E+00 -0.00000000000E+00 -0.72654359469E+02  0.72654359469E+02  0.00000000000E+00 0. -1.
         25    2    1    2    0    0 -0.36427566805E+01 -0.11345629178E+03  0.11164753818E+04  0.11291709740E+04  0.12499684200E+03 0.  0.
          2    1    1    2  501    0  0.38150439779E+01  0.19807701513E+03  0.86831748781E+02  0.21630721458E+03  0.00000000000E+00 0. -1.
          1    1    1    2  502    0 -0.17228729742E+00 -0.84620723352E+02  0.11395194866E+04  0.11426571475E+04  0.00000000000E+00 0. -1.
         22    1    3    3    0    0 -0.51425491130E+02 -0.10840570834E+03  0.84503596142E+03  0.85351166064E+03  0.00000000000E+00 0.  1.
         22    1    3    3    0    0  0.47782734449E+02 -0.50505834372E+01  0.27143942038E+03  0.27565931336E+03  0.00000000000E+00 0.  1.
</event>
<event>
 7    1  0.5593520E-006  0.1563202E+03  0.7818608E-02  0.1329548E+00
          2   -1    0    0  502    0  0.00000000000E+00  0.00000000000E+00  0.11889673220E+04  0.11889673220E+04  0.00000000000E+00 0. -1.
          1   -1    0    0  501    0 -0.00000000000E+00 -0.00000000000E+00 -0.75729004042E+03  0.75729004042E+03  0.00000000000E+00 0. -1.
         25    2    1    2    0    0  0.14038568269E+03 -0.93768310522E+00 -0.48661150982E+02  0.19413107171E+03  0.12493977043E+03 0.  0.
          2    1    1    2  501    0 -0.15457256320E+03 -0.37276747865E+02 -0.62557292116E+03  0.64546395168E+03  0.00000000000E+00 0. -1.
          1    1    1    2  502    0  0.14186880504E+02  0.38214430971E+02  0.11059113537E+04  0.11066623390E+04  0.00000000000E+00 0. -1.
         22    1    3    3    0    0  0.62550065170E+02  0.32545462400E+02 -0.77358661001E+02  0.10467129601E+03  0.00000000000E+00 0.  1.
         22    1    3    3    0    0  0.77835617522E+02 -0.33483145505E+02  0.28697510019E+02  0.89459775706E+02  0.00000000000E+00 0.  1.
</event>
<event>
 7    1  0.5593520E-006  0.2073374E+03  0.7818608E-02  0.1268138E+00
          2   -1    0    0  502    0  0.00000000000E+00  0.00000000000E+00  0.32650005193E+03  0.32650005193E+03  0.00000000000E+00 0. -1.
          1   -1    0    0  501    0 -0.00000000000E+00 -0.00000000000E+00 -0.22202497845E+03  0.22202497845E+03  0.00000000000E+00 0. -1.
         25    2    1    2    0    0  0.11198648092E+03 -0.13792580723E+03  0.11082804622E+02  0.21751046577E+03  0.12499389567E+03 0.  0.
          2    1    1    2  501    0  0.50475173140E+02 -0.19757300164E+02 -0.40789259357E+02  0.67836993537E+02  0.00000000000E+00 0. -1.
          1    1    1    2  502    0 -0.16246165406E+03  0.15768310740E+03  0.13418152822E+03  0.26317757107E+03  0.00000000000E+00 0. -1.
         22    1    3    3    0    0  0.69276256302E+02 -0.25114551622E+01 -0.20017833775E+02  0.72154145850E+02  0.00000000000E+00 0.  1.
         22    1    3    3    0    0  0.42710224617E+02 -0.13541435207E+03  0.31100638397E+02  0.14535631992E+03  0.00000000000E+00 0.  1.
</event>
<event>
 7    1  0.5593520E-006  0.1229257E+03  0.7818608E-02  0.1352098E+00
          2   -1    0    0  502    0  0.00000000000E+00  0.00000000000E+00  0.33249948607E+03  0.33249948607E+03  0.00000000000E+00 0. -1.
          1   -1    0    0  501    0 -0.00000000000E+00 -0.00000000000E+00 -0.17507994754E+03  0.17507994754E+03  0.00000000000E+00 0. -1.
         25    2    1    2    0    0 -0.69743758068E+02 -0.90821160404E+02  0.32317083979E+02  0.17255069270E+03  0.12496668623E+03 0.  0.
          2    1    1    2  501    0  0.30826669172E+02 -0.29472069516E+02 -0.81974924253E+02  0.92405490205E+02  0.00000000000E+00 0. -1.
          1    1    1    2  502    0  0.38917088895E+02  0.12029322992E+03  0.20707737880E+03  0.24262325071E+03  0.00000000000E+00 0. -1.
         22    1    3    3    0    0 -0.23247000248E+02 -0.35322782857E+02  0.76731246132E+02  0.87611678116E+02  0.00000000000E+00 0. -1.
         22    1    3    3    0    0 -0.46496757820E+02 -0.55498377547E+02 -0.44414162153E+02  0.84939014581E+02  0.00000000000E+00 0. -1.
</event>
<event>
 7    1  0.5593520E-006  0.1572819E+03  0.7818608E-02  0.1215107E+00
          2   -1    0    0  502    0  0.00000000000E+00  0.00000000000E+00  0.55371878793E+03  0.55371878793E+03  0.00000000000E+00 0. -1.
          1   -1    0    0  501    0 -0.00000000000E+00 -0.00000000000E+00 -0.12599734524E+04  0.12599734524E+04  0.00000000000E+00 0. -1.
         25    2    1    2    0    0  0.23339440399E+03  0.10680238918E+02 -0.11530593169E+03  0.28898010584E+03  0.12500811324E+03 0.  0.
          2    1    1    2  501    0 -0.94579730967E+02 -0.77522027631E+02 -0.10414440326E+04  0.10485993817E+04  0.00000000000E+00 0. -1.
          1    1    1    2  502    0 -0.13881467302E+03  0.66841788713E+02  0.45049529984E+03  0.47611275276E+03  0.00000000000E+00 0. -1.
         22    1    3    3    0    0  0.77768496855E+02  0.41847595981E+02 -0.93769434928E+02  0.12880942248E+03  0.00000000000E+00 0. -1.
         22    1    3    3    0    0  0.15562590713E+03 -0.31167357064E+02 -0.21536496759E+02  0.16017068336E+03  0.00000000000E+00 0. -1.
</event>
<event>
 7    1  0.5593520E-006  0.6217820E+02  0.7818608E-02  0.1455799E+00
          2   -1    0    0  502    0  0.00000000000E+00  0.00000000000E+00  0.57850741985E+03  0.57850741985E+03  0.00000000000E+00 0. -1.
          1   -1    0    0  501    0 -0.00000000000E+00 -0.00000000000E+00 -0.47351996702E+03  0.47351996702E+03  0.00000000000E+00 0. -1.
         25    2    1    2    0    0  0.88602552210E+02 -0.27467708379E+02  0.22129494445E+03  0.27055818397E+03  0.12500156484E+03 0.  0.
          2    1    1    2  501    0 -0.51915051928E+02  0.33788323858E+02 -0.44569795019E+03  0.44998165101E+03  0.00000000000E+00 0. -1.
          1    1    1    2  502    0 -0.36687500282E+02 -0.63206154796E+01  0.32939045857E+03  0.33148755189E+03  0.00000000000E+00 0. -1.
         22    1    3    3    0    0  0.90059307308E+02 -0.61335236667E+01  0.23029754280E+03  0.24735653855E+03  0.00000000000E+00 0. -1.
         22    1    3    3    0    0 -0.14567550971E+01 -0.21334184712E+02 -0.90025983535E+01  0.23201645413E+02  0.00000000000E+00 0. -1.
</event>
<event>
 7    1  0.5593520E-006  0.2264337E+03  0.7818608E-02  0.1342166E+00
          2   -1    0    0  502    0  0.00000000000E+00  0.00000000000E+00  0.13687384822E+04  0.13687384822E+04  0.00000000000E+00 0. -1.
          1   -1    0    0  501    0 -0.00000000000E+00 -0.00000000000E+00 -0.93242964349E+03  0.93242964349E+03  0.00000000000E+00 0. -1.
         25    2    1    2    0    0 -0.24964422371E+03  0.11736333397E+02  0.79171863240E+03  0.83958496697E+03  0.12499817567E+03 0.  0.
          2    1    1    2  501    0  0.22601182010E+03 -0.29596069439E+01 -0.89413818639E+03  0.92226525385E+03  0.00000000000E+00 0. -1.
          1    1    1    2  502    0  0.23632403608E+02 -0.87767264536E+01  0.53872839264E+03  0.53931790483E+03  0.00000000000E+00 0. -1.
         22    1    3    3    0    0 -0.10902588354E+03  0.23808341532E+02  0.17992261524E+03  0.21172063642E+03  0.00000000000E+00 0.  1.
         22    1    3    3    0    0 -0.14061834016E+03 -0.12072008134E+02  0.61179601716E+03  0.62786433055E+03  0.00000000000E+00 0.  1.
</event>
<event>
 7    1  0.5593520E-006  0.9756434E+02  0.7818608E-02  0.1302738E+00
          2   -1    0    0  502    0  0.00000000000E+00  0.00000000000E+00  0.79801907245E+02  0.79801907245E+02  0.00000000000E+00 0. -1.
          1   -1    0    0  501    0 -0.00000000000E+00 -0.00000000000E+00 -0.88674589814E+03  0.88674589814E+03  0.00000000000E+00 0. -1.
         25    2    1    2    0    0  0.46303028170E+02  0.60202727712E+01 -0.59588917339E+02  0.14613953349E+03  0.12500284028E+03 0.  0.
          2    1    1    2  501    0  0.87181925899E+02 -0.43796263199E+02 -0.63342341092E+03  0.64089314115E+03  0.00000000000E+00 0. -1.
          1    1    1    2  502    0 -0.13348495407E+03  0.37775990428E+02 -0.11393166265E+03  0.17951513075E+03  0.00000000000E+00 0. -1.
         22    1    3    3    0    0  0.75835914931E+02  0.13570422316E+02  0.23819677956E+01  0.77077338601E+02  0.00000000000E+00 0.  1.
         22    1    3    3    0    0 -0.29532886761E+02 -0.75501495444E+01 -0.61970885134E+02  0.69062194889E+02  0.00000000000E+00 0.  1.
</event>
<event>
 7    1  0.5593520E-006  0.5292157E+02  0.7818608E-02  0.1510775E+00
          2   -1    0    0  502    0  0.00000000000E+00  0.00000000000E+00  0.12774209378E+04  0.12774209378E+04  0.00000000000E+00 0. -1.
          1   -1    0    0  501    0 -0.00000000000E+00 -0.00000000000E+00 -0.16010140447E+04  0.16010140447E+04  0.00000000000E+00 0. -1.
         25    2    1    2    0    0 -0.17977331004E+01 -0.27059870947E+02  0.19468408394E+03  0.23294325772E+03  0.12500080126E+03 0.  0.
          2    1    1    2  501    0 -0.16771905269E+02  0.50254445185E+02 -0.15812332211E+04  0.15821205092E+04  0.00000000000E+00 0. -1.
          1    1    1    2  502    0  0.18569638370E+02 -0.23194574238E+02  0.10629560303E+04  0.10633712155E+04  0.00000000000E+00 0. -1.
         22    1    3    3    0    0  0.52939795204E+02 -0.98250631502E+01  0.37512339166E+02  0.65622628505E+02  0.00000000000E+00 0.  1.
         22    1    3    3    0    0 -0.54737528305E+02 -0.17234807797E+02  0.15717174478E+03  0.16732062922E+03  0.00000000000E+00 0.  1.
</event>
<event>
 7    1  0.5593520E-006  0.1995638E+03  0.7818608E-02  0.1234726E+00
          2   -1    0    0  502    0  0.00000000000E+00  0.00000000000E+00  0.15433070775E+04  0.15433070775E+04  0.00000000000E+00 0. -1.
          1   -1    0    0  501    0 -0.00000000000E+00 -0.00000000000E+00 -0.46494487811E+03  0.46494487811E+03  0.00000000000E+00 0. -1.
         25    2    1    2    0    0  0.35938149204E+02 -0.13907547124E+03 -0.45687400297E+02  0.19582041103E+03  0.12499903024E+03 0.  0.
          2    1    1    2  501    0  0.70967844931E+02 -0.33720038837E+02 -0.33256109883E+03  0.34171678403E+03  0.00000000000E+00 0. -1.
          1    1    1    2  502    0 -0.10690599414E+03  0.17279551007E+03  0.14566106985E+04  0.14707147606E+04  0.00000000000E+00 0. -1.
         22    1    3    3    0    0 -0.38678302206E+02 -0.84237303129E+01 -0.45852823481E+01  0.39849656312E+02  0.00000000000E+00 0. -1.
         22    1    3    3    0    0  0.74616451411E+02 -0.13065174092E+03 -0.41102117949E+02  0.15597075472E+03  0.00000000000E+00 0. -1.
</event>
<event>
 7    1  0.5593520E-006  0.2613760E+03  0.7818608E-02  0.1264340E+00
          2   -1    0    0  502    0  0.00000000000E+00  0.00000000000E+00  0.23784556607E+04  0.23784556607E+04  0.00000000000E+00 0. -1.
          1   -1    0    0  501    0 -0.00000000000E+00 -0.00000000000E+00 -0.56010827112E+03  0.56010827112E+03  0.00000000000E+00 0. -1.
         25    2    1    2    0    0 -0.28522044354E+03  0.21454638391E+02 -0.23660637771E+03  0.39168671257E+03  0.12499959963E+03 0.  0.
          2    1    1    2  501    0  0.24225932335E+03 -0.94143205122E+01 -0.18594243534E+03  0.30553690193E+03  0.00000000000E+00 0. -1.
          1    1    1    2  502    0  0.42961120192E+02 -0.12040317879E+02  0.22408962026E+04  0.22413403173E+04  0.00000000000E+00 0. -1.
         22    1    3    3    0    0 -0.44524852168E+02  0.57935174415E+00  0.10866799491E+02  0.45835416876E+02  0.00000000000E+00 0. -1.
         22    1    3    3    0    0 -0.24069559137E+03  0.20875286647E+02 -0.24747317720E+03  0.34585129569E+03  0.00000000000E+00 0. -1.
</event>
<event>
 7    1  0.5593520E-006  0.2464897E+03  0.7818608E-02  0.1204729E+00
          2   -1    0    0  502    0  0.00000000000E+00  0.00000000000E+00  0.17628126627E+04  0.17628126627E+04  0.00000000000E+00 0. -1.
          1   -1    0    0  501    0 -0.00000000000E+00 -0.00000000000E+00 -0.21557848436E+04  0.21557848436E+04  0.00000000000E+00 0. -1.
         25    2    1    2    0    0 -0.13814500597E+03 -0.11834049279E+03  0.46717320914E+03  0.51668599087E+03  0.12500036368E+03 0.  0.
          2    1    1    2  501    0  0.13796380631E+03  0.20551699261E+03 -0.21223318990E+04  0.21367180290E+04  0.00000000000E+00 0. -1.
          1    1    1    2  502    0  0.18119965789E+00 -0.87176499818E+02  0.12621865089E+04  0.12651934865E+04  0.00000000000E+00 0. -1.
         22    1    3    3    0    0 -0.94425465471E+02 -0.55873330056E+02  0.12590162732E+03  0.16700065061E+03  0.00000000000E+00 0.  1.
         22    1    3    3    0    0 -0.43719540495E+02 -0.62467162738E+02  0.34127158182E+03  0.34968534027E+03  0.00000000000E+00 0.  1.
</event>
<event>
 7    1  0.5593520E-006  0.8881919E+02  0.7818608E-02  0.1381808E+00
          2   -1    0    0  502    0  0.00000000000E+00  0.00000000000E+00  0.48882079877E+03  0.48882079877E+03  0.00000000000E+00 0. -1.
          1   -1    0    0  501    0 -0.00000000000E+00 -0.00000000000E+00 -0.80887744890E+02  0.80887744890E+02  0.00000000000E+00 0. -1.
         25    2    1    2    0    0 -0.52331238960E+02 -0.48967387693E+01  0.17399637249E+03  0.22059397495E+03  0.12499771007E+03 0.  0.
          2    1    1    2  501    0  0.96340312117E+02 -0.88397686134E+01 -0.13265315996E+02  0.97650221998E+02  0.00000000000E+00 0. -1.
          1    1    1    2  502    0 -0.44009073156E+02  0.13736507383E+02  0.24720199739E+03  0.25146434672E+03  0.00000000000E+00 0. -1.
         22    1    3    3    0    0 -0.35603429482E+02  0.46974241028E+01 -0.86446177658E+01  0.36937777416E+02  0.00000000000E+00 0. -1.
         22    1    3    3    0    0 -0.16727809478E+02 -0.95941628721E+01  0.18264099025E+03  0.18365619753E+03  0.00000000000E+00 0. -1.
</event>
<event>
 7    1  0.5593520E-006  0.6616427E+02  0.7818608E-02  0.1405013E+00
          2   -1    0    0  502    0  0.00000000000E+00  0.00000000000E+00  0.77619507097E+03  0.77619507097E+03  0.00000000000E+00 0. -1.
          1   -1    0    0  501    0 -0.00000000000E+00 -0.00000000000E+00 -0.10070652456E+03  0.10070652456E+03  0.00000000000E+00 0. -1.
         25    2    1    2    0    0 -0.10430022511E+02  0.51914166928E+02  0.38838357490E+03  0.41142417653E+03  0.12499674270E+03 0.  0.
          2    1    1    2  501    0 -0.40961877757E+02 -0.53228542515E+02 -0.74459509130E+02  0.10027647614E+03  0.00000000000E+00 0. -1.
          1    1    1    2  502    0  0.51391900268E+02  0.13143755870E+01  0.36156448065E+03  0.36520094285E+03  0.00000000000E+00 0. -1.
         22    1    3    3    0    0  0.50737675888E+02 -0.58762723279E+01  0.16456126127E+03  0.17230569068E+03  0.00000000000E+00 0.  1.
         22    1    3    3    0    0 -0.61167698399E+02  0.57790439256E+02  0.22382231362E+03  0.23911848585E+03  0.00000000000E+00 0.  1.
</event>
<event>
 7    1  0.5593520E-006  0.6528828E+02  0.7818608E-02  0.1454496E+00
          2   -1    0    0  502    0  0.00000000000E+00  0.00000000000E+00  0.21180476049E+04  0.21180476049E+04  0.00000000000E+00 0. -1.
          1   -1    0    0  501    0 -0.00000000000E+00 -0.00000000000E+00 -0.16976526966E+04  0.16976526966E+04  0.00000000000E+00 0. -1.
         25    2    1    2    0    0  0.36087448110E+02  0.31939383746E+02  0.12844391709E+04  0.12914065522E+04  0.12499788431E+03 0.  0.
          2    1    1    2  501    0 -0.64503005455E+02 -0.10173289696E+02 -0.16931534853E+04  0.16944122457E+04  0.00000000000E+00 0. -1.
          1    1    1    2  502    0  0.28415557345E+02 -0.21766094049E+02  0.82910922271E+03  0.82988150355E+03  0.00000000000E+00 0. -1.
         22    1    3    3    0    0  0.72853868107E+02  0.50588592581E+02  0.10101657979E+04  0.10140521836E+04  0.00000000000E+00 0.  1.
         22    1    3    3    0    0 -0.36766419997E+02 -0.18649208836E+02  0.27427337307E+03  0.27735436864E+03  0.00000000000E+00 0.  1.
</event>
<event>
 7    1  0.5593520E-006  0.5067808E+02  0.7818608E-02  0.1472202E+00
          2   -1    0    0  502    0  0.00000000000E+00  0.00000000000E+00  0.72360348514E+03  0.72360348514E+03  0.00000000000E+00 0. -1.
          1   -1    0    0  501    0 -0.00000000000E+00 -0.00000000000E+00 -0.17132328259E+03  0.17132328259E+03  0.00000000000E+00 0. -1.
         25    2    1    2    0    0  0.31463180780E+02  0.22851909188E+02 -0.29109733294E+02  0.13409575952E+03  0.12498861809E+03 0.  0.
          2    1    1    2  501    0 -0.56074650140E+01 -0.54118581032E+02 -0.80793592745E+02  0.97405693393E+02  0.00000000000E+00 0. -1.
          1    1    1    2  502    0 -0.25855715766E+02  0.31266671844E+02  0.66218352859E+03  0.66342531482E+03  0.00000000000E+00 0. -1.
         22    1    3    3    0    0 -0.17826808188E+02 -0.42904907767E+02 -0.22579842324E+02  0.51657288741E+02  0.00000000000E+00 0. -1.
         22    1    3    3    0    0  0.49289988968E+02  0.65756816955E+02 -0.65298909703E+01  0.82438470781E+02  0.00000000000E+00 0. -1.
</event>
<event>
 7    1  0.5593520E-006  0.3156683E+02  0.7818608E-02  0.1647320E+00
          2   -1    0    0  502    0  0.00000000000E+00  0.00000000000E+00  0.31589405332E+03  0.31589405332E+03  0.00000000000E+00 0. -1.
          1   -1    0    0  501    0 -0.00000000000E+00 -0.00000000000E+00 -0.16242116975E+04  0.16242116975E+04  0.00000000000E+00 0. -1.
         25    2    1    2    0    0  0.48045219771E+02  0.75454791800E+01  0.24484715026E+03  0.27917674835E+03  0.12499700967E+03 0.  0.
          2    1    1    2  501    0 -0.31080912540E+02  0.54682280660E+01 -0.16047645982E+04  0.16050748706E+04  0.00000000000E+00 0. -1.
          1    1    1    2  502    0 -0.16964307231E+02 -0.13013707246E+02  0.51599803760E+02  0.55854131846E+02  0.00000000000E+00 0. -1.
         22    1    3    3    0    0  0.80536630861E+02  0.28316402482E+02  0.21191865771E+03  0.22846768928E+03  0.00000000000E+00 0.  1.
         22    1    3    3    0    0 -0.32491411090E+02 -0.20770923302E+02  0.32928492556E+02  0.50709059067E+02  0.00000000000E+00 0.  1.
</event>
<event>
 7    1  0.5593520E-006  0.6381083E+02  0.7818608E-02  0.1461712E+00
          2   -1    0    0  502    0  0.00000000000E+00  0.00000000000E+00  0.61712642394E+03  0.61712642394E+03  0.00000000000E+00 0. -1.
          1   -1    0    0  501    0 -0.00000000000E+00 -0.00000000000E+00 -0.45210569248E+03  0.45210569248E+03  0.00000000000E+00 0. -1.
         25    2    1    2    0    0 -0.89172396141E+02 -0.37625798905E+02 -0.53773140180E+02  0.16698433698E+03  0.12499920486E+03 0.  0.
          2    1    1    2  501    0  0.34166808912E+02  0.63268197776E+01 -0.33904977063E+03  0.34082568337E+03  0.00000000000E+00 0. -1.
          1    1    1    2  502    0  0.55005587229E+02  0.31298979127E+02  0.55784364228E+03  0.56142209607E+03  0.00000000000E+00 0. -1.
         22    1    3    3    0    0 -0.81812654914E+02 -0.49467834511E+01 -0.87192091675E+02  0.11966721364E+03  0.00000000000E+00 0.  1.
         22    1    3    3    0    0 -0.73597412262E+01 -0.32679015454E+02  0.33418951495E+02  0.47317123338E+02  0.00000000000E+00 0.  1.
</event>
<event>
 7    1  0.5593520E-006  0.2549932E+03  0.7818608E-02  0.1233970E+00
          2   -1    0    0  502    0  0.00000000000E+00  0.00000000000E+00  0.87327939703E+03  0.87327939703E+03  0.00000000000E+00 0. -1.
          1   -1    0    0  501    0 -0.00000000000E+00 -0.00000000000E+00 -0.11810076739E+04  0.11810076739E+04  0.00000000000E+00 0. -1.
         25    2    1    2    0    0 -0.28907072352E+03 -0.79158019550E+02 -0.17430208571E+03  0.36855569087E+03  0.12499681969E+03 0.  0.
          2    1    1    2  501    0  0.58169332944E+02 -0.21368915725E+02 -0.88804248083E+03  0.89020208358E+03  0.00000000000E+00 0. -1.
          1    1    1    2  502    0  0.23090139057E+03  0.10052693527E+03  0.75461628969E+03  0.79552929647E+03  0.00000000000E+00 0. -1.
         22    1    3    3    0    0 -0.70774171161E+02  0.34275542515E+02 -0.45909570025E+02  0.91057590228E+02  0.00000000000E+00 0.  1.
         22    1    3    3    0    0 -0.21829655236E+03 -0.11343356206E+03 -0.12839251568E+03  0.27749810064E+03  0.00000000000E+00 0.  1.
</event>
<event>
 7    1  0.5593520E-006  0.1375441E+03  0.7818608E-02  0.1295383E+00
          2   -1    0    0  502    0  0.00000000000E+00  0.00000000000E+00  0.25665877184E+03  0.25665877184E+03  0.00000000000E+00 0. -1.
          1   -1    0    0  501    0 -0.00000000000E+00 -0.00000000000E+00 -0.11741333181E+04  0.11741333181E+04  0.00000000000E+00 0. -1.
         25    2    1    2    0    0 -0.22529914252E+02 -0.92985903215E+02 -0.48637603578E+02  0.16476099960E+03  0.12500638093E+03 0.  0.
          2    1    1    2  501    0 -0.51015530320E+02 -0.37124327028E+02 -0.10382208309E+04  0.10401361900E+04  0.00000000000E+00 0. -1.
          1    1    1    2  502    0  0.73545444572E+02  0.13011023024E+03  0.16938388821E+03  0.22589490038E+03  0.00000000000E+00 0. -1.
         22    1    3    3    0    0 -0.52193270570E+02  0.11493292845E+00  0.64493643909E+01  0.52590350858E+02  0.00000000000E+00 0.  1.
         22    1    3    3    0    0  0.29663356318E+02 -0.93100836143E+02 -0.55086967969E+02  0.11217064874E+03  0.00000000000E+00 0.  1.
</event>
<event>
 7    1  0.5593520E-006  0.1135301E+03  0.7818608E-02  0.1352747E+00
          2   -1    0    0  502    0  0.00000000000E+00  0.00000000000E+00  0.22353583982E+03  0.22353583982E+03  0.00000000000E+00 0. -1.
          1   -1    0    0  501    0 -0.00000000000E+00 -0.00000000000E+00 -0.25963928269E+04  0.25963928269E+04  0.00000000000E+00 0. -1.
         25    2    1    2    0    0  0.71861783843E+02 -0.11110541327E+02 -0.14903600183E+03  0.20766413743E+03  0.12500041611E+03 0.  0.
          2    1    1    2  501    0  0.41950185479E+02 -0.18686372770E+02 -0.23999869157E+04  0.24004262525E+04  0.00000000000E+00 0. -1.
          1    1    1    2  502    0 -0.11381196932E+03  0.29796914096E+02  0.17616593042E+03  0.21183827674E+03  0.00000000000E+00 0. -1.
         22    1    3    3    0    0  0.66743796009E+02  0.40220468139E+02 -0.13209650075E+03  0.15336852961E+03  0.00000000000E+00 0.  1.
         22    1    3    3    0    0  0.51179878332E+01 -0.51331009465E+02 -0.16939501081E+02  0.54295607825E+02  0.00000000000E+00 0.  1.
</event>
<event>
 7    1  0.5593520E-006  0.4686979E+02  0.7818608E-02  0.1488678E+00
          2   -1    0    0  502    0  0.00000000000E+00  0.00000000000E+00  0.77451316893E+03  0.77451316893E+03  0.00000000000E+00 0. -1.
          1   -1    0    0  501    0 -0.00000000000E+00 -0.00000000000E+00 -0.95145875559E+03  0.95145875559E+03  0.00000000000E+00 0. -1.
         25    2    1    2    0    0  0.34513465348E+02 -0.39844460358E+02  0.20341899231E+03  0.24450626564E+03  0.12500106878E+03 0.  0.
          2    1    1    2  501    0 -0.46813742439E+02  0.27800913695E+01 -0.92963080013E+03  0.93081291350E+03  0.00000000000E+00 0. -1.
          1    1    1    2  502    0  0.12300277091E+02  0.37064368989E+02  0.54926622117E+03  0.55065274537E+03  0.00000000000E+00 0. -1.
         22    1    3    3    0    0  0.42937511318E+02  0.36808356838E+02  0.10715405789E+03  0.12116301884E+03  0.00000000000E+00 0.  1.
         22    1    3    3    0    0 -0.84240459697E+01 -0.76652817196E+02  0.96264934417E+02  0.12334324681E+03  0.00000000000E+00 0.  1.
</event>
<event>
 7    1  0.5593520E-006  0.1299405E+03  0.7818608E-02  0.1264620E+00
          2   -1    0    0  502    0  0.00000000000E+00  0.00000000000E+00  0.11824625929E+03  0.11824625929E+03  0.00000000000E+00 0. -1.
          1   -1    0    0  501    0 -0.00000000000E+00 -0.00000000000E+00 -0.74141675329E+03  0.74141675329E+03  0.00000000000E+00 0. -1.
         25    2    1    2    0    0  0.14654890144E+03 -0.66028945438E+01 -0.10563873311E+02  0.19301625351E+03  0.12499399974E+03 0.  0.
          2    1    1    2  501    0 -0.54384147563E+02 -0.71082869472E+02 -0.47652292886E+03  0.48485514494E+03  0.00000000000E+00 0. -1.
          1    1    1    2  502    0 -0.92164753876E+02  0.77685764016E+02 -0.13608369183E+03  0.18179161413E+03  0.00000000000E+00 0. -1.
         22    1    3    3    0    0  0.13347753348E+03 -0.18698698519E+02  0.39032720271E+02  0.14031908823E+03  0.00000000000E+00 0. -1.
         22    1    3    3    0    0  0.13071367962E+02  0.12095803975E+02 -0.49596593582E+02  0.52697165286E+02  0.00000000000E+00 0. -1.
</event>
<event>
 7    1  0.5593520E-006  0.1888082E+03  0.7818608E-02  0.1222988E+00
          2   -1    0    0  502    0  0.00000000000E+00  0.00000000000E+00  0.11750610642E+04  0.11750610642E+04  0.00000000000E+00 0. -1.
          1   -1    0    0  501    0 -0.00000000000E+00 -0.00000000000E+00 -0.48087445419E+03  0.48087445419E+03  0.00000000000E+00 0. -1.
         25    2    1    2    0    0 -0.12259438616E+03 -0.57838668705E+02  0.27214755166E+03  0.32873173666E+03  0.12500227878E+03 0.  0.
          2    1    1    2  501    0  0.12015504347E+03  0.15157576919E+03 -0.42922359869E+03  0.47079225350E+03  0.00000000000E+00 0. -1.
          1    1    1    2  502    0  0.24393426837E+01 -0.93737100487E+02  0.85126265701E+03  0.85641152820E+03  0.00000000000E+00 0. -1.
         22    1    3    3    0    0 -0.14104506928E+03 -0.31691423329E+02  0.25314320210E+03  0.29151250171E+03  0.00000000000E+00 0. -1.
         22    1    3    3    0    0  0.18450683123E+02 -0.26147245376E+02  0.19004349555E+02  0.37219234953E+02  0.00000000000E+00 0. -1.
</event>
<event>
 7    1  0.5593520E-006  0.1467131E+03  0.7818608E-02  0.1338117E+00
          2   -1    0    0  502    0  0.00000000000E+00  0.00000000000E+00  0.13797937695E+04  0.13797937695E+04  0.00000000000E+00 0. -1.
          1   -1    0    0  501    0 -0.00000000000E+00 -0.00000000000E+00 -0.13037925730E+04  0.13037925730E+04  0.00000000000E+00 0. -1.
         25    2    1    2    0    0 -0.60519388623E+02 -0.11884020024E+03  0.23987786999E+03  0.30158054001E+03  0.12499535996E+03 0.  0.
          2    1    1    2  501    0  0.99409589304E+02  0.10828740963E+03 -0.12683287755E+04  0.12768188252E+04  0.00000000000E+00 0. -1.
          1    1    1    2  502    0 -0.38890200681E+02  0.10552790602E+02  0.11044521021E+04  0.11051869773E+04  0.00000000000E+00 0. -1.
         22    1    3    3    0    0 -0.30439075622E+01 -0.25122016101E+02  0.16875462759E+03  0.17064145276E+03  0.00000000000E+00 0.  1.
         22    1    3    3    0    0 -0.57475481061E+02 -0.93718184136E+02  0.71123242399E+02  0.13093908725E+03  0.00000000000E+00 0.  1.
</event>
<event>
 7    1  0.5593520E-006  0.1042911E+03  0.7818608E-02  0.1360141E+00
          2   -1    0    0  502    0  0.00000000000E+00  0.00000000000E+00  0.16995538552E+03  0.16995538552E+03  0.00000000000E+00 0. -1.
          1   -1    0    0  501    0 -0.00000000000E+00 -0.00000000000E+00 -0.67735726163E+03  0.67735726163E+03  0.00000000000E+00 0. -1.
         25    2    1    2    0    0 -0.28876364765E+01 -0.91206460359E+02  0.42491795539E+02  0.16048932180E+03  0.12499725144E+03 0.  0.
          2    1    1    2  501    0 -0.43095481066E+02 -0.18667661856E+02 -0.56483273011E+03  0.56678189376E+03  0.00000000000E+00 0. -1.
          1    1    1    2  502    0  0.45983117543E+02  0.10987412222E+03  0.14939058466E+02  0.12004143160E+03  0.00000000000E+00 0. -1.
         22    1    3    3    0    0 -0.53320232843E+01 -0.16938241772E+02  0.76668548148E+02  0.78698162506E+02  0.00000000000E+00 0.  1.
         22    1    3    3    0    0  0.24443868078E+01 -0.74268218587E+02 -0.34176752610E+02  0.81791159289E+02  0.00000000000E+00 0.  1.
</event>
<event>
 7    1  0.5593520E-006  0.1379972E+03  0.7818608E-02  0.1420092E+00
          2   -1    0    0  502    0  0.00000000000E+00  0.00000000000E+00  0.28436489078E+03  0.28436489078E+03  0.00000000000E+00 0. -1.
          1   -1    0    0  501    0 -0.00000000000E+00 -0.00000000000E+00 -0.14403692297E+04  0.14403692297E+04  0.00000000000E+00 0. -1.
         25    2    1    2    0    0 -0.10069090056E+03 -0.72310226636E+02 -0.15151377951E+03  0.23226695896E+03  0.12499635401E+03 0.  0.
          2    1    1    2  501    0  0.12205538507E+03  0.67398104000E+02 -0.12440841602E+04  0.12518727648E+04  0.00000000000E+00 0. -1.
          1    1    1    2  502    0 -0.21364484514E+02  0.49121226356E+01  0.23959360087E+03  0.24059439670E+03  0.00000000000E+00 0. -1.
         22    1    3    3    0    0  0.18275785074E+02 -0.15769488127E+02  0.79710096122E+01  0.25420819619E+02  0.00000000000E+00 0.  1.
         22    1    3    3    0    0 -0.11896668563E+03 -0.56540738509E+02 -0.15948478912E+03  0.20684613934E+03  0.00000000000E+00 0.  1.
</event>
<event>
 7    1  0.5593520E-006  0.4960301E+02  0.7818608E-02  0.1528969E+00
          2   -1    0    0  502    0  0.00000000000E+00  0.00000000000E+00  0.38334163859E+04  0.38334163859E+04  0.00000000000E+00 0. -1.
          1   -1    0    0  501    0 -0.00000000000E+00 -0.00000000000E+00 -0.82109135910E+01  0.82109135910E+01  0.00000000000E+00 0. -1.
         25    2    1    2    0    0  0.36307254823E+02  0.46094575015E+01  0.73944356310E+03  0.75082740038E+03  0.12500215319E+03 0.  0.
          2    1    1    2  501    0  0.89251095158E+01 -0.26611453364E+02  0.83014701577E+02  0.87631431050E+02  0.00000000000E+00 0. -1.
          1    1    1    2  502    0 -0.45232364339E+02  0.22001995863E+02  0.30027472077E+04  0.30031684681E+04  0.00000000000E+00 0. -1.
         22    1    3    3    0    0  0.34644521147E+02  0.19403671083E+02  0.73385059753E+03  0.73492410818E+03  0.00000000000E+00 0. -1.
         22    1    3    3    0    0  0.16627336759E+01 -0.14794213582E+02  0.55929655692E+01  0.15903292195E+02  0.00000000000E+00 0. -1.
</event>
<event>
 7    1  0.5593520E-006  0.1066594E+03  0.7818608E-02  0.1463429E+00
          2   -1    0    0  502    0  0.00000000000E+00  0.00000000000E+00  0.10958638317E+04  0.10958638317E+04  0.00000000000E+00 0. -1.
          1   -1    0    0  501    0 -0.00000000000E+00 -0.00000000000E+00 -0.15458360300E+03  0.15458360300E+03  0.00000000000E+00 0. -1.
         25    2    1    2    0    0 -0.49217596125E+02  0.11630834969E+03  0.68017520159E+03  0.70300194993E+03  0.12499373090E+03 0.  0.
          2    1    1    2  501    0  0.44469900965E+02 -0.96333123010E+02 -0.12320070524E+03  0.16259168629E+03  0.00000000000E+00 0. -1.
          1    1    1    2  502    0  0.47476951600E+01 -0.19975226683E+02  0.38430573236E+03  0.38485379849E+03  0.00000000000E+00 0. -1.
         22    1    3    3    0    0  0.33067881546E+02  0.19554874316E+02  0.71005447679E+02  0.80731973217E+02  0.00000000000E+00 0. -1.
         22    1    3    3    0    0 -0.82285477671E+02  0.96753475376E+02  0.60916975392E+03  0.62226997671E+03  0.00000000000E+00 0. -1.
</event>
<event>
 7    1  0.5593520E-006  0.5697900E+02  0.7818608E-02  0.1440228E+00
          2   -1    0    0  502    0  0.00000000000E+00  0.00000000000E+00  0.12121720184E+03  0.12121720184E+03  0.00000000000E+00 0. -1.
          1   -1    0    0  501    0 -0.00000000000E+00 -0.00000000000E+00 -0.13386716291E+03  0.13386716291E+03  0.00000000000E+00 0. -1.
         25    2    1    2    0    0 -0.28498653867E+00  0.71709078277E+02 -0.38578928772E+02  0.14918319278E+03  0.12500007255E+03 0.  0.
          2    1    1    2  501    0 -0.32234395663E+02 -0.39774221848E+02  0.31302765269E+02  0.60007567030E+02  0.00000000000E+00 0. -1.
          1    1    1    2  502    0  0.32519382202E+02 -0.31934856429E+02 -0.53737975715E+01  0.45893604939E+02  0.00000000000E+00 0. -1.
         22    1    3    3    0    0  0.23818364044E+02  0.31595616234E+02 -0.78346078291E+02  0.87770754893E+02  0.00000000000E+00 0. -1.
         22    1    3    3    0    0 -0.24103350583E+02  0.40113462043E+02  0.39767149519E+02  0.61412437887E+02  0.00000000000E+00 0. -1.
</event>
<event>
 7    1  0.5593520E-006  0.8743454E+02  0.7818608E-02  0.1402794E+00
          2   -1    0    0  502    0  0.00000000000E+00  0.00000000000E+00  0.80112907316E+03  0.80112907316E+03  0.00000000000E+00 0. -1.
          1   -1    0    0  501    0 -0.00000000000E+00 -0.00000000000E+00 -0.40774065052E+03  0.40774065052E+03  0.00000000000E+00 0. -1.
         25    2    1    2    0    0 -0.38686965451E+02 -0.70391190180E+02 -0.33777838082E+02  0.15237352095E+03  0.12500058636E+03 0.  0.
          2    1    1    2  501    0  0.73087089469E+02  0.50799264092E+02 -0.30782738931E+03  0.32043718493E+03  0.00000000000E+00 0. -1.
          1    1    1    2  502    0 -0.34400124017E+02  0.19591926088E+02  0.73499365003E+03  0.73605901780E+03  0.00000000000E+00 0. -1.
         22    1    3    3    0    0 -0.48562664421E+02 -0.78210384626E+01 -0.65192057427E+02  0.81667039679E+02  0.00000000000E+00 0. -1.
         22    1    3    3    0    0  0.98756989697E+01 -0.62570151718E+02  0.31414219345E+02  0.70706481267E+02  0.00000000000E+00 0. -1.
</event>
<event>
 7    1  0.5593520E-006  0.1049202E+03  0.7818608E-02  0.1302045E+00
          2   -1    0    0  502    0  0.00000000000E+00  0.00000000000E+00  0.86892561125E+03  0.86892561125E+03  0.00000000000E+00 0. -1.
          1   -1    0    0  501    0 -0.00000000000E+00 -0.00000000000E+00 -0.27431712632E+03  0.27431712632E+03  0.00000000000E+00 0. -1.
         25    2    1    2    0    0 -0.34215027815E+02  0.79869150390E+01  0.90126128023E+02  0.15805876551E+03  0.12500158184E+03 0.  0.
          2    1    1    2  501    0  0.10482983110E+03 -0.40583508383E+02 -0.22502606102E+03  0.25154133414E+03  0.00000000000E+00 0. -1.
          1    1    1    2  502    0 -0.70614803288E+02  0.32596593344E+02  0.72950841794E+03  0.73364263792E+03  0.00000000000E+00 0. -1.
         22    1    3    3    0    0 -0.35887973855E+02 -0.50092642263E+02  0.76765830659E+02  0.98438875619E+02  0.00000000000E+00 0. -1.
         22    1    3    3    0    0  0.16729460407E+01  0.58079557301E+02  0.13360297364E+02  0.59619889890E+02  0.00000000000E+00 0. -1.
</event>
<event>
 7    1  0.5593520E-006  0.6683985E+02  0.7818608E-02  0.1495274E+00
          2   -1    0    0  502    0  0.00000000000E+00  0.00000000000E+00  0.31564291617E+03  0.31564291617E+03  0.00000000000E+00 0. -1.
          1   -1    0    0  501    0 -0.00000000000E+00 -0.00000000000E+00 -0.31690212600E+03  0.31690212600E+03  0.00000000000E+00 0. -1.
         25    2    1    2    0    0 -0.85463720973E+02 -0.25702033196E+02  0.47529215371E+02  0.16077080366E+03  0.12499433141E+03 0.  0.
          2    1    1    2  501    0  0.26148824482E+02 -0.68240550783E+00 -0.25461371138E+03  0.25595384100E+03  0.00000000000E+00 0. -1.
          1    1    1    2  502    0  0.59314896491E+02  0.26384438704E+02  0.20582528618E+03  0.21582039751E+03  0.00000000000E+00 0. -1.
         22    1    3    3    0    0 -0.11067311129E+03 -0.21044502411E+01  0.12190324376E+02  0.11136233781E+03  0.00000000000E+00 0.  1.
         22    1    3    3    0    0  0.25209390317E+02 -0.23597582955E+02  0.35338890995E+02  0.49408465856E+02  0.00000000000E+00 0.  1.
</event>
<event>
 7    1  0.5593520E-006  0.2643391E+03  0.7818608E-02  0.1155147E+00
          2   -1    0    0  502    0  0.00000000000E+00  0.00000000000E+00  0.14012066522E+04  0.14012066522E+04  0.00000000000E+00 0. -1.
          1   -1    0    0  501    0 -0.00000000000E+00 -0.00000000000E+00 -0.12120114199E+03  0.12120114199E+03  0.00000000000E+00 0. -1.
         25    2    1    2    0    0  0.22994104587E+03  0.97624400907E+02  0.43985383819E+03  0.52105524903E+03  0.12499506125E+03 0.  0.
          2    1    1    2  501    0 -0.17283588271E+03 -0.22760280620E+03  0.20803209135E+03  0.35348639405E+03  0.00000000000E+00 0. -1.
          1    1    1    2  502    0 -0.57105163159E+02  0.12997840530E+03  0.63211958062E+03  0.64786615107E+03  0.00000000000E+00 0. -1.
         22    1    3    3    0    0  0.14598501544E+03  0.84753255865E+01  0.16695607567E+03  0.22194095404E+03  0.00000000000E+00 0. -1.
         22    1    3    3    0    0  0.83956030431E+02  0.89149075320E+02  0.27289776252E+03  0.29911429499E+03  0.00000000000E+00 0. -1.
</event>
<event>
 7    1  0.5593520E-006  0.4039573E+02  0.7818608E-02  0.1558764E+00
          2   -1    0    0  502    0  0.00000000000E+00  0.00000000000E+00  0.10201570631E+03  0.10201570631E+03  0.00000000000E+00 0. -1.
          1   -1    0    0  501    0 -0.00000000000E+00 -0.00000000000E+00 -0.60432945265E+03  0.60432945265E+03  0.00000000000E+00 0. -1.
         25    2    1    2    0    0  0.27853480520E+02 -0.37896305392E+02  0.25466342901E+02  0.13596131662E+03  0.12499999462E+03 0.  0.
          2    1    1    2  501    0 -0.28301399427E+02 -0.25679466536E+01 -0.52913198310E+03  0.52989453583E+03  0.00000000000E+00 0. -1.
          1    1    1    2  502    0  0.44791890676E+00  0.40464252046E+02  0.13518938521E+01  0.40489306514E+02  0.00000000000E+00 0. -1.
         22    1    3    3    0    0 -0.49241731623E+02 -0.25182264770E+02  0.78255603012E+01  0.55858159531E+02  0.00000000000E+00 0. -1.
         22    1    3    3    0    0  0.77095212143E+02 -0.12714040622E+02  0.17640782600E+02  0.80103157085E+02  0.00000000000E+00 0. -1.
</event>
<event>
 7    1  0.5593520E-006  0.3616640E+03  0.7818608E-02  0.1266451E+00
          2   -1    0    0  502    0  0.00000000000E+00  0.00000000000E+00  0.14566565826E+04  0.14566565826E+04  0.00000000000E+00 0. -1.
          1   -1    0    0  501    0 -0.00000000000E+00 -0.00000000000E+00 -0.19584593801E+04  0.19584593801E+04  0.00000000000E+00 0. -1.
         25    2    1    2    0    0  0.19145975947E+03 -0.34223670784E+03 -0.61408218985E+03  0.73926047432E+03  0.12500523712E+03 0.  0.
          2    1    1    2  501    0 -0.13917287275E+02  0.28356753375E+02 -0.12582659148E+04  0.12586623490E+04  0.00000000000E+00 0. -1.
          1    1    1    2  502    0 -0.17754247220E+03  0.31387995446E+03  0.13705453071E+04  0.14171931393E+04  0.00000000000E+00 0. -1.
         22    1    3    3    0    0  0.12556905696E+02 -0.10260539070E+03 -0.23260224403E+03  0.25453751395E+03  0.00000000000E+00 0. -1.
         22    1    3    3    0    0  0.17890285378E+03 -0.23963131714E+03 -0.38147994582E+03  0.48472296037E+03  0.00000000000E+00 0. -1.
</event>
<event>
 7    1  0.5593520E-006  0.1056083E+03  0.7818608E-02  0.1276496E+00
          2   -1    0    0  502    0  0.00000000000E+00  0.00000000000E+00  0.67535340590E+03  0.67535340590E+03  0.00000000000E+00 0. -1.
          1   -1    0    0  501    0 -0.00000000000E+00 -0.00000000000E+00 -0.97889416326E+03  0.97889416326E+03  0.00000000000E+00 0. -1.
         25    2    1    2    0    0  0.13966037749E+03 -0.71538912930E+02 -0.59016196921E+02  0.20911800957E+03  0.12499837328E+03 0.  0.
          2    1    1    2  501    0 -0.95315792216E+02 -0.23561390879E+02 -0.83735127529E+03  0.84308801297E+03  0.00000000000E+00 0. -1.
          1    1    1    2  502    0 -0.44344585274E+02  0.95100303809E+02  0.59282671485E+03  0.60204154663E+03  0.00000000000E+00 0. -1.
         22    1    3    3    0    0  0.11003205719E+03 -0.56008408489E+02 -0.98084404956E+02  0.15768495783E+03  0.00000000000E+00 0.  1.
         22    1    3    3    0    0  0.29628320300E+02 -0.15530504441E+02  0.39068208035E+02  0.51433051738E+02  0.00000000000E+00 0.  1.
</event>
<event>
 7    1  0.5593520E-006  0.1053216E+03  0.7818608E-02  0.1272594E+00
          2   -1    0    0  502    0  0.00000000000E+00  0.00000000000E+00  0.92522725235E+03  0.92522725235E+03  0.00000000000E+00 0. -1.
          1   -1    0    0  501    0 -0.00000000000E+00 -0.00000000000E+00 -0.49595226027E+03  0.49595226027E+03  0.00000000000E+00 0. -1.
         25    2    1    2    0    0  0.13441906631E+03 -0.12933771129E+03 -0.31158810232E+03  0.38406562015E+03  0.12499010411E+03 0.  0.
          2    1    1    2  501    0 -0.35124793810E+02  0.95985088409E+02 -0.12696127870E+03  0.16299096486E+03  0.00000000000E+00 0. -1.
          1    1    1    2  502    0 -0.99294272504E+02  0.33352622880E+02  0.86782437310E+03  0.87412292760E+03  0.00000000000E+00 0. -1.
         22    1    3    3    0    0  0.13321972368E+02 -0.35447606303E+02 -0.17417738214E+03  0.17824636936E+03  0.00000000000E+00 0. -1.
         22    1    3    3    0    0  0.12109709395E+03 -0.93890104985E+02 -0.13741072018E+03  0.20581925079E+03  0.00000000000E+00 0. -1.
</event>
<event>
 7    1  0.5593520E-006  0.6481024E+02  0.7818608E-02  0.1438711E+00
          2   -1    0    0  502    0  0.00000000000E+00  0.00000000000E+00  0.20012700309E+03  0.20012700309E+03  0.00000000000E+00 0. -1.
          1   -1    0    0  501    0 -0.00000000000E+00 -0.00000000000E+00 -0.30129148887E+03  0.30129148887E+03  0.00000000000E+00 0. -1.
         25    2    1    2    0    0 -0.11427822948E+02  0.23029411573E+02  0.81791807916E+02  0.15158456384E+03  0.12500812460E+03 0.  0.
          2    1    1    2  501    0  0.31247358613E+02 -0.58380446335E+02 -0.25701674182E+03  0.26540964472E+03  0.00000000000E+00 0. -1.
          1    1    1    2  502    0 -0.19819535665E+02  0.35351034762E+02  0.74060448124E+02  0.84424283408E+02  0.00000000000E+00 0. -1.
         22    1    3    3    0    0 -0.64885626738E+02  0.29632090868E+02  0.31809395323E+02  0.78102772020E+02  0.00000000000E+00 0.  1.
         22    1    3    3    0    0  0.53457803789E+02 -0.66026792942E+01  0.49982412593E+02  0.73481791816E+02  0.00000000000E+00 0.  1.
</event>
<event>
 7    1  0.5593520E-006  0.4824172E+02  0.7818608E-02  0.1482519E+00
          2   -1    0    0  502    0  0.00000000000E+00  0.00000000000E+00  0.11592940625E+04  0.11592940625E+04  0.00000000000E+00 0. -1.
          1   -1    0    0  501    0 -0.00000000000E+00 -0.00000000000E+00 -0.65372120693E+02  0.65372120693E+02  0.00000000000E+00 0. -1.
         25    2    1    2    0    0  0.74542096406E+02 -0.39142923983E+02  0.51017783710E+03  0.53197189009E+03  0.12499589494E+03 0.  0.
          2    1    1    2  501    0 -0.46147929368E+02  0.11518165634E+02 -0.43347298357E+02  0.64352838317E+02  0.00000000000E+00 0. -1.
          1    1    1    2  502    0 -0.28394167038E+02  0.27624758349E+02  0.62709140303E+03  0.62834145475E+03  0.00000000000E+00 0. -1.
         22    1    3    3    0    0  0.10800329306E+03 -0.37769264025E+02  0.34646315779E+03  0.36486702828E+03  0.00000000000E+00 0.  1.
         22    1    3    3    0    0 -0.33461196654E+02 -0.13736599574E+01  0.16371467930E+03  0.16710486182E+03  0.00000000000E+00 0.  1.
</event>
<event>
 7    1  0.5593520E-006  0.2011832E+03  0.7818608E-02  0.1187985E+00
          2   -1    0    0  502    0  0.00000000000E+00  0.00000000000E+00  0.31822185035E+04  0.31822185035E+04  0.00000000000E+00 0. -1.
          1   -1    0    0  501    0 -0.00000000000E+00 -0.00000000000E+00 -0.49826012667E+03  0.49826012667E+03  0.00000000000E+00 0. -1.
         25    2    1    2    0    0 -0.11999615140E+02  0.81533238280E+02  0.11335920995E+04  0.11434366963E+04  0.12499908330E+03 0.  0.
          2    1    1    2  501    0 -0.20118149164E+03 -0.82576104337E+00 -0.46613532258E+03  0.50769756097E+03  0.00000000000E+00 0. -1.
          1    1    1    2  502    0  0.21318110678E+03 -0.80707477237E+02  0.20165015999E+04  0.20293443728E+04  0.00000000000E+00 0. -1.
         22    1    3    3    0    0  0.21211194109E+02  0.52372326097E+01  0.77534485520E+03  0.77565262060E+03  0.00000000000E+00 0. -1.
         22    1    3    3    0    0 -0.33210809249E+02  0.76296005670E+02  0.35824724426E+03  0.36778407572E+03  0.00000000000E+00 0. -1.
</event>
<event>
 7    1  0.5593520E-006  0.3228409E+02  0.7818608E-02  0.1650147E+00
          2   -1    0    0  502    0  0.00000000000E+00  0.00000000000E+00  0.11019725342E+04  0.11019725342E+04  0.00000000000E+00 0. -1.
          1   -1    0    0  501    0 -0.00000000000E+00 -0.00000000000E+00 -0.15632091775E+03  0.15632091775E+03  0.00000000000E+00 0. -1.
         25    2    1    2    0    0 -0.77519089113E+01 -0.15197005572E+02  0.31470881332E+03  0.33905410763E+03  0.12500003858E+03 0.  0.
          2    1    1    2  501    0  0.10908538704E+02 -0.17444450109E+02 -0.14306514788E+03  0.14453699040E+03  0.00000000000E+00 0. -1.
          1    1    1    2  502    0 -0.31566297922E+01  0.32641455680E+02  0.77400795105E+03  0.77470235396E+03  0.00000000000E+00 0. -1.
         22    1    3    3    0    0 -0.43726764689E+01 -0.11344656901E+01  0.32256406667E+03  0.32259569808E+03  0.00000000000E+00 0.  1.
         22    1    3    3    0    0 -0.33792324424E+01 -0.14062539882E+02 -0.78552533451E+01  0.16458409551E+02  0.00000000000E+00 0.  1.
</event>
<event>
 7    1  0.5593520E-006  0.1371189E+03  0.7818608E-02  0.1305309E+00
          2   -1    0    0  502    0  0.00000000000E+00  0.00000000000E+00  0.56234407571E+03  0.56234407571E+03  0.00000000000E+00 0. -1.
          1   -1    0    0  501    0 -0.00000000000E+00 -0.00000000000E+00 -0.75341682249E+03  0.75341682249E+03  0.00000000000E+00 0. -1.
         25    2    1    2    0    0  0.78613870413E+02 -0.50203489617E+02 -0.24730973803E+03  0.29238210303E+03  0.12499862662E+03 0.  0.
          2    1    1    2  501    0  0.55668399489E+02  0.15396015184E+02 -0.47287253306E+03  0.47638686013E+03  0.00000000000E+00 0. -1.
          1    1    1    2  502    0 -0.13428226990E+03  0.34807474432E+02  0.52910952431E+03  0.54699193504E+03  0.00000000000E+00 0. -1.
         22    1    3    3    0    0  0.30894577015E+02  0.41335333564E+02 -0.66445384525E+02  0.84131289152E+02  0.00000000000E+00 0.  1.
         22    1    3    3    0    0  0.47719293398E+02 -0.91538823181E+02 -0.18086435350E+03  0.20825081387E+03  0.00000000000E+00 0.  1.
</event>
<event>
 7    1  0.5593520E-006  0.1460027E+03  0.7818608E-02  0.1350938E+00
          2   -1    0    0  502    0  0.00000000000E+00  0.00000000000E+00  0.22394409239E+03  0.22394409239E+03  0.00000000000E+00 0. -1.
          1   -1    0    0  501    0 -0.00000000000E+00 -0.00000000000E+00 -0.21058013470E+04  0.21058013470E+04  0.00000000000E+00 0. -1.
         25    2    1    2    0    0 -0.70539062636E+02 -0.11026635497E+03 -0.85198967857E+03  0.87100262799E+03  0.12499894871E+03 0.  0.
          2    1    1    2  501    0  0.22725476076E+02 -0.28259906093E+02 -0.12189668272E+04  0.12195061276E+04  0.00000000000E+00 0. -1.
          1    1    1    2  502    0  0.47813586560E+02  0.13852626106E+03  0.18909925116E+03  0.23923668375E+03  0.00000000000E+00 0. -1.
         22    1    3    3    0    0 -0.10094437888E+03 -0.98883073248E+02 -0.76925369327E+03  0.78212459009E+03  0.00000000000E+00 0.  1.
         22    1    3    3    0    0  0.30405316244E+02 -0.11383281721E+02 -0.82735985298E+02  0.88878037905E+02  0.00000000000E+00 0.  1.
</event>
<event>
 7    1  0.5593520E-006  0.8210472E+02  0.7818608E-02  0.1352079E+00
          2   -1    0    0  502    0  0.00000000000E+00  0.00000000000E+00  0.17484749090E+04  0.17484749090E+04  0.00000000000E+00 0. -1.
          1   -1    0    0  501    0 -0.00000000000E+00 -0.00000000000E+00 -0.10633673087E+04  0.10633673087E+04  0.00000000000E+00 0. -1.
         25    2    1    2    0    0 -0.39698122230E+02 -0.13928210217E+03  0.29221322350E+03  0.34926997789E+03  0.12500201828E+03 0.  0.
          2    1    1    2  501    0  0.14931578353E+02  0.80417165126E+02 -0.10325066916E+04  0.10357412518E+04  0.00000000000E+00 0. -1.
          1    1    1    2  502    0  0.24766543878E+02  0.58864937042E+02  0.14254010684E+04  0.14268309880E+04  0.00000000000E+00 0. -1.
         22    1    3    3    0    0  0.46836775480E-01 -0.13511227879E+03  0.27368785303E+03  0.30522183895E+03  0.00000000000E+00 0. -1.
         22    1    3    3    0    0 -0.39744959006E+02 -0.41698233755E+01  0.18525370468E+02  0.44048138943E+02  0.00000000000E+00 0. -1.
</event>
<event>
 7    1  0.5593520E-006  0.8774877E+02  0.7818608E-02  0.1376766E+00
          2   -1    0    0  502    0  0.00000000000E+00  0.00000000000E+00  0.16741513584E+04  0.16741513584E+04  0.00000000000E+00 0. -1.
          1   -1    0    0  501    0 -0.00000000000E+00 -0.00000000000E+00 -0.43385811805E+03  0.43385811805E+03  0.00000000000E+00 0. -1.
         25    2    1    2    0    0  0.53580079337E+02  0.40581756410E+02 -0.87164856086E+02  0.16653011824E+03  0.12496745292E+03 0.  0.
          2    1    1    2  501    0 -0.92183270330E+02 -0.11012864081E+02 -0.29962057204E+03  0.31367423499E+03  0.00000000000E+00 0. -1.
          1    1    1    2  502    0  0.38603190993E+02 -0.29568892329E+02  0.16270786684E+04  0.16278051232E+04  0.00000000000E+00 0. -1.
         22    1    3    3    0    0  0.91488394909E+01  0.74292109718E+02 -0.16751323296E+02  0.76704795564E+02  0.00000000000E+00 0. -1.
         22    1    3    3    0    0  0.44431239847E+02 -0.33710353308E+02 -0.70413532790E+02  0.89825322679E+02  0.00000000000E+00 0. -1.
</event>
<event>
 7    1  0.5593520E-006  0.7249436E+02  0.7818608E-02  0.1354390E+00
          2   -1    0    0  502    0  0.00000000000E+00  0.00000000000E+00  0.12446615733E+04  0.12446615733E+04  0.00000000000E+00 0. -1.
          1   -1    0    0  501    0 -0.00000000000E+00 -0.00000000000E+00 -0.12748558295E+04  0.12748558295E+04  0.00000000000E+00 0. -1.
         25    2    1    2    0    0 -0.18450974308E+02 -0.24731078062E+02 -0.13645080962E+02  0.12947694676E+03  0.12500410727E+03 0.  0.
          2    1    1    2  501    0 -0.50730279322E+02  0.49564711542E+02 -0.12011095826E+04  0.12032017501E+04  0.00000000000E+00 0. -1.
          1    1    1    2  502    0  0.69181253630E+02 -0.24833633480E+02  0.11845604074E+04  0.11868387060E+04  0.00000000000E+00 0. -1.
         22    1    3    3    0    0 -0.10727359708E+01  0.49908110200E+02  0.62277682710E+01  0.50306613123E+02  0.00000000000E+00 0.  1.
         22    1    3    3    0    0 -0.17378238337E+02 -0.74639188262E+02 -0.19872849232E+02  0.79170333641E+02  0.00000000000E+00 0.  1.
</event>
<event>
 7    1  0.5593520E-006  0.1061843E+03  0.7818608E-02  0.1279302E+00
          2   -1    0    0  502    0  0.00000000000E+00  0.00000000000E+00  0.10919405708E+04  0.10919405708E+04  0.00000000000E+00 0. -1.
          1   -1    0    0  501    0 -0.00000000000E+00 -0.00000000000E+00 -0.10611564269E+04  0.10611564269E+04  0.00000000000E+00 0. -1.
         25    2    1    2    0    0 -0.64964764950E+01  0.11570980712E+02  0.28004671061E+03  0.30696414999E+03  0.12499894981E+03 0.  0.
          2    1    1    2  501    0  0.85617424657E+02 -0.64281776078E+02 -0.10421152734E+04  0.10476004645E+04  0.00000000000E+00 0. -1.
          1    1    1    2  502    0 -0.79120948162E+02  0.52710795365E+02  0.79285270678E+03  0.79853238321E+03  0.00000000000E+00 0. -1.
         22    1    3    3    0    0  0.34532669974E+01 -0.14741365773E+02  0.27837220975E+03  0.27878364385E+03  0.00000000000E+00 0.  1.
         22    1    3    3    0    0 -0.99497434923E+01  0.26312346486E+02  0.16745008621E+01  0.28180506140E+02  0.00000000000E+00 0.  1.
</event>
<event>
 7    1  0.5593520E-006  0.1249014E+03  0.7818608E-02  0.1371967E+00
          2   -1    0    0  502    0  0.00000000000E+00  0.00000000000E+00  0.86633443914E+03  0.86633443914E+03  0.00000000000E+00 0. -1.
          1   -1    0    0  501    0 -0.00000000000E+00 -0.00000000000E+00 -0.17217454568E+04  0.17217454568E+04  0.00000000000E+00 0. -1.
         25    2    1    2    0    0 -0.19896709843E+02 -0.88430175383E+02 -0.22014643219E+03  0.26889893723E+03  0.12500564731E+03 0.  0.
          2    1    1    2  501    0 -0.42686633056E-01 -0.35537279339E+02 -0.14723259682E+04  0.14727547849E+04  0.00000000000E+00 0. -1.
          1    1    1    2  502    0  0.19939396476E+02  0.12396745472E+03  0.83706138266E+03  0.84642617380E+03  0.00000000000E+00 0. -1.
         22    1    3    3    0    0  0.32953507807E+02 -0.38091114571E+02 -0.17718829424E+03  0.18420792139E+03  0.00000000000E+00 0.  1.
         22    1    3    3    0    0 -0.52850217650E+02 -0.50339060812E+02 -0.42958137951E+02  0.84691015848E+02  0.00000000000E+00 0.  1.
</event>
<event>
 7    1  0.5705046E-006  0.1508672E+03  0.7818608E-02  0.1202704E+00
          2   -1    0    0  502    0  0.00000000000E+00  0.00000000000E+00  0.28619622350E+04  0.28619622350E+04  0.00000000000E+00 0. -1.
          1   -1    0    0  501    0 -0.00000000000E+00 -0.00000000000E+00 -0.12617401425E+04  0.12617401425E+04  0.00000000000E+00 0. -1.
         25    2    1    2    0    0  0.54627769510E+02  0.13472080042E+03 -0.95754068039E+02  0.21430505835E+03  0.12499571682E+03 0.  0.
          2    1    1    2  501    0 -0.15462023772E+03 -0.28917945206E+02 -0.10992173557E+04  0.11104154450E+04  0.00000000000E+00 0. -1.
          1    1    1    2  502    0  0.99992468213E+02 -0.10580285522E+03  0.27951935163E+04  0.27989818741E+04  0.00000000000E+00 0. -1.
         22    1    3    3    0    0 -0.21740958510E+02  0.17699524256E+01  0.13846456471E+02  0.25836531604E+02  0.00000000000E+00 0. -1.
         22    1    3    3    0    0  0.76368728020E+02  0.13295084800E+03 -0.10960052451E+03  0.18846852675E+03  0.00000000000E+00 0. -1.
</event>
<event>
 7    1  0.1697355E-005  0.7552755E+02  0.7818608E-02  0.1374083E+00
          2   -1    0    0  502    0  0.00000000000E+00  0.00000000000E+00  0.21151306557E+04  0.21151306557E+04  0.00000000000E+00 0. -1.
          1   -1    0    0  501    0 -0.00000000000E+00 -0.00000000000E+00 -0.14749052925E+04  0.14749052925E+04  0.00000000000E+00 0. -1.
         25    2    1    2    0    0  0.75092256465E+02 -0.81430742802E+02 -0.21464862994E+03  0.27197229286E+03  0.12500032359E+03 0.  0.
          2    1    1    2  501    0 -0.34700189341E+01  0.57648876936E+02 -0.12302347665E+04  0.12315896292E+04  0.00000000000E+00 0. -1.
          1    1    1    2  502    0 -0.71622237531E+02  0.23781865866E+02  0.20851087597E+04  0.20864740261E+04  0.00000000000E+00 0. -1.
         22    1    3    3    0    0  0.89414914023E+02 -0.36283798345E+02 -0.20054449056E+03  0.22255254113E+03  0.00000000000E+00 0. -1.
         22    1    3    3    0    0 -0.14322657559E+02 -0.45146944457E+02 -0.14104139380E+02  0.49419751730E+02  0.00000000000E+00 0. -1.
</event>
<event>
 7    1  0.5593520E-006  0.4511442E+02  0.7818608E-02  0.1498269E+00
          2   -1    0    0  502    0  0.00000000000E+00  0.00000000000E+00  0.10362171846E+04  0.10362171846E+04  0.00000000000E+00 0. -1.
          1   -1    0    0  501    0 -0.00000000000E+00 -0.00000000000E+00 -0.50497682467E+03  0.50497682467E+03  0.00000000000E+00 0. -1.
         25    2    1    2    0    0 -0.38612197340E+01  0.23894335129E+02  0.14776911921E+03  0.19505403178E+03  0.12499805779E+03 0.  0.
          2    1    1    2  501    0 -0.33523444331E+02 -0.30486607963E+02 -0.47984990168E+03  0.48198462914E+03  0.00000000000E+00 0. -1.
          1    1    1    2  502    0  0.37384664065E+02  0.65922728332E+01  0.86332114239E+03  0.86415534834E+03  0.00000000000E+00 0. -1.
         22    1    3    3    0    0 -0.40925213934E+02  0.31397507997E+02  0.10458579581E+02  0.52631345516E+02  0.00000000000E+00 0. -1.
         22    1    3    3    0    0  0.37063994200E+02 -0.75031728675E+01  0.13731053963E+03  0.14242268627E+03  0.00000000000E+00 0. -1.
</event>
<event>
 7    1  0.5593520E-006  0.1072727E+03  0.7818608E-02  0.1318760E+00
          2   -1    0    0  502    0  0.00000000000E+00  0.00000000000E+00  0.15096256337E+03  0.15096256337E+03  0.00000000000E+00 0. -1.
          1   -1    0    0  501    0 -0.00000000000E+00 -0.00000000000E+00 -0.44389080855E+03  0.44389080855E+03  0.00000000000E+00 0. -1.
         25    2    1    2    0    0  0.35064830055E+02 -0.41401188129E+02 -0.10236007527E+03  0.17042944197E+03  0.12500003598E+03 0.  0.
          2    1    1    2  501    0  0.39059782919E+02 -0.52417875071E+02 -0.27200980778E+03  0.27975459924E+03  0.00000000000E+00 0. -1.
          1    1    1    2  502    0 -0.74124612974E+02  0.93819063201E+02  0.81441637876E+02  0.14466933071E+03  0.00000000000E+00 0. -1.
         22    1    3    3    0    0  0.12757143526E+02 -0.13277466556E+02  0.28945409298E+02  0.34305576055E+02  0.00000000000E+00 0. -1.
         22    1    3    3    0    0  0.22307686530E+02 -0.28123721574E+02 -0.13130548457E+03  0.13612386592E+03  0.00000000000E+00 0. -1.
</event>
<event>
 7    1  0.5593520E-006  0.4043151E+02  0.7818608E-02  0.1541644E+00
          2   -1    0    0  502    0  0.00000000000E+00  0.00000000000E+00  0.18425300029E+04  0.18425300029E+04  0.00000000000E+00 0. -1.
          1   -1    0    0  501    0 -0.00000000000E+00 -0.00000000000E+00 -0.69384025589E+03  0.69384025589E+03  0.00000000000E+00 0. -1.
         25    2    1    2    0    0 -0.67408379943E+01 -0.87643126434E+01  0.19054203914E+03  0.22815331255E+03  0.12500165309E+03 0.  0.
          2    1    1    2  501    0  0.97549402686E+00 -0.31676741388E+02 -0.67440701159E+03  0.67515123107E+03  0.00000000000E+00 0. -1.
          1    1    1    2  502    0  0.57653439674E+01  0.40441054032E+02  0.16325547194E+04  0.16330657152E+04  0.00000000000E+00 0. -1.
         22    1    3    3    0    0  0.31978895409E+02 -0.40517439808E+02  0.29383536991E+02  0.59394485655E+02  0.00000000000E+00 0.  1.
         22    1    3    3    0    0 -0.38719733403E+02  0.31753127164E+02  0.16115850215E+03  0.16875882689E+03  0.00000000000E+00 0.  1.
</event>
<event>
 7    1  0.5593520E-006  0.5374239E+02  0.7818608E-02  0.1474957E+00
          2   -1    0    0  502    0  0.00000000000E+00  0.00000000000E+00  0.30049003025E+03  0.30049003025E+03  0.00000000000E+00 0. -1.
          1   -1    0    0  501    0 -0.00000000000E+00 -0.00000000000E+00 -0.21592791631E+03  0.21592791631E+03  0.00000000000E+00 0. -1.
         25    2    1    2    0    0 -0.67512285293E+02 -0.52983658536E+02  0.40937457355E+02  0.15705735355E+03  0.12500384055E+03 0.  0.
          2    1    1    2  501    0  0.35559053899E+02  0.11955932657E+02 -0.15219658235E+03  0.15675200260E+03  0.00000000000E+00 0. -1.
          1    1    1    2  502    0  0.31953231394E+02  0.41027725879E+02  0.19582123893E+03  0.20260859040E+03  0.00000000000E+00 0. -1.
         22    1    3    3    0    0 -0.86636407585E+02 -0.10635658176E+02  0.60954403189E+02  0.10646325006E+03  0.00000000000E+00 0. -1.
         22    1    3    3    0    0  0.19124122293E+02 -0.42348000359E+02 -0.20016945834E+02  0.50594103495E+02  0.00000000000E+00 0. -1.
</event>
<event>
 7    1  0.5593520E-006  0.1244683E+03  0.7818608E-02  0.1249543E+00
          2   -1    0    0  502    0  0.00000000000E+00  0.00000000000E+00  0.29557236548E+03  0.29557236548E+03  0.00000000000E+00 0. -1.
          1   -1    0    0  501    0 -0.00000000000E+00 -0.00000000000E+00 -0.14331784321E+04  0.14331784321E+04  0.00000000000E+00 0. -1.
         25    2    1    2    0    0  0.48322989954E+02 -0.14255262463E+03  0.19422167284E+03  0.27568649462E+03  0.12499849185E+03 0.  0.
          2    1    1    2  501    0 -0.11200656820E+03  0.54788437861E+02 -0.13386220086E+04  0.13444166491E+04  0.00000000000E+00 0. -1.
          1    1    1    2  502    0  0.63683578243E+02  0.87764186769E+02  0.67942691224E+01  0.10864765396E+03  0.00000000000E+00 0. -1.
         22    1    3    3    0    0  0.76576768021E+02 -0.34543395750E+02  0.84304566854E+02  0.11901473683E+03  0.00000000000E+00 0.  1.
         22    1    3    3    0    0 -0.28253778067E+02 -0.10800922888E+03  0.10991710599E+03  0.15667175778E+03  0.00000000000E+00 0.  1.
</event>
<event>
 7    1  0.5593520E-006  0.1288344E+03  0.7818608E-02  0.1423258E+00
          2   -1    0    0  502    0  0.00000000000E+00  0.00000000000E+00  0.20243640511E+04  0.20243640511E+04  0.00000000000E+00 0. -1.
          1   -1    0    0  501    0 -0.00000000000E+00 -0.00000000000E+00 -0.13125880677E+03  0.13125880677E+03  0.00000000000E+00 0. -1.
         25    2    1    2    0    0 -0.10686912993E+03  0.10554226465E+03  0.17877295634E+03  0.26484923648E+03  0.12500067034E+03 0.  0.
          2    1    1    2  501    0  0.18912214825E+02 -0.12943689064E+02 -0.84429003851E+02  0.87484099398E+02  0.00000000000E+00 0. -1.
          1    1    1    2  502    0  0.87956915108E+02 -0.92598575587E+02  0.17987612918E+04  0.18032895220E+04  0.00000000000E+00 0. -1.
         22    1    3    3    0    0 -0.10461440678E+03  0.24778757229E+02  0.66105429661E+02  0.12620653211E+03  0.00000000000E+00 0.  1.
         22    1    3    3    0    0 -0.22547231496E+01  0.80763507421E+02  0.11266752668E+03  0.13864270437E+03  0.00000000000E+00 0.  1.
</event>
<event>
 7    1  0.5593520E-006  0.8914480E+02  0.7818608E-02  0.1408735E+00
          2   -1    0    0  502    0  0.00000000000E+00  0.00000000000E+00  0.13041148730E+04  0.13041148730E+04  0.00000000000E+00 0. -1.
          1   -1    0    0  501    0 -0.00000000000E+00 -0.00000000000E+00 -0.29116426129E+04  0.29116426129E+04  0.00000000000E+00 0. -1.
         25    2    1    2    0    0  0.55582179589E+02  0.27225134007E+02 -0.10323168348E+03  0.17352853191E+03  0.12499913721E+03 0.  0.
          2    1    1    2  501    0 -0.63543149590E+02 -0.63419038689E+02 -0.27722651549E+04  0.27737184059E+04  0.00000000000E+00 0. -1.
          1    1    1    2  502    0  0.79609700009E+01  0.36193904682E+02  0.12679690985E+04  0.12685105481E+04  0.00000000000E+00 0. -1.
         22    1    3    3    0    0 -0.12345340247E+02 -0.41197433559E+02 -0.34219621386E+02  0.54960153252E+02  0.00000000000E+00 0.  1.
         22    1    3    3    0    0  0.67927519836E+02  0.68422567566E+02 -0.69012062089E+02  0.11856837866E+03  0.00000000000E+00 0.  1.
</event>
<event>
 7    1  0.5593520E-006  0.5913348E+02  0.7818608E-02  0.1428459E+00
          2   -1    0    0  502    0  0.00000000000E+00  0.00000000000E+00  0.24283980049E+03  0.24283980049E+03  0.00000000000E+00 0. -1.
          1   -1    0    0  501    0 -0.00000000000E+00 -0.00000000000E+00 -0.63244259525E+03  0.63244259525E+03  0.00000000000E+00 0. -1.
         25    2    1    2    0    0  0.13187242634E+02  0.16503845031E+02 -0.81288256683E+02  0.15059506574E+03  0.12499925152E+03 0.  0.
          2    1    1    2  501    0  0.40115608232E+01 -0.61304910093E+02 -0.51187402204E+03  0.51554766905E+03  0.00000000000E+00 0. -1.
          1    1    1    2  502    0 -0.17198803457E+02  0.44801065061E+02  0.20355948396E+03  0.20913966095E+03  0.00000000000E+00 0. -1.
         22    1    3    3    0    0  0.35329553794E+01  0.67096226050E+02 -0.19107576691E+02  0.69853309234E+02  0.00000000000E+00 0.  1.
         22    1    3    3    0    0  0.96542872545E+01 -0.50592381019E+02 -0.62180679992E+02  0.80741756507E+02  0.00000000000E+00 0.  1.
</event>
<event>
 7    1  0.5593520E-006  0.1093201E+03  0.7818608E-02  0.1348358E+00
          2   -1    0    0  502    0  0.00000000000E+00  0.00000000000E+00  0.15362844229E+04  0.15362844229E+04  0.00000000000E+00 0. -1.
          1   -1    0    0  501    0 -0.00000000000E+00 -0.00000000000E+00 -0.36057468627E+02  0.36057468627E+02  0.00000000000E+00 0. -1.
         25    2    1    2    0    0 -0.53950243570E+02  0.11445429384E+03  0.57574733206E+03  0.60259478982E+03  0.12500030474E+03 0.  0.
          2    1    1    2  501    0  0.48941870861E+02 -0.74843366995E+01  0.11919725862E+02  0.50925454184E+02  0.00000000000E+00 0. -1.
          1    1    1    2  502    0  0.50083727084E+01 -0.10696995714E+03  0.91255989633E+03  0.91882164750E+03  0.00000000000E+00 0. -1.
         22    1    3    3    0    0 -0.71140972490E+02  0.86479211155E+02  0.23551282167E+03  0.26077956420E+03  0.00000000000E+00 0.  1.
         22    1    3    3    0    0  0.17190728920E+02  0.27975082685E+02  0.34023451039E+03  0.34181522563E+03  0.00000000000E+00 0.  1.
</event>
<event>
 7    1  0.5593520E-006  0.4568242E+02  0.7818608E-02  0.1554215E+00
          2   -1    0    0  502    0  0.00000000000E+00  0.00000000000E+00  0.61895274999E+03  0.61895274999E+03  0.00000000000E+00 0. -1.
          1   -1    0    0  501    0 -0.00000000000E+00 -0.00000000000E+00 -0.32999568548E+03  0.32999568548E+03  0.00000000000E+00 0. -1.
         25    2    1    2    0    0 -0.53551046691E+02 -0.40864345143E+02  0.52102199426E+03  0.54002315567E+03  0.12499392324E+03 0.  0.
          2    1    1    2  501    0  0.42051548306E+02  0.17693473652E+02 -0.31693442432E+03  0.32020121961E+03  0.00000000000E+00 0. -1.
          1    1    1    2  502    0  0.11499498385E+02  0.23170871491E+02  0.84869494564E+02  0.88724060188E+02  0.00000000000E+00 0. -1.
         22    1    3    3    0    0 -0.21119488272E+02 -0.80268412222E+02  0.40269636232E+03  0.41116105240E+03  0.00000000000E+00 0. -1.
         22    1    3    3    0    0 -0.32431558419E+02  0.39404067079E+02  0.11832563194E+03  0.12886210326E+03  0.00000000000E+00 0. -1.
</event>
<event>
 7    1  0.5593520E-006  0.6762128E+02  0.7818608E-02  0.1459605E+00
          2   -1    0    0  502    0  0.00000000000E+00  0.00000000000E+00  0.80298180295E+02  0.80298180295E+02  0.00000000000E+00 0. -1.
          1   -1    0    0  501    0 -0.00000000000E+00 -0.00000000000E+00 -0.15085081825E+04  0.15085081825E+04  0.00000000000E+00 0. -1.
         25    2    1    2    0    0  0.22420604918E+02 -0.43890268976E+02 -0.10758559716E+03  0.17212702202E+03  0.12499604696E+03 0.  0.
          2    1    1    2  501    0  0.33258391737E+02 -0.15613380230E+01 -0.13414382903E+04  0.13418514244E+04  0.00000000000E+00 0. -1.
          1    1    1    2  502    0 -0.55678996654E+02  0.45451606999E+02  0.20813885296E+02  0.74827916370E+02  0.00000000000E+00 0. -1.
         22    1    3    3    0    0 -0.13452830592E+02 -0.37576726914E+02 -0.12538625749E+03  0.13158534350E+03  0.00000000000E+00 0.  1.
         22    1    3    3    0    0  0.35873435509E+02 -0.63135420618E+01  0.17800660332E+02  0.40541678515E+02  0.00000000000E+00 0.  1.
</event>
<event>
 7    1  0.5593520E-006  0.6108549E+02  0.7818608E-02  0.1548770E+00
          2   -1    0    0  502    0  0.00000000000E+00  0.00000000000E+00  0.10330354140E+04  0.10330354140E+04  0.00000000000E+00 0. -1.
          1   -1    0    0  501    0 -0.00000000000E+00 -0.00000000000E+00 -0.64951629717E+02  0.64951629717E+02  0.00000000000E+00 0. -1.
         25    2    1    2    0    0 -0.65587382568E+02  0.71258962914E+01  0.80022865479E+03  0.81261541054E+03  0.12500168935E+03 0.  0.
          2    1    1    2  501    0  0.55856927115E+02 -0.24635948333E+02 -0.42295332973E+02  0.74268576453E+02  0.00000000000E+00 0. -1.
          1    1    1    2  502    0  0.97304554532E+01  0.17510052042E+02  0.21015046251E+03  0.21110305677E+03  0.00000000000E+00 0. -1.
         22    1    3    3    0    0 -0.86112536045E+02  0.34535133810E+02  0.71123989553E+03  0.71726580382E+03  0.00000000000E+00 0. -1.
         22    1    3    3    0    0  0.20525153476E+02 -0.27409237519E+02  0.88988759257E+02  0.95349606715E+02  0.00000000000E+00 0. -1.
</event>
<event>
 7    1  0.5593520E-006  0.4475219E+02  0.7818608E-02  0.1482412E+00
          2   -1    0    0  502    0  0.00000000000E+00  0.00000000000E+00  0.24794226843E+04  0.24794226843E+04  0.00000000000E+00 0. -1.
          1   -1    0    0  501    0 -0.00000000000E+00 -0.00000000000E+00 -0.77672023070E+02  0.77672023070E+02  0.00000000000E+00 0. -1.
         25    2    1    2    0    0 -0.62372371250E+02  0.45061940939E+01  0.47870978625E+03  0.49869676169E+03  0.12499912876E+03 0.  0.
          2    1    1    2  501    0  0.32006696918E+02  0.28319067862E+02 -0.60654761454E+02  0.74198371540E+02  0.00000000000E+00 0. -1.
          1    1    1    2  502    0  0.30365674332E+02 -0.32825261956E+02  0.19836956364E+04  0.19841995741E+04  0.00000000000E+00 0. -1.
         22    1    3    3    0    0 -0.28142649101E+02  0.28387773820E+02  0.43987238296E+03  0.44168494167E+03  0.00000000000E+00 0.  1.
         22    1    3    3    0    0 -0.34229722149E+02 -0.23881579726E+02  0.38837403283E+02  0.57011820024E+02  0.00000000000E+00 0.  1.
</event>
<event>
 7    1  0.5593520E-006  0.1096702E+03  0.7818608E-02  0.1322967E+00
          2   -1    0    0  502    0  0.00000000000E+00  0.00000000000E+00  0.18002900751E+04  0.18002900751E+04  0.00000000000E+00 0. -1.
          1   -1    0    0  501    0 -0.00000000000E+00 -0.00000000000E+00 -0.41596877592E+02  0.41596877592E+02  0.00000000000E+00 0. -1.
         25    2    1    2    0    0  0.86499649357E+02  0.10114596285E+03  0.49485012445E+03  0.52746062915E+03  0.12500149798E+03 0.  0.
          2    1    1    2  501    0 -0.24979043174E+02 -0.10397234287E+03  0.92274414468E+02  0.14124010848E+03  0.00000000000E+00 0. -1.
          1    1    1    2  502    0 -0.61520606183E+02  0.28263800215E+01  0.11715686586E+04  0.11731862151E+04  0.00000000000E+00 0. -1.
         22    1    3    3    0    0  0.95053464319E+02  0.10910421123E+03  0.30856726653E+03  0.34081174857E+03  0.00000000000E+00 0.  1.
         22    1    3    3    0    0 -0.85538149620E+01 -0.79582483882E+01  0.18628285792E+03  0.18664888058E+03  0.00000000000E+00 0.  1.
</event>
<event>
 7    1  0.5593520E-006  0.7878036E+02  0.7818608E-02  0.1446709E+00
          2   -1    0    0  502    0  0.00000000000E+00  0.00000000000E+00  0.13535230065E+03  0.13535230065E+03  0.00000000000E+00 0. -1.
          1   -1    0    0  501    0 -0.00000000000E+00 -0.00000000000E+00 -0.22516648846E+03  0.22516648846E+03  0.00000000000E+00 0. -1.
         25    2    1    2    0    0  0.42565682648E+02 -0.53405978360E+02 -0.38507507783E+02  0.14754639488E+03  0.12499229825E+03 0.  0.
          2    1    1    2  501    0  0.28752828952E+02  0.12653529108E+02 -0.10845134208E+03  0.11290939098E+03  0.00000000000E+00 0. -1.
          1    1    1    2  502    0 -0.71318511600E+02  0.40752449252E+02  0.57144662057E+02  0.10006300325E+03  0.00000000000E+00 0. -1.
         22    1    3    3    0    0 -0.51688141143E+01  0.15044312009E+02 -0.59422302013E+02  0.61514696940E+02  0.00000000000E+00 0.  1.
         22    1    3    3    0    0  0.47734496762E+02 -0.68450290369E+02  0.20914794230E+02  0.86031697940E+02  0.00000000000E+00 0.  1.
</event>
<event>
 7    1  0.5593520E-006  0.3186669E+03  0.7818608E-02  0.1164580E+00
          2   -1    0    0  502    0  0.00000000000E+00  0.00000000000E+00  0.21625664563E+04  0.21625664563E+04  0.00000000000E+00 0. -1.
          1   -1    0    0  501    0 -0.00000000000E+00 -0.00000000000E+00 -0.97290071938E+03  0.97290071938E+03  0.00000000000E+00 0. -1.
         25    2    1    2    0    0  0.17563964393E+03  0.35917577056E+03  0.26514780629E+03  0.49576730163E+03  0.12500135802E+03 0.  0.
          2    1    1    2  501    0 -0.84480571359E+02 -0.63222205739E+02 -0.84081553437E+03  0.84741063073E+03  0.00000000000E+00 0. -1.
          1    1    1    2  502    0 -0.91159072570E+02 -0.29595356482E+03  0.17653334650E+04  0.17922892433E+04  0.00000000000E+00 0. -1.
         22    1    3    3    0    0  0.79760618088E+02  0.13596344161E+03  0.35735519156E+02  0.16163180683E+03  0.00000000000E+00 0.  1.
         22    1    3    3    0    0  0.95879025841E+02  0.22321232895E+03  0.22941228713E+03  0.33413549479E+03  0.00000000000E+00 0.  1.
</event>
<event>
 7    1  0.5593520E-006  0.2017603E+03  0.7818608E-02  0.1234775E+00
          2   -1    0    0  502    0  0.00000000000E+00  0.00000000000E+00  0.42107449270E+03  0.42107449270E+03  0.00000000000E+00 0. -1.
          1   -1    0    0  501    0 -0.00000000000E+00 -0.00000000000E+00 -0.95439577033E+03  0.95439577033E+03  0.00000000000E+00 0. -1.
         25    2    1    2    0    0  0.14688981771E+03 -0.21513251652E+02  0.54220186272E+02  0.20150555431E+03  0.12500088509E+03 0.  0.
          2    1    1    2  501    0 -0.20530220386E+03 -0.29689443304E+02 -0.86309449626E+03  0.88767255642E+03  0.00000000000E+00 0. -1.
          1    1    1    2  502    0  0.58412386149E+02  0.51202694956E+02  0.27555303236E+03  0.28629215230E+03  0.00000000000E+00 0. -1.
         22    1    3    3    0    0  0.10473812998E+03  0.33414225212E+02  0.70210586508E+02  0.13044582315E+03  0.00000000000E+00 0.  1.
         22    1    3    3    0    0  0.42151687732E+02 -0.54927476863E+02 -0.15990400236E+02  0.71059731163E+02  0.00000000000E+00 0.  1.
</event>
<event>
 7    1  0.5593520E-006  0.1085283E+03  0.7818608E-02  0.1334642E+00
          2   -1    0    0  502    0  0.00000000000E+00  0.00000000000E+00  0.40020044231E+03  0.40020044231E+03  0.00000000000E+00 0. -1.
          1   -1    0    0  501    0 -0.00000000000E+00 -0.00000000000E+00 -0.72927016549E+03  0.72927016549E+03  0.00000000000E+00 0. -1.
         25    2    1    2    0    0  0.87342922011E+02 -0.79397194288E+02  0.55359031208E+02  0.18060307491E+03  0.12498058987E+03 0.  0.
          2    1    1    2  501    0  0.18374772731E+02  0.53057025171E+02 -0.65488697595E+03  0.65728961003E+03  0.00000000000E+00 0. -1.
          1    1    1    2  502    0 -0.10571769474E+03  0.26340169118E+02  0.27045822156E+03  0.29157792286E+03  0.00000000000E+00 0. -1.
         22    1    3    3    0    0  0.10018154135E+02 -0.92721871747E+02  0.25903966660E+02  0.96792171177E+02  0.00000000000E+00 0.  1.
         22    1    3    3    0    0  0.77324767876E+02  0.13324677459E+02  0.29455064548E+02  0.83810903729E+02  0.00000000000E+00 0.  1.
</event>
<event>
 7    1  0.5593520E-006  0.6171859E+03  0.7818608E-02  0.1154593E+00
          2   -1    0    0  502    0  0.00000000000E+00  0.00000000000E+00  0.50168688939E+03  0.50168688939E+03  0.00000000000E+00 0. -1.
          1   -1    0    0  501    0 -0.00000000000E+00 -0.00000000000E+00 -0.20231098351E+04  0.20231098351E+04  0.00000000000E+00 0. -1.
         25    2    1    2    0    0 -0.44113249307E+03  0.39993640458E+03 -0.64797380502E+02  0.61185833159E+03  0.12499965310E+03 0.  0.
          2    1    1    2  501    0 -0.60518282496E+02  0.91231897649E+01 -0.12233760669E+04  0.12249059949E+04  0.00000000000E+00 0. -1.
          1    1    1    2  502    0  0.50165077556E+03 -0.40905959434E+03 -0.23324949833E+03  0.68803239809E+03  0.00000000000E+00 0. -1.
         22    1    3    3    0    0 -0.21669924518E+03  0.20932487656E+03  0.29359279641E+02  0.30271675558E+03  0.00000000000E+00 0.  1.
         22    1    3    3    0    0 -0.22443324788E+03  0.19061152802E+03 -0.94156660144E+02  0.30914157601E+03  0.00000000000E+00 0.  1.
</event>
<event>
 7    1  0.5593520E-006  0.6940040E+02  0.7818608E-02  0.1372866E+00
          2   -1    0    0  502    0  0.00000000000E+00  0.00000000000E+00  0.20523139019E+03  0.20523139019E+03  0.00000000000E+00 0. -1.
          1   -1    0    0  501    0 -0.00000000000E+00 -0.00000000000E+00 -0.17971946196E+03  0.17971946196E+03  0.00000000000E+00 0. -1.
         25    2    1    2    0    0  0.21955726326E+02 -0.50360182398E+02  0.73678733621E+02  0.15514983024E+03  0.12499884858E+03 0.  0.
          2    1    1    2  501    0  0.40709176333E+02  0.60530650923E+02 -0.11591393059E+03  0.13695705912E+03  0.00000000000E+00 0. -1.
          1    1    1    2  502    0 -0.62664902659E+02 -0.10170468524E+02  0.67747125195E+02  0.92843962795E+02  0.00000000000E+00 0. -1.
         22    1    3    3    0    0  0.31441654110E+02  0.18375728413E+02  0.77528451390E+02  0.85655739929E+02  0.00000000000E+00 0.  1.
         22    1    3    3    0    0 -0.94859277835E+01 -0.68735910811E+02 -0.38497177694E+01  0.69494090309E+02  0.00000000000E+00 0.  1.
</event>
<event>
 7    1  0.5593520E-006  0.9246343E+02  0.7818608E-02  0.1365800E+00
          2   -1    0    0  502    0  0.00000000000E+00  0.00000000000E+00  0.25009614541E+03  0.25009614541E+03  0.00000000000E+00 0. -1.
          1   -1    0    0  501    0 -0.00000000000E+00 -0.00000000000E+00 -0.11778954804E+03  0.11778954804E+03  0.00000000000E+00 0. -1.
         25    2    1    2    0    0 -0.54964367968E+02  0.40823694806E+02  0.12242909727E+03  0.18788555654E+03  0.12499777075E+03 0.  0.
          2    1    1    2  501    0  0.98004224217E+02 -0.14362872608E+02 -0.41997985091E+02  0.10758694542E+03  0.00000000000E+00 0. -1.
          1    1    1    2  502    0 -0.43039856249E+02 -0.26460822198E+02  0.51875485199E+02  0.72413191491E+02  0.00000000000E+00 0. -1.
         22    1    3    3    0    0 -0.10630533024E+02  0.59484460284E+02  0.45826046823E+01  0.60600408524E+02  0.00000000000E+00 0.  1.
         22    1    3    3    0    0 -0.44333834944E+02 -0.18660765478E+02  0.11784649259E+03  0.12728514801E+03  0.00000000000E+00 0.  1.
</event>
<event>
 7    1  0.5593520E-006  0.1018896E+03  0.7818608E-02  0.1406782E+00
          2   -1    0    0  502    0  0.00000000000E+00  0.00000000000E+00  0.87231066202E+03  0.87231066202E+03  0.00000000000E+00 0. -1.
          1   -1    0    0  501    0 -0.00000000000E+00 -0.00000000000E+00 -0.54188647831E+03  0.54188647831E+03  0.00000000000E+00 0. -1.
         25    2    1    2    0    0 -0.42020242348E+02  0.11916416013E+03  0.30450257445E+03  0.35258056848E+03  0.12500176638E+03 0.  0.
          2    1    1    2  501    0  0.51375823545E+02 -0.87598522803E+02 -0.51236092563E+03  0.52232814835E+03  0.00000000000E+00 0. -1.
          1    1    1    2  502    0 -0.93555811963E+01 -0.31565637327E+02  0.53828253489E+03  0.53928842351E+03  0.00000000000E+00 0. -1.
         22    1    3    3    0    0  0.31204993791E+01 -0.23979216185E+02  0.70949846788E+02  0.74957461833E+02  0.00000000000E+00 0. -1.
         22    1    3    3    0    0 -0.45140741727E+02  0.14314337631E+03  0.23355272766E+03  0.27762310665E+03  0.00000000000E+00 0. -1.
</event>
<event>
 7    1  0.5593520E-006  0.6772380E+02  0.7818608E-02  0.1388194E+00
          2   -1    0    0  502    0  0.00000000000E+00  0.00000000000E+00  0.22805539745E+04  0.22805539745E+04  0.00000000000E+00 0. -1.
          1   -1    0    0  501    0 -0.00000000000E+00 -0.00000000000E+00 -0.30718125978E+03  0.30718125978E+03  0.00000000000E+00 0. -1.
         25    2    1    2    0    0  0.25798662150E+02  0.42660219876E+02  0.24853388764E+03  0.28262786342E+03  0.12499580212E+03 0.  0.
          2    1    1    2  501    0 -0.53610208369E+02  0.20560462812E+02 -0.28669501587E+03  0.29238813108E+03  0.00000000000E+00 0. -1.
          1    1    1    2  502    0  0.27811546219E+02 -0.63220682688E+02  0.20115338429E+04  0.20127192397E+04  0.00000000000E+00 0. -1.
         22    1    3    3    0    0  0.67752687297E+02  0.58596763521E+02  0.15998494357E+03  0.18335536398E+03  0.00000000000E+00 0. -1.
         22    1    3    3    0    0 -0.41954025147E+02 -0.15936543645E+02  0.88548944064E+02  0.99272499435E+02  0.00000000000E+00 0. -1.
</event>
<event>
 7    1  0.5593520E-006  0.6961610E+02  0.7818608E-02  0.1452638E+00
          2   -1    0    0  502    0  0.00000000000E+00  0.00000000000E+00  0.15226970680E+03  0.15226970680E+03  0.00000000000E+00 0. -1.
          1   -1    0    0  501    0 -0.00000000000E+00 -0.00000000000E+00 -0.22462934118E+04  0.22462934118E+04  0.00000000000E+00 0. -1.
         25    2    1    2    0    0  0.24398744692E+02 -0.37427841015E+02 -0.10316438389E+04  0.10401494267E+04  0.12500270950E+03 0.  0.
          2    1    1    2  501    0 -0.29657783936E+02  0.71048182927E+02 -0.12071983362E+04  0.12096508800E+04  0.00000000000E+00 0. -1.
          1    1    1    2  502    0  0.52590392439E+01 -0.33620341912E+02  0.14481847022E+03  0.14876281188E+03  0.00000000000E+00 0. -1.
         22    1    3    3    0    0  0.47694599697E+02 -0.68865658457E+02 -0.86155817063E+03  0.86562101126E+03  0.00000000000E+00 0. -1.
         22    1    3    3    0    0 -0.23295855005E+02  0.31437817442E+02 -0.17008566832E+03  0.17452841543E+03  0.00000000000E+00 0. -1.
</event>
<event>
 7    1  0.8361583E-006  0.5837607E+02  0.7818608E-02  0.1436733E+00
          2   -1    0    0  502    0  0.00000000000E+00  0.00000000000E+00  0.21510832728E+04  0.21510832728E+04  0.00000000000E+00 0. -1.
          1   -1    0    0  501    0 -0.00000000000E+00 -0.00000000000E+00 -0.25362968811E+04  0.25362968811E+04  0.00000000000E+00 0. -1.
         25    2    1    2    0    0 -0.10042137175E+03  0.89716148058E+01 -0.25534856524E+03  0.30164953203E+03  0.12499843451E+03 0.  0.
          2    1    1    2  501    0  0.57384949413E+02  0.63035117780E+01 -0.22571837110E+04  0.22579218480E+04  0.00000000000E+00 0. -1.
          1    1    1    2  502    0  0.43036422335E+02 -0.15275126584E+02  0.21273186679E+04  0.21278087738E+04  0.00000000000E+00 0. -1.
         22    1    3    3    0    0 -0.79636866777E+02  0.56729649018E+02 -0.21353861170E+03  0.23485957999E+03  0.00000000000E+00 0.  1.
         22    1    3    3    0    0 -0.20784504971E+02 -0.47758034212E+02 -0.41809953546E+02  0.66789952046E+02  0.00000000000E+00 0.  1.
</event>
<event>
 7    1  0.5593520E-006  0.1513987E+03  0.7818608E-02  0.1228868E+00
          2   -1    0    0  502    0  0.00000000000E+00  0.00000000000E+00  0.32564475603E+04  0.32564475603E+04  0.00000000000E+00 0. -1.
          1   -1    0    0  501    0 -0.00000000000E+00 -0.00000000000E+00 -0.56388335712E+02  0.56388335712E+02  0.00000000000E+00 0. -1.
         25    2    1    2    0    0  0.68210820851E+02  0.53021977976E+01  0.47343810722E+03  0.49441867819E+03  0.12500143440E+03 0.  0.
          2    1    1    2  501    0  0.10262098908E+03 -0.39623346378E+02  0.27120234332E+02  0.11329864998E+03  0.00000000000E+00 0. -1.
          1    1    1    2  502    0 -0.17083180993E+03  0.34321148580E+02  0.26995008830E+04  0.27051185678E+04  0.00000000000E+00 0. -1.
         22    1    3    3    0    0  0.46963018910E+02 -0.46929883290E+02  0.37619985542E+03  0.38201344258E+03  0.00000000000E+00 0.  1.
         22    1    3    3    0    0  0.21247801942E+02  0.52232081088E+02  0.97238251794E+02  0.11240523562E+03  0.00000000000E+00 0.  1.
</event>
<event>
 7    1  0.5593520E-006  0.5213445E+02  0.7818608E-02  0.1536833E+00
          2   -1    0    0  502    0  0.00000000000E+00  0.00000000000E+00  0.21701500698E+03  0.21701500698E+03  0.00000000000E+00 0. -1.
          1   -1    0    0  501    0 -0.00000000000E+00 -0.00000000000E+00 -0.16451872968E+03  0.16451872968E+03  0.00000000000E+00 0. -1.
         25    2    1    2    0    0 -0.48286768602E+02 -0.11592982824E+02 -0.92569673525E+01  0.13482180734E+03  0.12500087606E+03 0.  0.
          2    1    1    2  501    0  0.51330281991E+02 -0.13584172637E+02 -0.83668928462E+02  0.99094990718E+02  0.00000000000E+00 0. -1.
          1    1    1    2  502    0 -0.30435133888E+01  0.25177155461E+02  0.14542217311E+03  0.14761693861E+03  0.00000000000E+00 0. -1.
         22    1    3    3    0    0 -0.61641918192E+02 -0.55049331171E+02  0.13893710803E+02  0.83804475660E+02  0.00000000000E+00 0.  1.
         22    1    3    3    0    0  0.13355149589E+02  0.43456348348E+02 -0.23150678155E+02  0.51017331676E+02  0.00000000000E+00 0.  1.
</event>
<event>
 7    1  0.5593520E-006  0.7372176E+02  0.7818608E-02  0.1471099E+00
          2   -1    0    0  502    0  0.00000000000E+00  0.00000000000E+00  0.16039453850E+04  0.16039453850E+04  0.00000000000E+00 0. -1.
          1   -1    0    0  501    0 -0.00000000000E+00 -0.00000000000E+00 -0.41063588077E+02  0.41063588077E+02  0.00000000000E+00 0. -1.
         25    2    1    2    0    0  0.59329962123E+02 -0.86515483445E+01  0.49514512810E+03  0.51418774120E+03  0.12500176646E+03 0.  0.
          2    1    1    2  501    0 -0.66134272047E+02  0.35926823873E+02  0.13809410085E+02  0.76519137604E+02  0.00000000000E+00 0. -1.
          1    1    1    2  502    0  0.68043099240E+01 -0.27275275529E+02  0.10539272587E+04  0.10543020942E+04  0.00000000000E+00 0. -1.
         22    1    3    3    0    0  0.29209214313E+00 -0.58326040070E+02  0.16068483104E+03  0.17094334499E+03  0.00000000000E+00 0.  1.
         22    1    3    3    0    0  0.59037869980E+02  0.49674491725E+02  0.33446029706E+03  0.34324439621E+03  0.00000000000E+00 0.  1.
</event>
<event>
 7    1  0.5593520E-006  0.9138082E+02  0.7818608E-02  0.1313364E+00
          2   -1    0    0  502    0  0.00000000000E+00  0.00000000000E+00  0.21688889815E+04  0.21688889815E+04  0.00000000000E+00 0. -1.
          1   -1    0    0  501    0 -0.00000000000E+00 -0.00000000000E+00 -0.57626599971E+02  0.57626599971E+02  0.00000000000E+00 0. -1.
         25    2    1    2    0    0 -0.10397566972E+03  0.27457033409E+02  0.20238623050E+03  0.26105544106E+03  0.12499971373E+03 0.  0.
          2    1    1    2  501    0  0.80330392597E+02  0.49546760625E+02  0.53804857666E+02  0.10864076662E+03  0.00000000000E+00 0. -1.
          1    1    1    2  502    0  0.23645277123E+02 -0.77003794035E+02  0.18550712934E+04  0.18568193738E+04  0.00000000000E+00 0. -1.
         22    1    3    3    0    0 -0.12773842537E+03  0.10563196583E+01  0.17240826661E+03  0.21457593416E+03  0.00000000000E+00 0. -1.
         22    1    3    3    0    0  0.23762755646E+02  0.26400713751E+02  0.29977963890E+02  0.46479506898E+02  0.00000000000E+00 0. -1.
</event>
<event>
 7    1  0.5593520E-006  0.3842401E+02  0.7818608E-02  0.1536033E+00
          2   -1    0    0  502    0  0.00000000000E+00  0.00000000000E+00  0.90893881586E+03  0.90893881586E+03  0.00000000000E+00 0. -1.
          1   -1    0    0  501    0 -0.00000000000E+00 -0.00000000000E+00 -0.32817672889E+03  0.32817672889E+03  0.00000000000E+00 0. -1.
         25    2    1    2    0    0  0.18201419368E+02 -0.39803045351E+02  0.63794177357E+03  0.65154480581E+03  0.12500141369E+03 0.  0.
          2    1    1    2  501    0 -0.36918239249E+02  0.10714460265E+02 -0.31908443097E+03  0.32139170826E+03  0.00000000000E+00 0. -1.
          1    1    1    2  502    0  0.18716819881E+02  0.29088585086E+02  0.26190474437E+03  0.26417903068E+03  0.00000000000E+00 0. -1.
         22    1    3    3    0    0 -0.28473090354E+02 -0.68196574935E+02  0.28629356563E+03  0.29567802662E+03  0.00000000000E+00 0.  1.
         22    1    3    3    0    0  0.46674509722E+02  0.28393529584E+02  0.35164820794E+03  0.35586677919E+03  0.00000000000E+00 0.  1.
</event>
<event>
 7    1  0.5593520E-006  0.1352730E+03  0.7818608E-02  0.1281935E+00
          2   -1    0    0  502    0  0.00000000000E+00  0.00000000000E+00  0.24820586255E+03  0.24820586255E+03  0.00000000000E+00 0. -1.
          1   -1    0    0  501    0 -0.00000000000E+00 -0.00000000000E+00 -0.81036273180E+03  0.81036273180E+03  0.00000000000E+00 0. -1.
         25    2    1    2    0    0  0.13885966647E+03  0.41944278564E+02  0.38095035257E+02  0.19524312367E+03  0.12500926426E+03 0.  0.
          2    1    1    2  501    0 -0.55610607849E+01 -0.72569998169E+02 -0.69380939479E+03  0.69761651810E+03  0.00000000000E+00 0. -1.
          1    1    1    2  502    0 -0.13329860569E+03  0.30625719605E+02  0.93557490281E+02  0.16570895259E+03  0.00000000000E+00 0. -1.
         22    1    3    3    0    0  0.62305423146E+02  0.40487895077E+02  0.78983145886E+02  0.10844156369E+03  0.00000000000E+00 0. -1.
         22    1    3    3    0    0  0.76554243325E+02  0.14563834876E+01 -0.40888110629E+02  0.86801559979E+02  0.00000000000E+00 0. -1.
</event>
<event>
 7    1  0.5593520E-006  0.6265515E+02  0.7818608E-02  0.1471338E+00
          2   -1    0    0  502    0  0.00000000000E+00  0.00000000000E+00  0.63943660780E+03  0.63943660780E+03  0.00000000000E+00 0. -1.
          1   -1    0    0  501    0 -0.00000000000E+00 -0.00000000000E+00 -0.18589451980E+04  0.18589451980E+04  0.00000000000E+00 0. -1.
         25    2    1    2    0    0  0.10071717387E+02 -0.43028215379E+02 -0.16106275323E+04  0.16160753607E+04  0.12500262624E+03 0.  0.
          2    1    1    2  501    0 -0.28352009802E+02 -0.16925360381E+02 -0.24293161528E+03  0.24516540129E+03  0.00000000000E+00 0. -1.
          1    1    1    2  502    0  0.18280292415E+02  0.59953575760E+02  0.63405055745E+03  0.63714104383E+03  0.00000000000E+00 0. -1.
         22    1    3    3    0    0 -0.50742661501E+02 -0.81791193213E+01 -0.38092347252E+03  0.38437534729E+03  0.00000000000E+00 0. -1.
         22    1    3    3    0    0  0.60814378888E+02 -0.34849096058E+02 -0.12297040598E+04  0.12317000134E+04  0.00000000000E+00 0. -1.
</event>
<event>
 7    1  0.5593520E-006  0.1315054E+03  0.7818608E-02  0.1310659E+00
          2   -1    0    0  502    0  0.00000000000E+00  0.00000000000E+00  0.12850417014E+04  0.12850417014E+04  0.00000000000E+00 0. -1.
          1   -1    0    0  501    0 -0.00000000000E+00 -0.00000000000E+00 -0.56258952845E+03  0.56258952845E+03  0.00000000000E+00 0. -1.
         25    2    1    2    0    0 -0.87206491569E+00 -0.86679165104E+02  0.16444716335E+03  0.22401446309E+03  0.12500228789E+03 0.  0.
          2    1    1    2  501    0  0.30607333293E+02 -0.48512645290E+02 -0.52685144499E+03  0.52996483911E+03  0.00000000000E+00 0. -1.
          1    1    1    2  502    0 -0.29735268378E+02  0.13519181039E+03  0.10848564546E+04  0.10936519276E+04  0.00000000000E+00 0. -1.
         22    1    3    3    0    0  0.11783412305E+01  0.61924977316E+01  0.12151627523E+03  0.12167966413E+03  0.00000000000E+00 0.  1.
         22    1    3    3    0    0 -0.20504061462E+01 -0.92871662836E+02  0.42930888115E+02  0.10233479896E+03  0.00000000000E+00 0.  1.
</event>
<event>
 7    1  0.5593520E-006  0.9421348E+02  0.7818608E-02  0.1426302E+00
          2   -1    0    0  502    0  0.00000000000E+00  0.00000000000E+00  0.86525324690E+02  0.86525324690E+02  0.00000000000E+00 0. -1.
          1   -1    0    0  501    0 -0.00000000000E+00 -0.00000000000E+00 -0.31748265289E+04  0.31748265289E+04  0.00000000000E+00 0. -1.
         25    2    1    2    0    0 -0.76413134247E+02 -0.18472013326E+02 -0.38871529947E+03  0.41580929099E+03  0.12497039675E+03 0.  0.
          2    1    1    2  501    0  0.95186279498E+02 -0.57164672297E+01 -0.27684952011E+04  0.27701369613E+04  0.00000000000E+00 0. -1.
          1    1    1    2  502    0 -0.18773145251E+02  0.24188480556E+02  0.68909296398E+02  0.75405601279E+02  0.00000000000E+00 0. -1.
         22    1    3    3    0    0 -0.47884472380E+02 -0.54810563540E+02 -0.34364246941E+03  0.35126523789E+03  0.00000000000E+00 0. -1.
         22    1    3    3    0    0 -0.28528661867E+02  0.36338550214E+02 -0.45072830066E+02  0.64544053094E+02  0.00000000000E+00 0. -1.
</event>
<event>
 7    1  0.5593520E-006  0.5673435E+02  0.7818608E-02  0.1491686E+00
          2   -1    0    0  502    0  0.00000000000E+00  0.00000000000E+00  0.91059556739E+02  0.91059556739E+02  0.00000000000E+00 0. -1.
          1   -1    0    0  501    0 -0.00000000000E+00 -0.00000000000E+00 -0.13152681465E+04  0.13152681465E+04  0.00000000000E+00 0. -1.
         25    2    1    2    0    0  0.76742658895E+01 -0.54142159923E+02 -0.34249615930E+03  0.36867145162E+03  0.12499900907E+03 0.  0.
          2    1    1    2  501    0 -0.37430037457E+02  0.43525341933E+02 -0.95558694751E+03  0.95730970817E+03  0.00000000000E+00 0. -1.
          1    1    1    2  502    0  0.29755771567E+02  0.10616817990E+02  0.73874517080E+02  0.80346543421E+02  0.00000000000E+00 0. -1.
         22    1    3    3    0    0 -0.62617290227E+01  0.28097125908E+02 -0.18754078551E+02  0.34356559737E+02  0.00000000000E+00 0.  1.
         22    1    3    3    0    0  0.13935994912E+02 -0.82239285831E+02 -0.32374208075E+03  0.33431489188E+03  0.00000000000E+00 0.  1.
</event>
<event>
 7    1  0.6464039E-006  0.4297053E+02  0.7818608E-02  0.1510690E+00
          2   -1    0    0  502    0  0.00000000000E+00  0.00000000000E+00  0.18884783793E+04  0.18884783793E+04  0.00000000000E+00 0. -1.
          1   -1    0    0  501    0 -0.00000000000E+00 -0.00000000000E+00 -0.51151100201E+03  0.51151100201E+03  0.00000000000E+00 0. -1.
         25    2    1    2    0    0 -0.69177596510E+02  0.35518484555E+02 -0.69241249099E+02  0.16269960812E+03  0.12501883579E+03 0.  0.
          2    1    1    2  501    0  0.35506424284E+02 -0.89375014533E+01 -0.39444280784E+03  0.39613850324E+03  0.00000000000E+00 0. -1.
          1    1    1    2  502    0  0.33671172226E+02 -0.26580983102E+02  0.18406514342E+04  0.18411512700E+04  0.00000000000E+00 0. -1.
         22    1    3    3    0    0 -0.79396094946E+02  0.50972434917E+02 -0.93061222860E+02  0.13252290449E+03  0.00000000000E+00 0. -1.
         22    1    3    3    0    0  0.10218498437E+02 -0.15453950362E+02  0.23819973761E+02  0.30176703632E+02  0.00000000000E+00 0. -1.
</event>
<event>
 7    1  0.5593520E-006  0.2806215E+03  0.7818608E-02  0.1109840E+00
          2   -1    0    0  502    0  0.00000000000E+00  0.00000000000E+00  0.26759255282E+04  0.26759255282E+04  0.00000000000E+00 0. -1.
          1   -1    0    0  501    0 -0.00000000000E+00 -0.00000000000E+00 -0.68196832913E+02  0.68196832913E+02  0.00000000000E+00 0. -1.
         25    2    1    2    0    0 -0.11705132795E+03 -0.80081812153E+02  0.32080184110E+03  0.37236656170E+03  0.12501569903E+03 0.  0.
          2    1    1    2  501    0  0.11933835031E+03 -0.25398190847E+03  0.80086725820E+03  0.84860875375E+03  0.00000000000E+00 0. -1.
          1    1    1    2  502    0 -0.22870223609E+01  0.33406372062E+03  0.14860595960E+04  0.15231470457E+04  0.00000000000E+00 0. -1.
         22    1    3    3    0    0  0.66590258107E+01 -0.46952667042E+02  0.34249827988E+02  0.58497404082E+02  0.00000000000E+00 0. -1.
         22    1    3    3    0    0 -0.12371035376E+03 -0.33129145111E+02  0.28655201311E+03  0.31386915761E+03  0.00000000000E+00 0. -1.
</event>
<event>
 7    1  0.6160153E-006  0.7944286E+02  0.7818608E-02  0.1490626E+00
          2   -1    0    0  502    0  0.00000000000E+00  0.00000000000E+00  0.14769698999E+04  0.14769698999E+04  0.00000000000E+00 0. -1.
          1   -1    0    0  501    0 -0.00000000000E+00 -0.00000000000E+00 -0.62986973565E+03  0.62986973565E+03  0.00000000000E+00 0. -1.
         25    2    1    2    0    0 -0.93996253747E+02 -0.11003498267E+02 -0.19233922344E+03  0.24814567821E+03  0.12500211217E+03 0.  0.
          2    1    1    2  501    0  0.14861677457E+02  0.17197522104E+02 -0.40822388895E+03  0.40885616998E+03  0.00000000000E+00 0. -1.
          1    1    1    2  502    0  0.79134576290E+02 -0.61940238369E+01  0.14476632766E+04  0.14498377873E+04  0.00000000000E+00 0. -1.
         22    1    3    3    0    0  0.23217539507E+02  0.41235891558E+01 -0.85957018114E+02  0.89132862017E+02  0.00000000000E+00 0. -1.
         22    1    3    3    0    0 -0.11721379325E+03 -0.15127087423E+02 -0.10638220533E+03  0.15901281619E+03  0.00000000000E+00 0. -1.
</event>
<event>
 7    1  0.5593520E-006  0.1132771E+03  0.7818608E-02  0.1364382E+00
          2   -1    0    0  502    0  0.00000000000E+00  0.00000000000E+00  0.76578318842E+03  0.76578318842E+03  0.00000000000E+00 0. -1.
          1   -1    0    0  501    0 -0.00000000000E+00 -0.00000000000E+00 -0.31203662771E+04  0.31203662771E+04  0.00000000000E+00 0. -1.
         25    2    1    2    0    0 -0.90859695326E+02 -0.29628661914E+02  0.25649604492E+03  0.30090543364E+03  0.12498206709E+03 0.  0.
          2    1    1    2  501    0 -0.29597313726E+02  0.29418467975E+02 -0.30905711959E+04  0.30908529185E+04  0.00000000000E+00 0. -1.
          1    1    1    2  502    0  0.12045700905E+03  0.21019393856E+00  0.47949206225E+03  0.49439111337E+03  0.00000000000E+00 0. -1.
         22    1    3    3    0    0 -0.10570459924E+03 -0.36424705855E+02  0.26102549231E+03  0.28396219667E+03  0.00000000000E+00 0.  1.
         22    1    3    3    0    0  0.14844903918E+02  0.67960439414E+01 -0.45294473924E+01  0.16943236977E+02  0.00000000000E+00 0.  1.
</event>
<event>
 7    1  0.5593520E-006  0.2660163E+03  0.7818608E-02  0.1249175E+00
          2   -1    0    0  502    0  0.00000000000E+00  0.00000000000E+00  0.20952108827E+03  0.20952108827E+03  0.00000000000E+00 0. -1.
          1   -1    0    0  501    0 -0.00000000000E+00 -0.00000000000E+00 -0.26904117063E+04  0.26904117063E+04  0.00000000000E+00 0. -1.
         25    2    1    2    0    0  0.22620061356E+03  0.90166599468E+02 -0.16481429574E+04  0.16707173670E+04  0.12499831546E+03 0.  0.
          2    1    1    2  501    0  0.35751302378E+02 -0.36263704951E+02 -0.93977548998E+03  0.94115417626E+03  0.00000000000E+00 0. -1.
          1    1    1    2  502    0 -0.26195191594E+03 -0.53902894516E+02  0.10702782934E+03  0.28806125140E+03  0.00000000000E+00 0. -1.
         22    1    3    3    0    0  0.16969417809E+03  0.36626723436E+02 -0.13981220692E+04  0.14088587407E+04  0.00000000000E+00 0. -1.
         22    1    3    3    0    0  0.56506435472E+02  0.53539876032E+02 -0.25002088826E+03  0.26185862625E+03  0.00000000000E+00 0. -1.
</event>
<event>
 7    1  0.5593520E-006  0.5983612E+02  0.7818608E-02  0.1428774E+00
          2   -1    0    0  502    0  0.00000000000E+00  0.00000000000E+00  0.27723285351E+04  0.27723285351E+04  0.00000000000E+00 0. -1.
          1   -1    0    0  501    0 -0.00000000000E+00 -0.00000000000E+00 -0.12442311783E+02  0.12442311783E+02  0.00000000000E+00 0. -1.
         25    2    1    2    0    0 -0.90877645298E+02 -0.20655259244E+02  0.11890745826E+04  0.11992533832E+04  0.12499971102E+03 0.  0.
          2    1    1    2  501    0  0.45653431938E+02  0.34555609764E+02  0.11062119887E+03  0.12456073078E+03  0.00000000000E+00 0. -1.
          1    1    1    2  502    0  0.45224213360E+02 -0.13900350520E+02  0.14601904418E+04  0.14609567329E+04  0.00000000000E+00 0. -1.
         22    1    3    3    0    0 -0.33900489833E+02  0.64670934809E+01  0.66639915741E+02  0.75046284912E+02  0.00000000000E+00 0.  1.
         22    1    3    3    0    0 -0.56977155465E+02 -0.27122352724E+02  0.11224346669E+04  0.11242070982E+04  0.00000000000E+00 0.  1.
</event>
<event>
 7    1  0.5593520E-006  0.4461317E+02  0.7818608E-02  0.1494187E+00
          2   -1    0    0  502    0  0.00000000000E+00  0.00000000000E+00  0.23581142809E+02  0.23581142809E+02  0.00000000000E+00 0. -1.
          1   -1    0    0  501    0 -0.00000000000E+00 -0.00000000000E+00 -0.18937293256E+04  0.18937293256E+04  0.00000000000E+00 0. -1.
         25    2    1    2    0    0  0.55217548011E+02  0.10759713042E+02 -0.12727580259E+04  0.12801183688E+04  0.12500118641E+03 0.  0.
          2    1    1    2  501    0 -0.17821332858E+02 -0.35235182002E+02 -0.59067906674E+03  0.59199736304E+03  0.00000000000E+00 0. -1.
          1    1    1    2  502    0 -0.37396215153E+02  0.24475468960E+02 -0.67110902208E+01  0.45194736646E+02  0.00000000000E+00 0. -1.
         22    1    3    3    0    0  0.37876416539E+02 -0.23282290037E+02 -0.11639374819E+04  0.11647863108E+04  0.00000000000E+00 0. -1.
         22    1    3    3    0    0  0.17341131472E+02  0.34042003078E+02 -0.10882054396E+03  0.11533205800E+03  0.00000000000E+00 0. -1.
</event>
<event>
 7    1  0.5593520E-006  0.1025261E+03  0.7818608E-02  0.1332572E+00
          2   -1    0    0  502    0  0.00000000000E+00  0.00000000000E+00  0.38395390372E+03  0.38395390372E+03  0.00000000000E+00 0. -1.
          1   -1    0    0  501    0 -0.00000000000E+00 -0.00000000000E+00 -0.22067715429E+03  0.22067715429E+03  0.00000000000E+00 0. -1.
         25    2    1    2    0    0 -0.52835127972E+02  0.18273968868E+02  0.75596926931E+02  0.15641479532E+03  0.12500081659E+03 0.  0.
          2    1    1    2  501    0  0.10984234568E+03  0.20512103886E+01 -0.15953363076E+03  0.19370216238E+03  0.00000000000E+00 0. -1.
          1    1    1    2  502    0 -0.57007217708E+02 -0.20325179257E+02  0.24721345326E+03  0.25451410030E+03  0.00000000000E+00 0. -1.
         22    1    3    3    0    0 -0.82510406853E+02 -0.23375009736E+02  0.45616667304E+02  0.97135156638E+02  0.00000000000E+00 0. -1.
         22    1    3    3    0    0  0.29675278881E+02  0.41648978604E+02  0.29980259627E+02  0.59279638686E+02  0.00000000000E+00 0. -1.
</event>
<event>
 7    1  0.5593520E-006  0.8265921E+02  0.7818608E-02  0.1415122E+00
          2   -1    0    0  502    0  0.00000000000E+00  0.00000000000E+00  0.11853782590E+04  0.11853782590E+04  0.00000000000E+00 0. -1.
          1   -1    0    0  501    0 -0.00000000000E+00 -0.00000000000E+00 -0.67036984827E+03  0.67036984827E+03  0.00000000000E+00 0. -1.
         25    2    1    2    0    0 -0.43770637239E+02  0.89991037845E+02  0.76096773391E+02  0.17727833627E+03  0.12499053570E+03 0.  0.
          2    1    1    2  501    0  0.65554078492E+01 -0.82166559597E+02 -0.61669453888E+03  0.62217880965E+03  0.00000000000E+00 0. -1.
          1    1    1    2  502    0  0.37215229389E+02 -0.78244782480E+01  0.10556061762E+04  0.10562909614E+04  0.00000000000E+00 0. -1.
         22    1    3    3    0    0 -0.80880864642E+02  0.29003931761E+02  0.57879907455E+02  0.10360031858E+03  0.00000000000E+00 0. -1.
         22    1    3    3    0    0  0.37110227403E+02  0.60987106084E+02  0.18216865936E+02  0.73678017692E+02  0.00000000000E+00 0. -1.
</event>
<event>
 7    1  0.5593520E-006  0.8878782E+02  0.7818608E-02  0.1427038E+00
          2   -1    0    0  502    0  0.00000000000E+00  0.00000000000E+00  0.35057629438E+03  0.35057629438E+03  0.00000000000E+00 0. -1.
          1   -1    0    0  501    0 -0.00000000000E+00 -0.00000000000E+00 -0.83548769754E+03  0.83548769754E+03  0.00000000000E+00 0. -1.
         25    2    1    2    0    0 -0.10298806837E+03  0.44622740774E+02 -0.49684601007E+03  0.52447901709E+03  0.12499820171E+03 0.  0.
          2    1    1    2  501    0  0.75417306153E+02 -0.27779779741E+02 -0.31905505831E+03  0.32902221272E+03  0.00000000000E+00 0. -1.
          1    1    1    2  502    0  0.27570762219E+02 -0.16842961033E+02  0.33098966521E+03  0.33256276211E+03  0.00000000000E+00 0. -1.
         22    1    3    3    0    0 -0.13221535252E+03  0.38404889875E+02 -0.42185666036E+03  0.44375542464E+03  0.00000000000E+00 0.  1.
         22    1    3    3    0    0  0.29227284153E+02  0.62178508996E+01 -0.74989349709E+02  0.80723592453E+02  0.00000000000E+00 0.  1.
</event>
<event>
 7    1  0.5593520E-006  0.1222206E+03  0.7818608E-02  0.1293986E+00
          2   -1    0    0  502    0  0.00000000000E+00  0.00000000000E+00  0.66229974720E+02  0.66229974720E+02  0.00000000000E+00 0. -1.
          1   -1    0    0  501    0 -0.00000000000E+00 -0.00000000000E+00 -0.12623350029E+04  0.12623350029E+04  0.00000000000E+00 0. -1.
         25    2    1    2    0    0 -0.10772972022E+03  0.28324296556E+02 -0.69371173012E+03  0.71363435956E+03  0.12502030338E+03 0.  0.
          2    1    1    2  501    0  0.99276156876E+02 -0.99757895411E+02 -0.52178364290E+03  0.54043090494E+03  0.00000000000E+00 0. -1.
          1    1    1    2  502    0  0.84535633401E+01  0.71433598855E+02  0.19390344849E+02  0.74499713100E+02  0.00000000000E+00 0. -1.
         22    1    3    3    0    0 -0.39221423968E+02 -0.48514603197E+02 -0.20904951362E+03  0.21815977165E+03  0.00000000000E+00 0. -1.
         22    1    3    3    0    0 -0.68508296248E+02  0.76838899752E+02 -0.48466221649E+03  0.49547458791E+03  0.00000000000E+00 0. -1.
</event>
<event>
 7    1  0.5593520E-006  0.4339664E+02  0.7818608E-02  0.1524809E+00
          2   -1    0    0  502    0  0.00000000000E+00  0.00000000000E+00  0.15158644697E+04  0.15158644697E+04  0.00000000000E+00 0. -1.
          1   -1    0    0  501    0 -0.00000000000E+00 -0.00000000000E+00 -0.90957796235E+03  0.90957796235E+03  0.00000000000E+00 0. -1.
         25    2    1    2    0    0 -0.29474054196E+02  0.49743265395E+02  0.13090284708E+03  0.19000937337E+03  0.12499957710E+03 0.  0.
          2    1    1    2  501    0 -0.98343438494E+01 -0.31478409543E+02 -0.87936899917E+03  0.87998718245E+03  0.00000000000E+00 0. -1.
          1    1    1    2  502    0  0.39308398045E+02 -0.18264855852E+02  0.13547526595E+04  0.13554458762E+04  0.00000000000E+00 0. -1.
         22    1    3    3    0    0 -0.16135758909E+02 -0.65910856915E+01 -0.21092493805E+02  0.27362354085E+02  0.00000000000E+00 0. -1.
         22    1    3    3    0    0 -0.13338295287E+02  0.56334351086E+02  0.15199534088E+03  0.16264701929E+03  0.00000000000E+00 0. -1.
</event>
<event>
 7    1  0.5593520E-006  0.1011584E+03  0.7818608E-02  0.1366720E+00
          2   -1    0    0  502    0  0.00000000000E+00  0.00000000000E+00  0.16975352937E+04  0.16975352937E+04  0.00000000000E+00 0. -1.
          1   -1    0    0  501    0 -0.00000000000E+00 -0.00000000000E+00 -0.89328832909E+03  0.89328832909E+03  0.00000000000E+00 0. -1.
         25    2    1    2    0    0 -0.80566460473E+02  0.58082610104E+02  0.12764833682E+03  0.20441042468E+03  0.12499991870E+03 0.  0.
          2    1    1    2  501    0  0.33013260806E+02  0.31786176646E+02 -0.85260371416E+03  0.85383448619E+03  0.00000000000E+00 0. -1.
          1    1    1    2  502    0  0.47553199667E+02 -0.89868786750E+02  0.15292023420E+04  0.15325787120E+04  0.00000000000E+00 0. -1.
         22    1    3    3    0    0 -0.67175179573E+02 -0.13109926514E+02  0.11048069844E+03  0.12996291645E+03  0.00000000000E+00 0.  1.
         22    1    3    3    0    0 -0.13391280900E+02  0.71192536618E+02  0.17167638379E+02  0.74447508230E+02  0.00000000000E+00 0.  1.
</event>
<event>
 7    1  0.5593520E-006  0.5394305E+02  0.7818608E-02  0.1486922E+00
          2   -1    0    0  502    0  0.00000000000E+00  0.00000000000E+00  0.83053480387E+03  0.83053480387E+03  0.00000000000E+00 0. -1.
          1   -1    0    0  501    0 -0.00000000000E+00 -0.00000000000E+00 -0.39695890815E+03  0.39695890815E+03  0.00000000000E+00 0. -1.
         25    2    1    2    0    0 -0.27569173864E+02  0.49140959041E+02 -0.29678729503E+03  0.32693058119E+03  0.12500405283E+03 0.  0.
          2    1    1    2  501    0 -0.60418138964E+01 -0.56229158706E+02 -0.75297931119E+02  0.94170060182E+02  0.00000000000E+00 0. -1.
          1    1    1    2  502    0  0.33610987760E+02  0.70881996647E+01  0.80566112187E+03  0.80639307064E+03  0.00000000000E+00 0. -1.
         22    1    3    3    0    0 -0.32372053802E+01  0.51888352201E+02 -0.29791571241E+03  0.30241800921E+03  0.00000000000E+00 0.  1.
         22    1    3    3    0    0 -0.24331968484E+02 -0.27473931603E+01  0.11284173807E+01  0.24512571984E+02  0.00000000000E+00 0.  1.
</event>
<event>
 7    1  0.5593520E-006  0.9703659E+02  0.7818608E-02  0.1347432E+00
          2   -1    0    0  502    0  0.00000000000E+00  0.00000000000E+00  0.19129350404E+04  0.19129350404E+04  0.00000000000E+00 0. -1.
          1   -1    0    0  501    0 -0.00000000000E+00 -0.00000000000E+00 -0.12241369209E+03  0.12241369209E+03  0.00000000000E+00 0. -1.
         25    2    1    2    0    0 -0.10257254421E+02  0.57659944667E+02  0.69178943412E+03  0.70542736742E+03  0.12500107627E+03 0.  0.
          2    1    1    2  501    0 -0.33952834911E+02 -0.92393004116E+02 -0.93856487632E+02  0.13600846473E+03  0.00000000000E+00 0. -1.
          1    1    1    2  502    0  0.44210089332E+02  0.34733059449E+02  0.11925884018E+04  0.11939129003E+04  0.00000000000E+00 0. -1.
         22    1    3    3    0    0  0.14459498255E+02  0.93210858387E+02  0.44794957886E+03  0.45777305121E+03  0.00000000000E+00 0.  1.
         22    1    3    3    0    0 -0.24716752677E+02 -0.35550913720E+02  0.24383985525E+03  0.24765431621E+03  0.00000000000E+00 0.  1.
</event>
<event>
 7    1  0.5593520E-006  0.8280300E+02  0.7818608E-02  0.1385531E+00
          2   -1    0    0  502    0  0.00000000000E+00  0.00000000000E+00  0.47651933072E+03  0.47651933072E+03  0.00000000000E+00 0. -1.
          1   -1    0    0  501    0 -0.00000000000E+00 -0.00000000000E+00 -0.13504102265E+04  0.13504102265E+04  0.00000000000E+00 0. -1.
         25    2    1    2    0    0 -0.42865313226E+02 -0.16981394861E+02 -0.73678494887E+03  0.74873576636E+03  0.12500953598E+03 0.  0.
          2    1    1    2  501    0 -0.39512847993E+02  0.27221277999E+02 -0.60302828866E+03  0.60493419482E+03  0.00000000000E+00 0. -1.
          1    1    1    2  502    0  0.82378161219E+02 -0.10239883137E+02  0.46592234178E+03  0.47325959602E+03  0.00000000000E+00 0. -1.
         22    1    3    3    0    0 -0.29594442050E+02 -0.71363651515E+02 -0.42363526251E+03  0.43062215154E+03  0.00000000000E+00 0.  1.
         22    1    3    3    0    0 -0.13270871176E+02  0.54382256654E+02 -0.31314968636E+03  0.31811361482E+03  0.00000000000E+00 0.  1.
</event>
<event>
 7    1  0.5593520E-006  0.9227238E+02  0.7818608E-02  0.1305274E+00
          2   -1    0    0  502    0  0.00000000000E+00  0.00000000000E+00  0.51680650743E+03  0.51680650743E+03  0.00000000000E+00 0. -1.
          1   -1    0    0  501    0 -0.00000000000E+00 -0.00000000000E+00 -0.12067544460E+03  0.12067544460E+03  0.00000000000E+00 0. -1.
         25    2    1    2    0    0  0.16282033821E+02  0.62050983919E+01  0.20349311235E+03  0.23944522540E+03  0.12498384425E+03 0.  0.
          2    1    1    2  501    0 -0.72421092783E+02 -0.71166401494E+02 -0.68940278595E+02  0.12272829093E+03  0.00000000000E+00 0. -1.
          1    1    1    2  502    0  0.56139058962E+02  0.64961303102E+02  0.26157822907E+03  0.27530843570E+03  0.00000000000E+00 0. -1.
         22    1    3    3    0    0 -0.13276252422E+02  0.23726864760E+02 -0.54212842727E+01  0.27723876224E+02  0.00000000000E+00 0. -1.
         22    1    3    3    0    0  0.29558286243E+02 -0.17521766368E+02  0.20891439662E+03  0.21172134918E+03  0.00000000000E+00 0. -1.
</event>
<event>
 7    1  0.5593520E-006  0.3239685E+02  0.7818608E-02  0.1611308E+00
          2   -1    0    0  502    0  0.00000000000E+00  0.00000000000E+00  0.57250074500E+03  0.57250074500E+03  0.00000000000E+00 0. -1.
          1   -1    0    0  501    0 -0.00000000000E+00 -0.00000000000E+00 -0.39050258364E+02  0.39050258364E+02  0.00000000000E+00 0. -1.
         25    2    1    2    0    0 -0.84470501987E+01 -0.43427019075E+02  0.32883552849E+03  0.35456381528E+03  0.12500174266E+03 0.  0.
          2    1    1    2  501    0 -0.13108949187E+02  0.29490407853E+02 -0.15203864607E+02  0.35674727793E+02  0.00000000000E+00 0. -1.
          1    1    1    2  502    0  0.21555999386E+02  0.13936611222E+02  0.21981882275E+03  0.22131246029E+03  0.00000000000E+00 0. -1.
         22    1    3    3    0    0  0.55911846927E+02 -0.33492496274E+02  0.19738055887E+03  0.20786285611E+03  0.00000000000E+00 0.  1.
         22    1    3    3    0    0 -0.64358897126E+02 -0.99345228014E+01  0.13145496962E+03  0.14670095917E+03  0.00000000000E+00 0.  1.
</event>
<event>
 7    1  0.5593520E-006  0.1144171E+03  0.7818608E-02  0.1297401E+00
          2   -1    0    0  502    0  0.00000000000E+00  0.00000000000E+00  0.56237200495E+03  0.56237200495E+03  0.00000000000E+00 0. -1.
          1   -1    0    0  501    0 -0.00000000000E+00 -0.00000000000E+00 -0.51432137929E+03  0.51432137929E+03  0.00000000000E+00 0. -1.
         25    2    1    2    0    0  0.14773199862E+03  0.69200817349E+02 -0.43905068969E+01  0.20556971809E+03  0.12500454354E+03 0.  0.
          2    1    1    2  501    0 -0.74583514031E+02 -0.83010330073E+02 -0.39862776255E+03  0.41395351012E+03  0.00000000000E+00 0. -1.
          1    1    1    2  502    0 -0.73148484587E+02  0.13809512725E+02  0.45106889511E+03  0.45717015604E+03  0.00000000000E+00 0. -1.
         22    1    3    3    0    0  0.10705118092E+03  0.10600964368E+03 -0.36633284650E+01  0.15070308512E+03  0.00000000000E+00 0. -1.
         22    1    3    3    0    0  0.40680817694E+02 -0.36808826332E+02 -0.72717843190E+00  0.54866632963E+02  0.00000000000E+00 0. -1.
</event>
<event>
 7    1  0.5593520E-006  0.1043290E+03  0.7818608E-02  0.1310218E+00
          2   -1    0    0  502    0  0.00000000000E+00  0.00000000000E+00  0.47031690802E+03  0.47031690802E+03  0.00000000000E+00 0. -1.
          1   -1    0    0  501    0 -0.00000000000E+00 -0.00000000000E+00 -0.88032062717E+03  0.88032062717E+03  0.00000000000E+00 0. -1.
         25    2    1    2    0    0  0.60011886168E+02 -0.14167028032E+03 -0.16811372929E+03  0.25992751182E+03  0.12501276182E+03 0.  0.
          2    1    1    2  501    0 -0.72739468240E+02  0.70202466225E+02 -0.65931497228E+03  0.66701997659E+03  0.00000000000E+00 0. -1.
          1    1    1    2  502    0  0.12727582072E+02  0.71467814093E+02  0.41742498242E+03  0.42369004678E+03  0.00000000000E+00 0. -1.
         22    1    3    3    0    0  0.46076901017E+02 -0.16137527432E+03 -0.12068757988E+03  0.20671369549E+03  0.00000000000E+00 0.  1.
         22    1    3    3    0    0  0.13934985151E+02  0.19704993999E+02 -0.47426149418E+02  0.53213816328E+02  0.00000000000E+00 0.  1.
</event>
<event>
 7    1  0.5593520E-006  0.4158452E+02  0.7818608E-02  0.1529667E+00
          2   -1    0    0  502    0  0.00000000000E+00  0.00000000000E+00  0.16773966573E+04  0.16773966573E+04  0.00000000000E+00 0. -1.
          1   -1    0    0  501    0 -0.00000000000E+00 -0.00000000000E+00 -0.63692914953E+02  0.63692914953E+02  0.00000000000E+00 0. -1.
         25    2    1    2    0    0  0.27130554452E+02  0.95339253239E+01  0.47439993983E+03  0.49143438633E+03  0.12500196172E+03 0.  0.
          2    1    1    2  501    0 -0.13253600285E+02 -0.39833919749E+02 -0.46922252915E+02  0.62961074496E+02  0.00000000000E+00 0. -1.
          1    1    1    2  502    0 -0.13876954167E+02  0.30299994425E+02  0.11862260554E+04  0.11866941114E+04  0.00000000000E+00 0. -1.
         22    1    3    3    0    0  0.49448928177E+01 -0.72572710179E+01 -0.57384760990E+01  0.10490474515E+02  0.00000000000E+00 0. -1.
         22    1    3    3    0    0  0.22185661635E+02  0.16791196342E+02  0.48013841593E+03  0.48094391181E+03  0.00000000000E+00 0. -1.
</event>
<event>
 7    1  0.5593520E-006  0.4526575E+02  0.7818608E-02  0.1585022E+00
          2   -1    0    0  502    0  0.00000000000E+00  0.00000000000E+00  0.21227096601E+03  0.21227096601E+03  0.00000000000E+00 0. -1.
          1   -1    0    0  501    0 -0.00000000000E+00 -0.00000000000E+00 -0.62460411133E+03  0.62460411133E+03  0.00000000000E+00 0. -1.
         25    2    1    2    0    0 -0.40273361729E+02 -0.30788312131E+02 -0.69340173036E+02  0.15166797937E+03  0.12500101016E+03 0.  0.
          2    1    1    2  501    0  0.44212018678E+02  0.96244040763E+01 -0.51242205967E+03  0.51441588135E+03  0.00000000000E+00 0. -1.
          1    1    1    2  502    0 -0.39386569484E+01  0.21163908055E+02  0.16942908738E+03  0.17079121662E+03  0.00000000000E+00 0. -1.
         22    1    3    3    0    0 -0.57693888277E+00 -0.71366040314E+02 -0.14677321951E+02  0.72861981501E+02  0.00000000000E+00 0. -1.
         22    1    3    3    0    0 -0.39696422847E+02  0.40577728184E+02 -0.54662851084E+02  0.78805997868E+02  0.00000000000E+00 0. -1.
</event>
<event>
 7    1  0.5668384E-006  0.5862832E+02  0.7818608E-02  0.1447382E+00
          2   -1    0    0  502    0  0.00000000000E+00  0.00000000000E+00  0.17813993968E+04  0.17813993968E+04  0.00000000000E+00 0. -1.
          1   -1    0    0  501    0 -0.00000000000E+00 -0.00000000000E+00 -0.41282113806E+03  0.41282113806E+03  0.00000000000E+00 0. -1.
         25    2    1    2    0    0 -0.59532776102E+02  0.26151862493E+02 -0.19168590932E+03  0.23790170868E+03  0.12500265524E+03 0.  0.
          2    1    1    2  501    0  0.30373288600E+01 -0.41892082283E+02 -0.19530496544E+03  0.19977037180E+03  0.00000000000E+00 0. -1.
          1    1    1    2  502    0  0.56495447241E+02  0.15740219791E+02  0.17555691335E+04  0.17565484544E+04  0.00000000000E+00 0. -1.
         22    1    3    3    0    0  0.26141510819E+02 -0.11836470962E+02 -0.10967366108E+03  0.11336574689E+03  0.00000000000E+00 0.  1.
         22    1    3    3    0    0 -0.85674286920E+02  0.37988333455E+02 -0.82012248242E+02  0.12453596179E+03  0.00000000000E+00 0.  1.
</event>
<event>
 7    1  0.5593520E-006  0.1183027E+03  0.7818608E-02  0.1409449E+00
          2   -1    0    0  502    0  0.00000000000E+00  0.00000000000E+00  0.15686926538E+03  0.15686926538E+03  0.00000000000E+00 0. -1.
          1   -1    0    0  501    0 -0.00000000000E+00 -0.00000000000E+00 -0.12107392327E+04  0.12107392327E+04  0.00000000000E+00 0. -1.
         25    2    1    2    0    0  0.23722452261E+01 -0.97130794901E+02 -0.38164750861E+03  0.41318269514E+03  0.12500039950E+03 0.  0.
          2    1    1    2  501    0 -0.67381706212E+01  0.12455528951E+03 -0.80711878536E+03  0.81670077554E+03  0.00000000000E+00 0. -1.
          1    1    1    2  502    0  0.43659253952E+01 -0.27424494610E+02  0.13489632669E+03  0.13772502737E+03  0.00000000000E+00 0. -1.
         22    1    3    3    0    0  0.20307302665E+02  0.21303796252E+02 -0.31487686984E+02  0.43101191490E+02  0.00000000000E+00 0. -1.
         22    1    3    3    0    0 -0.17935057439E+02 -0.11843459115E+03 -0.35015982162E+03  0.37008150365E+03  0.00000000000E+00 0. -1.
</event>
<event>
 7    1  0.5593520E-006  0.1493054E+03  0.7818608E-02  0.1291672E+00
          2   -1    0    0  502    0  0.00000000000E+00  0.00000000000E+00  0.72665850083E+03  0.72665850083E+03  0.00000000000E+00 0. -1.
          1   -1    0    0  501    0 -0.00000000000E+00 -0.00000000000E+00 -0.31831837304E+03  0.31831837304E+03  0.00000000000E+00 0. -1.
         25    2    1    2    0    0 -0.67886475929E+02 -0.10086253045E+03  0.14759661888E+03  0.22844626901E+03  0.12498444806E+03 0.  0.
          2    1    1    2  501    0  0.32844218940E+02  0.14977202539E+03 -0.25485967648E+03  0.29742874273E+03  0.00000000000E+00 0. -1.
          1    1    1    2  502    0  0.35042256989E+02 -0.48909494934E+02  0.51560318540E+03  0.51910186213E+03  0.00000000000E+00 0. -1.
         22    1    3    3    0    0 -0.29092802323E+02 -0.69926458137E+00 -0.15641340364E+02  0.33038336011E+02  0.00000000000E+00 0. -1.
         22    1    3    3    0    0 -0.38793673606E+02 -0.10016326587E+03  0.16323795924E+03  0.19540793300E+03  0.00000000000E+00 0. -1.
</event>
<event>
 7    1  0.5593520E-006  0.5572059E+02  0.7818608E-02  0.1421394E+00
          2   -1    0    0  502    0  0.00000000000E+00  0.00000000000E+00  0.60556954193E+03  0.60556954193E+03  0.00000000000E+00 0. -1.
          1   -1    0    0  501    0 -0.00000000000E+00 -0.00000000000E+00 -0.13451007504E+03  0.13451007504E+03  0.00000000000E+00 0. -1.
         25    2    1    2    0    0 -0.95957902506E+01 -0.31119414392E+01  0.15251865848E+03  0.19745821609E+03  0.12500417012E+03 0.  0.
          2    1    1    2  501    0  0.22791404909E+02 -0.51023628740E+02 -0.10312342590E+03  0.11729151631E+03  0.00000000000E+00 0. -1.
          1    1    1    2  502    0 -0.13195614659E+02  0.54135570179E+02  0.42166423431E+03  0.42532988456E+03  0.00000000000E+00 0. -1.
         22    1    3    3    0    0  0.57409708676E+02  0.56830558265E+01  0.74901433148E+02  0.94543093145E+02  0.00000000000E+00 0. -1.
         22    1    3    3    0    0 -0.67005498927E+02 -0.87949972657E+01  0.77617225331E+02  0.10291512295E+03  0.00000000000E+00 0. -1.
</event>
<event>
 7    1  0.5593520E-006  0.1009205E+03  0.7818608E-02  0.1388346E+00
          2   -1    0    0  502    0  0.00000000000E+00  0.00000000000E+00  0.54200584227E+02  0.54200584227E+02  0.00000000000E+00 0. -1.
          1   -1    0    0  501    0 -0.00000000000E+00 -0.00000000000E+00 -0.34357710656E+04  0.34357710656E+04  0.00000000000E+00 0. -1.
         25    2    1    2    0    0  0.58050999484E+02 -0.12074265252E+03 -0.58969604346E+03  0.61750705974E+03  0.12499935392E+03 0.  0.
          2    1    1    2  501    0 -0.25936591099E+02  0.28430391887E+02 -0.27725705814E+04  0.27728376481E+04  0.00000000000E+00 0. -1.
          1    1    1    2  502    0 -0.32114408386E+02  0.92312260629E+02 -0.19303856498E+02  0.99626941959E+02  0.00000000000E+00 0. -1.
         22    1    3    3    0    0  0.87829173860E+01  0.24434683731E+02 -0.14023704266E+03  0.14262055091E+03  0.00000000000E+00 0.  1.
         22    1    3    3    0    0  0.49268082098E+02 -0.14517733625E+03 -0.44945900080E+03  0.47488650883E+03  0.00000000000E+00 0.  1.
</event>
<event>
 7    1  0.5593520E-006  0.1538510E+03  0.7818608E-02  0.1198112E+00
          2   -1    0    0  502    0  0.00000000000E+00  0.00000000000E+00  0.11523460522E+04  0.11523460522E+04  0.00000000000E+00 0. -1.
          1   -1    0    0  501    0 -0.00000000000E+00 -0.00000000000E+00 -0.89401461959E+03  0.89401461959E+03  0.00000000000E+00 0. -1.
         25    2    1    2    0    0  0.14275219427E+03 -0.13217046837E+03  0.34953916761E+02  0.23387035295E+03  0.12500537595E+03 0.  0.
          2    1    1    2  501    0 -0.14828287012E+03 -0.22951527120E+02 -0.78145984162E+03  0.79573492209E+03  0.00000000000E+00 0. -1.
          1    1    1    2  502    0  0.55306758475E+01  0.15512199549E+03  0.10048373575E+04  0.10167553968E+04  0.00000000000E+00 0. -1.
         22    1    3    3    0    0 -0.98592356845E+01  0.14833575563E+02 -0.44071315540E+01  0.18348359621E+02  0.00000000000E+00 0.  1.
         22    1    3    3    0    0  0.15261142996E+03 -0.14700404393E+03  0.39361048315E+02  0.21552199333E+03  0.00000000000E+00 0.  1.
</event>
<event>
 7    1  0.5593520E-006  0.1260649E+03  0.7818608E-02  0.1420484E+00
          2   -1    0    0  502    0  0.00000000000E+00  0.00000000000E+00  0.97446074671E+03  0.97446074671E+03  0.00000000000E+00 0. -1.
          1   -1    0    0  501    0 -0.00000000000E+00 -0.00000000000E+00 -0.17361757360E+04  0.17361757360E+04  0.00000000000E+00 0. -1.
         25    2    1    2    0    0  0.99633537920E+02 -0.10663008085E+03 -0.18794598919E+03  0.26878456068E+03  0.12499851673E+03 0.  0.
          2    1    1    2  501    0 -0.22847450405E+02  0.70983753664E+01 -0.15034852111E+04  0.15036755544E+04  0.00000000000E+00 0. -1.
          1    1    1    2  502    0 -0.76786087514E+02  0.99531705485E+02  0.92971621104E+03  0.93817636759E+03  0.00000000000E+00 0. -1.
         22    1    3    3    0    0  0.11367942283E+03 -0.41675937526E+02 -0.91972479881E+02  0.15204878164E+03  0.00000000000E+00 0. -1.
         22    1    3    3    0    0 -0.14045884909E+02 -0.64954143325E+02 -0.95973509307E+02  0.11673577903E+03  0.00000000000E+00 0. -1.
</event>
<event>
 7    1  0.5593520E-006  0.1642849E+03  0.7818608E-02  0.1276901E+00
          2   -1    0    0  502    0  0.00000000000E+00  0.00000000000E+00  0.39924998103E+03  0.39924998103E+03  0.00000000000E+00 0. -1.
          1   -1    0    0  501    0 -0.00000000000E+00 -0.00000000000E+00 -0.64229832903E+03  0.64229832903E+03  0.00000000000E+00 0. -1.
         25    2    1    2    0    0  0.13748780756E+03 -0.33461656413E+02 -0.29979374887E+03  0.35429241920E+03  0.12499698702E+03 0.  0.
          2    1    1    2  501    0 -0.19106064279E+03  0.55379179994E+00 -0.28315673788E+03  0.34158778391E+03  0.00000000000E+00 0. -1.
          1    1    1    2  502    0  0.53572835222E+02  0.32907864613E+02  0.33990213876E+03  0.34566810694E+03  0.00000000000E+00 0. -1.
         22    1    3    3    0    0  0.19123113637E+02 -0.51101838269E+02 -0.38143484705E+02  0.66573393897E+02  0.00000000000E+00 0.  1.
         22    1    3    3    0    0  0.11836469393E+03  0.17640181856E+02 -0.26165026417E+03  0.28771902531E+03  0.00000000000E+00 0.  1.
</event>
<event>
 7    1  0.5593520E-006  0.4576600E+02  0.7818608E-02  0.1529048E+00
          2   -1    0    0  502    0  0.00000000000E+00  0.00000000000E+00  0.63209193291E+02  0.63209193291E+02  0.00000000000E+00 0. -1.
          1   -1    0    0  501    0 -0.00000000000E+00 -0.00000000000E+00 -0.45364434157E+03  0.45364434157E+03  0.00000000000E+00 0. -1.
         25    2    1    2    0    0 -0.73097810415E+02 -0.36059029204E+01 -0.64114078733E+02  0.15840268294E+03  0.12499800977E+03 0.  0.
          2    1    1    2  501    0  0.43574082787E+02  0.10876185573E+02 -0.32492394879E+03  0.32801305553E+03  0.00000000000E+00 0. -1.
          1    1    1    2  502    0  0.29523727628E+02 -0.72702826521E+01 -0.13971207631E+01  0.30437796394E+02  0.00000000000E+00 0. -1.
         22    1    3    3    0    0  0.19846578010E+02  0.55134447034E+01  0.22869607251E+02  0.30778298638E+02  0.00000000000E+00 0. -1.
         22    1    3    3    0    0 -0.92944388426E+02 -0.91193476239E+01 -0.86983685984E+02  0.12762438430E+03  0.00000000000E+00 0. -1.
</event>
<event>
 7    1  0.5593520E-006  0.3356072E+03  0.7818608E-02  0.1165770E+00
          2   -1    0    0  502    0  0.00000000000E+00  0.00000000000E+00  0.16319041689E+04  0.16319041689E+04  0.00000000000E+00 0. -1.
          1   -1    0    0  501    0 -0.00000000000E+00 -0.00000000000E+00 -0.60930814955E+03  0.60930814955E+03  0.00000000000E+00 0. -1.
         25    2    1    2    0    0 -0.51290552114E+02  0.28351347967E+03  0.10180661684E+03  0.33014942899E+03  0.12499377718E+03 0.  0.
          2    1    1    2  501    0  0.14273861777E+03 -0.32097887755E+03 -0.43079792747E+03  0.55586743666E+03  0.00000000000E+00 0. -1.
          1    1    1    2  502    0 -0.91448065651E+02  0.37465397870E+02  0.13515873300E+04  0.13551954528E+04  0.00000000000E+00 0. -1.
         22    1    3    3    0    0 -0.19482119879E+02  0.13404326350E+02  0.47133124700E+02  0.52732915753E+02  0.00000000000E+00 0.  1.
         22    1    3    3    0    0 -0.31808432235E+02  0.27010915333E+03  0.54673492139E+02  0.27741651323E+03  0.00000000000E+00 0.  1.
</event>
<event>
 7    1  0.5593520E-006  0.1375459E+03  0.7818608E-02  0.1282163E+00
          2   -1    0    0  502    0  0.00000000000E+00  0.00000000000E+00  0.64551886456E+03  0.64551886456E+03  0.00000000000E+00 0. -1.
          1   -1    0    0  501    0 -0.00000000000E+00 -0.00000000000E+00 -0.81212048341E+03  0.81212048341E+03  0.00000000000E+00 0. -1.
         25    2    1    2    0    0  0.59784497554E+02  0.19323525886E+03  0.70223655181E+02  0.24793171063E+03  0.12499887988E+03 0.  0.
          2    1    1    2  501    0 -0.25674770023E+02 -0.66650862184E+02 -0.71261559697E+03  0.71618609334E+03  0.00000000000E+00 0. -1.
          1    1    1    2  502    0 -0.34109727532E+02 -0.12658439668E+03  0.47579032294E+03  0.49352154401E+03  0.00000000000E+00 0. -1.
         22    1    3    3    0    0  0.55368675376E+02  0.20859974046E+03  0.78838578099E+02  0.22977176356E+03  0.00000000000E+00 0.  1.
         22    1    3    3    0    0  0.44158221785E+01 -0.15364481603E+02 -0.86149229179E+01  0.18159947063E+02  0.00000000000E+00 0.  1.
</event>
<event>
 7    1  0.5593520E-006  0.2785033E+03  0.7818608E-02  0.1169654E+00
          2   -1    0    0  502    0  0.00000000000E+00  0.00000000000E+00  0.67287888471E+03  0.67287888471E+03  0.00000000000E+00 0. -1.
          1   -1    0    0  501    0 -0.00000000000E+00 -0.00000000000E+00 -0.19601021083E+04  0.19601021083E+04  0.00000000000E+00 0. -1.
         25    2    1    2    0    0 -0.34704159437E+02  0.20575722241E+03  0.33656284515E+03  0.41525985050E+03  0.12500312574E+03 0.  0.
          2    1    1    2  501    0 -0.55534764605E+02 -0.27524718725E+03 -0.18991169408E+04  0.19197630788E+04  0.00000000000E+00 0. -1.
          1    1    1    2  502    0  0.90238924041E+02  0.69489964834E+02  0.27533087202E+03  0.29795806368E+03  0.00000000000E+00 0. -1.
         22    1    3    3    0    0 -0.68230983124E+02  0.85416451798E+02  0.21371241313E+03  0.24005089632E+03  0.00000000000E+00 0. -1.
         22    1    3    3    0    0  0.33526823687E+02  0.12034077061E+03  0.12285043201E+03  0.17520895418E+03  0.00000000000E+00 0. -1.
</event>
<event>
 7    1  0.5593520E-006  0.8507216E+02  0.7818608E-02  0.1388983E+00
          2   -1    0    0  502    0  0.00000000000E+00  0.00000000000E+00  0.98213294606E+02  0.98213294606E+02  0.00000000000E+00 0. -1.
          1   -1    0    0  501    0 -0.00000000000E+00 -0.00000000000E+00 -0.55454902860E+03  0.55454902860E+03  0.00000000000E+00 0. -1.
         25    2    1    2    0    0  0.11529973333E+03 -0.36282023135E+02 -0.26131210976E+03  0.31387633944E+03  0.12499569609E+03 0.  0.
          2    1    1    2  501    0 -0.70000029676E+02  0.32990694814E+02 -0.25338229268E+03  0.26493579664E+03  0.00000000000E+00 0. -1.
          1    1    1    2  502    0 -0.45299703651E+02  0.32913283215E+01  0.58358668449E+02  0.73950187127E+02  0.00000000000E+00 0. -1.
         22    1    3    3    0    0 -0.25428686449E+01 -0.14687058712E+02  0.95493515823E+01  0.17702146486E+02  0.00000000000E+00 0. -1.
         22    1    3    3    0    0  0.11784260197E+03 -0.21594964423E+02 -0.27086146135E+03  0.29617419295E+03  0.00000000000E+00 0. -1.
</event>
<event>
 7    1  0.5593520E-006  0.7529953E+02  0.7818608E-02  0.1358942E+00
          2   -1    0    0  502    0  0.00000000000E+00  0.00000000000E+00  0.35141597488E+03  0.35141597488E+03  0.00000000000E+00 0. -1.
          1   -1    0    0  501    0 -0.00000000000E+00 -0.00000000000E+00 -0.81495177460E+03  0.81495177460E+03  0.00000000000E+00 0. -1.
         25    2    1    2    0    0 -0.95013300116E+01  0.13425356785E+02  0.90961866311E+02  0.15545471467E+03  0.12498636612E+03 0.  0.
          2    1    1    2  501    0  0.75203557404E+02 -0.12683812535E+02 -0.77606748967E+03  0.77980587499E+03  0.00000000000E+00 0. -1.
          1    1    1    2  502    0 -0.65702227393E+02 -0.74154425010E+00  0.22156982364E+03  0.23110715982E+03  0.00000000000E+00 0. -1.
         22    1    3    3    0    0 -0.42054082117E+02 -0.35643675400E+02  0.77405013496E+02  0.95029224626E+02  0.00000000000E+00 0.  1.
         22    1    3    3    0    0  0.32552752105E+02  0.49069032185E+02  0.13556852815E+02  0.60425490047E+02  0.00000000000E+00 0.  1.
</event>
<event>
 7    1  0.5593520E-006  0.7071902E+02  0.7818608E-02  0.1510186E+00
          2   -1    0    0  502    0  0.00000000000E+00  0.00000000000E+00  0.36464260160E+02  0.36464260160E+02  0.00000000000E+00 0. -1.
          1   -1    0    0  501    0 -0.00000000000E+00 -0.00000000000E+00 -0.20294207793E+04  0.20294207793E+04  0.00000000000E+00 0. -1.
         25    2    1    2    0    0 -0.69002678461E+02 -0.56202483081E+02 -0.54857109120E+03  0.56962652403E+03  0.12499618410E+03 0.  0.
          2    1    1    2  501    0  0.21577091571E+02  0.57251760487E+01 -0.14238387175E+04  0.14240137085E+04  0.00000000000E+00 0. -1.
          1    1    1    2  502    0  0.47425586890E+02  0.50477307032E+02 -0.20546710417E+02  0.72244806913E+02  0.00000000000E+00 0. -1.
         22    1    3    3    0    0  0.12298521741E+02  0.18593811395E+02 -0.21046329563E+02  0.30658301441E+02  0.00000000000E+00 0. -1.
         22    1    3    3    0    0 -0.81301200201E+02 -0.74796294475E+02 -0.52752476164E+03  0.53896822259E+03  0.00000000000E+00 0. -1.
</event>
<event>
 7    1  0.5593520E-006  0.6085699E+02  0.7818608E-02  0.1434248E+00
          2   -1    0    0  502    0  0.00000000000E+00  0.00000000000E+00  0.17245789658E+04  0.17245789658E+04  0.00000000000E+00 0. -1.
          1   -1    0    0  501    0 -0.00000000000E+00 -0.00000000000E+00 -0.50998444650E+03  0.50998444650E+03  0.00000000000E+00 0. -1.
         25    2    1    2    0    0  0.84249539753E+02  0.41275434271E+02  0.27380357101E+03  0.31527088729E+03  0.12500276179E+03 0.  0.
          2    1    1    2  501    0 -0.39845804313E+02 -0.45781441630E+02 -0.48701846538E+03  0.49078571102E+03  0.00000000000E+00 0. -1.
          1    1    1    2  502    0 -0.44403735440E+02  0.45060073584E+01  0.14278094137E+04  0.14285068140E+04  0.00000000000E+00 0. -1.
         22    1    3    3    0    0  0.52461279552E+02  0.67015986830E+02  0.25756546746E+03  0.27126241607E+03  0.00000000000E+00 0.  1.
         22    1    3    3    0    0  0.31788260201E+02 -0.25740552558E+02  0.16238103546E+02  0.44008471223E+02  0.00000000000E+00 0.  1.
</event>
<event>
 7    1  0.5593520E-006  0.1685566E+03  0.7818608E-02  0.1277100E+00
          2   -1    0    0  502    0  0.00000000000E+00  0.00000000000E+00  0.10241899876E+04  0.10241899876E+04  0.00000000000E+00 0. -1.
          1   -1    0    0  501    0 -0.00000000000E+00 -0.00000000000E+00 -0.18628158635E+03  0.18628158635E+03  0.00000000000E+00 0. -1.
         25    2    1    2    0    0  0.15879851290E+03  0.14453533426E+02  0.10307993955E+03  0.22732429275E+03  0.12499995123E+03 0.  0.
          2    1    1    2  501    0 -0.16866661593E+03  0.45907974564E+02 -0.60872995692E+02  0.18509859822E+03  0.00000000000E+00 0. -1.
          1    1    1    2  502    0  0.98681030267E+01 -0.60361507990E+02  0.79570145738E+03  0.79804868297E+03  0.00000000000E+00 0. -1.
         22    1    3    3    0    0  0.50578846243E+02  0.64259482291E+02  0.27667072578E+02  0.86330571970E+02  0.00000000000E+00 0.  1.
         22    1    3    3    0    0  0.10821966666E+03 -0.49805948865E+02  0.75412866976E+02  0.14099372078E+03  0.00000000000E+00 0.  1.
</event>
<event>
 7    1  0.5593520E-006  0.5071863E+02  0.7818608E-02  0.1552146E+00
          2   -1    0    0  502    0  0.00000000000E+00  0.00000000000E+00  0.12034030372E+04  0.12034030372E+04  0.00000000000E+00 0. -1.
          1   -1    0    0  501    0 -0.00000000000E+00 -0.00000000000E+00 -0.53308795255E+02  0.53308795255E+02  0.00000000000E+00 0. -1.
         25    2    1    2    0    0  0.12890811449E+02 -0.27624611513E+02  0.13902962500E+03  0.18942916485E+03  0.12499951875E+03 0.  0.
          2    1    1    2  501    0 -0.19429856723E+02  0.50310292164E+02 -0.19749727522E+01  0.53968002995E+02  0.00000000000E+00 0. -1.
          1    1    1    2  502    0  0.65390452738E+01 -0.22685680651E+02  0.10130395897E+04  0.10133146646E+04  0.00000000000E+00 0. -1.
         22    1    3    3    0    0 -0.53469560855E+02 -0.28967864265E+02  0.80840189904E+02  0.10115961349E+03  0.00000000000E+00 0.  1.
         22    1    3    3    0    0  0.66360372304E+02  0.13432527523E+01  0.58189435097E+02  0.88269551360E+02  0.00000000000E+00 0.  1.
</event>
<event>
 7    1  0.5593520E-006  0.8955084E+02  0.7818608E-02  0.1358413E+00
          2   -1    0    0  502    0  0.00000000000E+00  0.00000000000E+00  0.17176726501E+04  0.17176726501E+04  0.00000000000E+00 0. -1.
          1   -1    0    0  501    0 -0.00000000000E+00 -0.00000000000E+00 -0.12580969688E+04  0.12580969688E+04  0.00000000000E+00 0. -1.
         25    2    1    2    0    0  0.13975210308E+03  0.33318915081E+02  0.13860655723E+02  0.19093974673E+03  0.12500027474E+03 0.  0.
          2    1    1    2  501    0 -0.84718783277E+02 -0.26165028117E+02 -0.11673990402E+04  0.11707614616E+04  0.00000000000E+00 0. -1.
          1    1    1    2  502    0 -0.55033319804E+02 -0.71538869636E+01  0.16131140658E+04  0.16140684105E+04  0.00000000000E+00 0. -1.
         22    1    3    3    0    0  0.14906951256E+03  0.50732935027E+02  0.35733600987E+02  0.16146962721E+03  0.00000000000E+00 0.  1.
         22    1    3    3    0    0 -0.93174094765E+01 -0.17414019946E+02 -0.21872945264E+02  0.29470119521E+02  0.00000000000E+00 0.  1.
</event>
<event>
 7    1  0.5593520E-006  0.1113474E+03  0.7818608E-02  0.1332680E+00
          2   -1    0    0  502    0  0.00000000000E+00  0.00000000000E+00  0.89286819776E+02  0.89286819776E+02  0.00000000000E+00 0. -1.
          1   -1    0    0  501    0 -0.00000000000E+00 -0.00000000000E+00 -0.85792706656E+03  0.85792706656E+03  0.00000000000E+00 0. -1.
         25    2    1    2    0    0  0.11057201086E+03 -0.20064173423E+02 -0.20249595986E+03  0.26317166283E+03  0.12500387882E+03 0.  0.
          2    1    1    2  501    0 -0.10748659009E+03 -0.35524893382E+02 -0.60541695115E+03  0.61590995270E+03  0.00000000000E+00 0. -1.
          1    1    1    2  502    0 -0.30854207678E+01  0.55589066805E+02  0.39272664219E+02  0.68132270800E+02  0.00000000000E+00 0. -1.
         22    1    3    3    0    0  0.16307995372E+02  0.39518947778E+02 -0.11091892635E+03  0.11887264685E+03  0.00000000000E+00 0.  1.
         22    1    3    3    0    0  0.94264015489E+02 -0.59583121201E+02 -0.91577033505E+02  0.14429901598E+03  0.00000000000E+00 0.  1.
</event>
<event>
 7    1  0.5593520E-006  0.1401351E+03  0.7818608E-02  0.1286669E+00
          2   -1    0    0  502    0  0.00000000000E+00  0.00000000000E+00  0.46909296822E+02  0.46909296822E+02  0.00000000000E+00 0. -1.
          1   -1    0    0  501    0 -0.00000000000E+00 -0.00000000000E+00 -0.17962484070E+04  0.17962484070E+04  0.00000000000E+00 0. -1.
         25    2    1    2    0    0  0.35754379583E+02 -0.96900908306E+02 -0.25383084146E+03  0.30119448635E+03  0.12497944167E+03 0.  0.
          2    1    1    2  501    0 -0.10235754950E+03  0.10571077301E+03 -0.14572302203E+04  0.14646404850E+04  0.00000000000E+00 0. -1.
          1    1    1    2  502    0  0.66603169919E+02 -0.88098647013E+01 -0.38278048409E+02  0.77322732423E+02  0.00000000000E+00 0. -1.
         22    1    3    3    0    0  0.12194439042E+02  0.19770421425E+02 -0.11941694706E+03  0.12165517314E+03  0.00000000000E+00 0.  1.
         22    1    3    3    0    0  0.23559940541E+02 -0.11667132973E+03 -0.13441389441E+03  0.17953931321E+03  0.00000000000E+00 0.  1.
</event>
<event>
 7    1  0.5593520E-006  0.8706302E+02  0.7818608E-02  0.1401348E+00
          2   -1    0    0  502    0  0.00000000000E+00  0.00000000000E+00  0.19268197591E+04  0.19268197591E+04  0.00000000000E+00 0. -1.
          1   -1    0    0  501    0 -0.00000000000E+00 -0.00000000000E+00 -0.38015181569E+02  0.38015181569E+02  0.00000000000E+00 0. -1.
         25    2    1    2    0    0 -0.51786722865E+02 -0.51398498234E+02  0.57541454960E+03  0.59333905178E+03  0.12500262475E+03 0.  0.
          2    1    1    2  501    0  0.84888359000E+02  0.28564506997E+02  0.41056718657E+02  0.98527248518E+02  0.00000000000E+00 0. -1.
          1    1    1    2  502    0 -0.33101636135E+02  0.22833991238E+02  0.12723333093E+04  0.12729686404E+04  0.00000000000E+00 0. -1.
         22    1    3    3    0    0  0.12087180916E+01 -0.21067728047E+02  0.47736147811E+03  0.47782767913E+03  0.00000000000E+00 0.  1.
         22    1    3    3    0    0 -0.52995440957E+02 -0.30330770187E+02  0.98053071492E+02  0.11551137265E+03  0.00000000000E+00 0.  1.
</event>
<event>
 7    1  0.5593520E-006  0.8051576E+02  0.7818608E-02  0.1379483E+00
          2   -1    0    0  502    0  0.00000000000E+00  0.00000000000E+00  0.16595018198E+04  0.16595018198E+04  0.00000000000E+00 0. -1.
          1   -1    0    0  501    0 -0.00000000000E+00 -0.00000000000E+00 -0.58524252329E+03  0.58524252329E+03  0.00000000000E+00 0. -1.
         25    2    1    2    0    0 -0.23147743256E+02 -0.11077980645E+03 -0.44741212327E+01  0.16867410115E+03  0.12499180414E+03 0.  0.
          2    1    1    2  501    0  0.40439875917E+02  0.32418677262E+02 -0.49629742608E+03  0.49899648228E+03  0.00000000000E+00 0. -1.
          1    1    1    2  502    0 -0.17292132661E+02  0.78361129189E+02  0.15750308439E+04  0.15770737597E+04  0.00000000000E+00 0. -1.
         22    1    3    3    0    0 -0.42514740563E+02 -0.33388761231E+02 -0.52664778289E+02  0.75471129672E+02  0.00000000000E+00 0. -1.
         22    1    3    3    0    0  0.19366997307E+02 -0.77391045220E+02  0.48190657056E+02  0.93202971479E+02  0.00000000000E+00 0. -1.
</event>
<event>
 7    1  0.5593520E-006  0.6309848E+02  0.7818608E-02  0.1543048E+00
          2   -1    0    0  502    0  0.00000000000E+00  0.00000000000E+00  0.37054035443E+03  0.37054035443E+03  0.00000000000E+00 0. -1.
          1   -1    0    0  501    0 -0.00000000000E+00 -0.00000000000E+00 -0.46237512625E+03  0.46237512625E+03  0.00000000000E+00 0. -1.
         25    2    1    2    0    0 -0.34171674640E+02 -0.75533164889E+02  0.14311588405E+03  0.20731634382E+03  0.12499979121E+03 0.  0.
          2    1    1    2  501    0  0.24677108871E+02  0.57790913134E+02 -0.42745332614E+03  0.43204756147E+03  0.00000000000E+00 0. -1.
          1    1    1    2  502    0  0.94945657685E+01  0.17742251755E+02  0.19250267027E+03  0.19355157540E+03  0.00000000000E+00 0. -1.
         22    1    3    3    0    0 -0.80140722542E+02 -0.40650920323E+02  0.68512864622E+02  0.11300020067E+03  0.00000000000E+00 0. -1.
         22    1    3    3    0    0  0.45969047902E+02 -0.34882244566E+02  0.74603019427E+02  0.94316143150E+02  0.00000000000E+00 0. -1.
</event>
<event>
 7    1  0.5593520E-006  0.1601814E+03  0.7818608E-02  0.1276878E+00
          2   -1    0    0  502    0  0.00000000000E+00  0.00000000000E+00  0.26381950603E+04  0.26381950603E+04  0.00000000000E+00 0. -1.
          1   -1    0    0  501    0 -0.00000000000E+00 -0.00000000000E+00 -0.73981261492E+03  0.73981261492E+03  0.00000000000E+00 0. -1.
         25    2    1    2    0    0 -0.17803792914E+03 -0.10103813905E+02 -0.57702951916E+03  0.61675684132E+03  0.12500537616E+03 0.  0.
          2    1    1    2  501    0  0.13094946520E+03 -0.33971075576E+02 -0.11041279786E+03  0.17462182665E+03  0.00000000000E+00 0. -1.
          1    1    1    2  502    0  0.47088463932E+02  0.44074889482E+02  0.25858247624E+04  0.25866290072E+04  0.00000000000E+00 0. -1.
         22    1    3    3    0    0 -0.45943356178E+02  0.51739682886E+02 -0.23375401966E+03  0.24378008219E+03  0.00000000000E+00 0. -1.
         22    1    3    3    0    0 -0.13209457296E+03 -0.61843496791E+02 -0.34327549950E+03  0.37297675913E+03  0.00000000000E+00 0. -1.
</event>
<event>
 7    1  0.5593520E-006  0.9730967E+02  0.7818608E-02  0.1305836E+00
          2   -1    0    0  502    0  0.00000000000E+00  0.00000000000E+00  0.17191710714E+04  0.17191710714E+04  0.00000000000E+00 0. -1.
          1   -1    0    0  501    0 -0.00000000000E+00 -0.00000000000E+00 -0.24836795365E+04  0.24836795365E+04  0.00000000000E+00 0. -1.
         25    2    1    2    0    0  0.16917958963E+02  0.14393297895E+03  0.37951180803E+03  0.42503788550E+03  0.12500028765E+03 0.  0.
          2    1    1    2  501    0  0.42049910960E+02 -0.69225500206E+02 -0.24585290519E+04  0.24598628954E+04  0.00000000000E+00 0. -1.
          1    1    1    2  502    0 -0.58967869923E+02 -0.74707478748E+02  0.13145087788E+04  0.13179498270E+04  0.00000000000E+00 0. -1.
         22    1    3    3    0    0 -0.47344160823E+02  0.86255371548E+02  0.14589988916E+03  0.17597794277E+03  0.00000000000E+00 0.  1.
         22    1    3    3    0    0  0.64262119786E+02  0.57677607406E+02  0.23361191887E+03  0.24905994273E+03  0.00000000000E+00 0.  1.
</event>
<event>
 7    1  0.5593520E-006  0.3779383E+02  0.7818608E-02  0.1568398E+00
          2   -1    0    0  502    0  0.00000000000E+00  0.00000000000E+00  0.40788878283E+03  0.40788878283E+03  0.00000000000E+00 0. -1.
          1   -1    0    0  501    0 -0.00000000000E+00 -0.00000000000E+00 -0.44893793219E+03  0.44893793219E+03  0.00000000000E+00 0. -1.
         25    2    1    2    0    0 -0.32880986425E+02  0.29368710809E+02  0.62315778632E+02  0.14647005796E+03  0.12500616453E+03 0.  0.
          2    1    1    2  501    0  0.37807249533E+02 -0.12134491249E+01 -0.40530518518E+03  0.40706652246E+03  0.00000000000E+00 0. -1.
          1    1    1    2  502    0 -0.49262631076E+01 -0.28155261684E+02  0.30194025719E+03  0.30329013459E+03  0.00000000000E+00 0. -1.
         22    1    3    3    0    0  0.32718584640E+02  0.13074746369E+02 -0.19559065806E+02  0.40299030121E+02  0.00000000000E+00 0. -1.
         22    1    3    3    0    0 -0.65599571066E+02  0.16293964440E+02  0.81874844438E+02  0.10617102784E+03  0.00000000000E+00 0. -1.
</event>
<event>
 7    1  0.5593520E-006  0.1133929E+03  0.7818608E-02  0.1376699E+00
          2   -1    0    0  502    0  0.00000000000E+00  0.00000000000E+00  0.56903201877E+02  0.56903201877E+02  0.00000000000E+00 0. -1.
          1   -1    0    0  501    0 -0.00000000000E+00 -0.00000000000E+00 -0.21563161613E+04  0.21563161613E+04  0.00000000000E+00 0. -1.
         25    2    1    2    0    0 -0.13144118049E+03  0.31967742997E+02 -0.15414755711E+03  0.24017849252E+03  0.12500207352E+03 0.  0.
          2    1    1    2  501    0  0.99797562893E+02 -0.52369168194E+02 -0.19285610695E+04  0.19318514130E+04  0.00000000000E+00 0. -1.
          1    1    1    2  502    0  0.31643617600E+02  0.20401425198E+02 -0.16704332850E+02  0.41189457642E+02  0.00000000000E+00 0. -1.
         22    1    3    3    0    0 -0.13956632923E+03  0.34384233506E+02 -0.77958487903E+02  0.16351930041E+03  0.00000000000E+00 0. -1.
         22    1    3    3    0    0  0.81251487389E+01 -0.24164905091E+01 -0.76189069210E+02  0.76659192113E+02  0.00000000000E+00 0. -1.
</event>
<event>
 7    1  0.5593520E-006  0.2853133E+03  0.7818608E-02  0.1115738E+00
          2   -1    0    0  502    0  0.00000000000E+00  0.00000000000E+00  0.12840266446E+04  0.12840266446E+04  0.00000000000E+00 0. -1.
          1   -1    0    0  501    0 -0.00000000000E+00 -0.00000000000E+00 -0.18769351658E+03  0.18769351658E+03  0.00000000000E+00 0. -1.
         25    2    1    2    0    0  0.42655211206E+02 -0.13653657834E+03  0.21025636759E+03  0.28335956841E+03  0.12499280231E+03 0.  0.
          2    1    1    2  501    0  0.27088157098E+03  0.89592589469E+02  0.44133469860E+02  0.28870646122E+03  0.00000000000E+00 0. -1.
          1    1    1    2  502    0 -0.31353678219E+03  0.46943988868E+02  0.84194329060E+03  0.89965413158E+03  0.00000000000E+00 0. -1.
         22    1    3    3    0    0  0.83317489790E+02 -0.59735371966E+02  0.10310712079E+03  0.14540012767E+03  0.00000000000E+00 0. -1.
         22    1    3    3    0    0 -0.40662278583E+02 -0.76801206371E+02  0.10714924680E+03  0.13795944074E+03  0.00000000000E+00 0. -1.
</event>
<event>
 7    1  0.5593520E-006  0.1510207E+03  0.7818608E-02  0.1322086E+00
          2   -1    0    0  502    0  0.00000000000E+00  0.00000000000E+00  0.28720002549E+03  0.28720002549E+03  0.00000000000E+00 0. -1.
          1   -1    0    0  501    0 -0.00000000000E+00 -0.00000000000E+00 -0.75310060629E+03  0.75310060629E+03  0.00000000000E+00 0. -1.
         25    2    1    2    0    0 -0.14209246372E+03 -0.39743915155E+02  0.10100204182E+03  0.21816703053E+03  0.12500237486E+03 0.  0.
          2    1    1    2  501    0  0.95631151162E+01 -0.44048800684E+02 -0.64527059852E+03  0.64684302217E+03  0.00000000000E+00 0. -1.
          1    1    1    2  502    0  0.13252934861E+03  0.83792715839E+02  0.78367975904E+02  0.17529057909E+03  0.00000000000E+00 0. -1.
         22    1    3    3    0    0 -0.77216275289E+02  0.31675149613E+02  0.74809754621E+01  0.83795186415E+02  0.00000000000E+00 0.  1.
         22    1    3    3    0    0 -0.64876188433E+02 -0.71419064768E+02  0.93521066354E+02  0.13437184411E+03  0.00000000000E+00 0.  1.
</event>
<event>
 7    1  0.5593520E-006  0.4658941E+02  0.7818608E-02  0.1467811E+00
          2   -1    0    0  502    0  0.00000000000E+00  0.00000000000E+00  0.12352817213E+04  0.12352817213E+04  0.00000000000E+00 0. -1.
          1   -1    0    0  501    0 -0.00000000000E+00 -0.00000000000E+00 -0.26542840166E+03  0.26542840166E+03  0.00000000000E+00 0. -1.
         25    2    1    2    0    0 -0.43931292291E+02 -0.37262578494E+02  0.54100093868E+03  0.55823335055E+03  0.12499599918E+03 0.  0.
          2    1    1    2  501    0 -0.63956732181E+00  0.46623073217E+02 -0.25393086096E+03  0.25817630052E+03  0.00000000000E+00 0. -1.
          1    1    1    2  502    0  0.44570859613E+02 -0.93604947229E+01  0.68278324194E+03  0.68430047192E+03  0.00000000000E+00 0. -1.
         22    1    3    3    0    0 -0.11758602911E+02 -0.57354970160E+02  0.49571491220E+03  0.49916042664E+03  0.00000000000E+00 0. -1.
         22    1    3    3    0    0 -0.32172689380E+02  0.20092391665E+02  0.45286026481E+02  0.59072923910E+02  0.00000000000E+00 0. -1.
</event>
<event>
 7    1  0.5593520E-006  0.1837613E+03  0.7818608E-02  0.1324947E+00
          2   -1    0    0  502    0  0.00000000000E+00  0.00000000000E+00  0.85244136449E+03  0.85244136449E+03  0.00000000000E+00 0. -1.
          1   -1    0    0  501    0 -0.00000000000E+00 -0.00000000000E+00 -0.10201811438E+04  0.10201811438E+04  0.00000000000E+00 0. -1.
         25    2    1    2    0    0 -0.15732133008E+03  0.57296583691E+02  0.51533272646E+03  0.55608156481E+03  0.12500395335E+03 0.  0.
          2    1    1    2  501    0  0.18152061808E+03 -0.30489114654E+02 -0.99026851532E+03  0.10072293946E+04  0.00000000000E+00 0. -1.
          1    1    1    2  502    0 -0.24199287998E+02 -0.26807469037E+02  0.30719600959E+03  0.30931154884E+03  0.00000000000E+00 0. -1.
         22    1    3    3    0    0 -0.13512583295E+03  0.70217237601E+02  0.27472542878E+03  0.31410748543E+03  0.00000000000E+00 0.  1.
         22    1    3    3    0    0 -0.22195497128E+02 -0.12920653910E+02  0.24060729768E+03  0.24197407937E+03  0.00000000000E+00 0.  1.
</event>
<event>
 7    1  0.5593520E-006  0.5037964E+02  0.7818608E-02  0.1574461E+00
          2   -1    0    0  502    0  0.00000000000E+00  0.00000000000E+00  0.64864775467E+03  0.64864775467E+03  0.00000000000E+00 0. -1.
          1   -1    0    0  501    0 -0.00000000000E+00 -0.00000000000E+00 -0.15739622820E+03  0.15739622820E+03  0.00000000000E+00 0. -1.
         25    2    1    2    0    0 -0.96797483203E+01 -0.34872814984E+02 -0.29032855297E+02  0.13333798503E+03  0.12500520314E+03 0.  0.
          2    1    1    2  501    0  0.13552889822E+02 -0.15574690206E+02 -0.73717056914E+02  0.76553617012E+02  0.00000000000E+00 0. -1.
          1    1    1    2  502    0 -0.38731415020E+01  0.50447505189E+02  0.59400143868E+03  0.59615238083E+03  0.00000000000E+00 0. -1.
         22    1    3    3    0    0  0.31003121252E+02 -0.69841318489E+02 -0.19347903468E+02  0.78824771895E+02  0.00000000000E+00 0. -1.
         22    1    3    3    0    0 -0.40682869572E+02  0.34968503506E+02 -0.96849518290E+01  0.54513213132E+02  0.00000000000E+00 0. -1.
</event>
<event>
 7    1  0.5593520E-006  0.7657592E+02  0.7818608E-02  0.1417104E+00
          2   -1    0    0  502    0  0.00000000000E+00  0.00000000000E+00  0.23599708711E+03  0.23599708711E+03  0.00000000000E+00 0. -1.
          1   -1    0    0  501    0 -0.00000000000E+00 -0.00000000000E+00 -0.39370117753E+03  0.39370117753E+03  0.00000000000E+00 0. -1.
         25    2    1    2    0    0 -0.10299196630E+03 -0.23740304521E+02  0.88455062892E+02  0.18606081101E+03  0.12499352008E+03 0.  0.
          2    1    1    2  501    0  0.33394686007E+02  0.22782184218E+02 -0.33124848150E+03  0.33370614239E+03  0.00000000000E+00 0. -1.
          1    1    1    2  502    0  0.69597280298E+02  0.95812030299E+00  0.85089328189E+02  0.10993131124E+03  0.00000000000E+00 0. -1.
         22    1    3    3    0    0 -0.67600620300E+02 -0.10236803544E+02  0.11910491902E+03  0.13733396429E+03  0.00000000000E+00 0. -1.
         22    1    3    3    0    0 -0.35391346004E+02 -0.13503500977E+02 -0.30649856132E+02  0.48726846723E+02  0.00000000000E+00 0. -1.
</event>
<event>
 7    1  0.6125948E-006  0.9513833E+02  0.7818608E-02  0.1347174E+00
          2   -1    0    0  502    0  0.00000000000E+00  0.00000000000E+00  0.12225819041E+04  0.12225819041E+04  0.00000000000E+00 0. -1.
          1   -1    0    0  501    0 -0.00000000000E+00 -0.00000000000E+00 -0.10934294727E+04  0.10934294727E+04  0.00000000000E+00 0. -1.
         25    2    1    2    0    0 -0.47248221699E+02 -0.13013776419E+03 -0.57920191281E+02  0.19531572558E+03  0.12500100792E+03 0.  0.
          2    1    1    2  501    0  0.45134787226E+02  0.35577279701E+02 -0.96401602147E+03  0.96572759177E+03  0.00000000000E+00 0. -1.
          1    1    1    2  502    0  0.21134344732E+01  0.94560484484E+02  0.11510886441E+04  0.11549680595E+04  0.00000000000E+00 0. -1.
         22    1    3    3    0    0  0.23503737099E+02 -0.99120314896E+02 -0.59642047198E+02  0.11804421323E+03  0.00000000000E+00 0.  1.
         22    1    3    3    0    0 -0.70751958797E+02 -0.31017449289E+02  0.17218559168E+01  0.77271512356E+02  0.00000000000E+00 0.  1.
</event>
<event>
 7    1  0.5593520E-006  0.1206753E+03  0.7818608E-02  0.1423483E+00
          2   -1    0    0  502    0  0.00000000000E+00  0.00000000000E+00  0.46481769033E+03  0.46481769033E+03  0.00000000000E+00 0. -1.
          1   -1    0    0  501    0 -0.00000000000E+00 -0.00000000000E+00 -0.69268919593E+03  0.69268919593E+03  0.00000000000E+00 0. -1.
         25    2    1    2    0    0  0.41086729455E+02  0.10993950823E+03  0.15533414702E+03  0.23136199296E+03  0.12499943899E+03 0.  0.
          2    1    1    2  501    0 -0.21787785432E+02  0.11039367487E+02 -0.64060930412E+03  0.64107476612E+03  0.00000000000E+00 0. -1.
          1    1    1    2  502    0 -0.19298944023E+02 -0.12097887572E+03  0.25740365149E+03  0.28507012718E+03  0.00000000000E+00 0. -1.
         22    1    3    3    0    0 -0.32727689504E+02  0.68310107914E+02  0.11451552433E+03  0.13729959146E+03  0.00000000000E+00 0. -1.
         22    1    3    3    0    0  0.73814418959E+02  0.41629400319E+02  0.40818622695E+02  0.94062401499E+02  0.00000000000E+00 0. -1.
</event>
<event>
 7    1  0.5593520E-006  0.8238239E+02  0.7818608E-02  0.1386929E+00
          2   -1    0    0  502    0  0.00000000000E+00  0.00000000000E+00  0.25230148773E+03  0.25230148773E+03  0.00000000000E+00 0. -1.
          1   -1    0    0  501    0 -0.00000000000E+00 -0.00000000000E+00 -0.48494191120E+03  0.48494191120E+03  0.00000000000E+00 0. -1.
         25    2    1    2    0    0  0.54616987925E+02 -0.74379805753E+02  0.63061133624E+02  0.16768044963E+03  0.12499862295E+03 0.  0.
          2    1    1    2  501    0 -0.76100232829E+02  0.31808428520E+02 -0.42438640101E+03  0.43232723592E+03  0.00000000000E+00 0. -1.
          1    1    1    2  502    0  0.21483244904E+02  0.42571377232E+02  0.12868484392E+03  0.13723571338E+03  0.00000000000E+00 0. -1.
         22    1    3    3    0    0  0.54758633183E+02  0.11685544331E+02  0.59264582919E+02  0.81531286283E+02  0.00000000000E+00 0.  1.
         22    1    3    3    0    0 -0.14164525766E+00 -0.86065350083E+02  0.37965507051E+01  0.86149163348E+02  0.00000000000E+00 0.  1.
</event>
<event>
 7    1  0.5593520E-006  0.1823749E+03  0.7818608E-02  0.1286936E+00
          2   -1    0    0  502    0  0.00000000000E+00  0.00000000000E+00  0.20216114986E+04  0.20216114986E+04  0.00000000000E+00 0. -1.
          1   -1    0    0  501    0 -0.00000000000E+00 -0.00000000000E+00 -0.11221763792E+04  0.11221763792E+04  0.00000000000E+00 0. -1.
         25    2    1    2    0    0 -0.12351248399E+03 -0.69201070064E+02  0.37406332887E+03  0.41903720130E+03  0.12499872109E+03 0.  0.
          2    1    1    2  501    0 -0.47744872019E+02 -0.19287856451E+02 -0.10933647431E+04  0.10945766559E+04  0.00000000000E+00 0. -1.
          1    1    1    2  502    0  0.17125735601E+03  0.88488926516E+02  0.16187365337E+04  0.16301740206E+04  0.00000000000E+00 0. -1.
         22    1    3    3    0    0  0.43449256768E+01 -0.30922585069E+02  0.12514178300E+02  0.33640590141E+02  0.00000000000E+00 0. -1.
         22    1    3    3    0    0 -0.12785740966E+03 -0.38278484995E+02  0.36154915057E+03  0.38539661116E+03  0.00000000000E+00 0. -1.
</event>
<event>
 7    1  0.5593520E-006  0.4202459E+02  0.7818608E-02  0.1565786E+00
          2   -1    0    0  502    0  0.00000000000E+00  0.00000000000E+00  0.12038282815E+04  0.12038282815E+04  0.00000000000E+00 0. -1.
          1   -1    0    0  501    0 -0.00000000000E+00 -0.00000000000E+00 -0.12579320979E+03  0.12579320979E+03  0.00000000000E+00 0. -1.
         25    2    1    2    0    0  0.25063592702E+02 -0.37339354549E+01  0.17458272976E+03  0.21620804095E+03  0.12499864594E+03 0.  0.
          2    1    1    2  501    0  0.12951222536E+02  0.22695246501E+02 -0.10289943098E+03  0.10616544295E+03  0.00000000000E+00 0. -1.
          1    1    1    2  502    0 -0.38014815239E+02 -0.18961311046E+02  0.10063517729E+04  0.10072480074E+04  0.00000000000E+00 0. -1.
         22    1    3    3    0    0 -0.20158893799E+02  0.40265220127E+02  0.13356696419E+03  0.14095319391E+03  0.00000000000E+00 0. -1.
         22    1    3    3    0    0  0.45222486501E+02 -0.43999155582E+02  0.41015765569E+02  0.75254847037E+02  0.00000000000E+00 0. -1.
</event>
<event>
 7    1  0.5593520E-006  0.1543275E+03  0.7818608E-02  0.1298909E+00
          2   -1    0    0  502    0  0.00000000000E+00  0.00000000000E+00  0.95139542219E+03  0.95139542219E+03  0.00000000000E+00 0. -1.
          1   -1    0    0  501    0 -0.00000000000E+00 -0.00000000000E+00 -0.97122982472E+03  0.97122982472E+03  0.00000000000E+00 0. -1.
         25    2    1    2    0    0 -0.20407745863E+03  0.30495852663E+02  0.18288777192E+03  0.30273801853E+03  0.12499905838E+03 0.  0.
          2    1    1    2  501    0  0.14966289942E+03 -0.31589334673E+02 -0.90382409777E+03  0.91667598924E+03  0.00000000000E+00 0. -1.
          1    1    1    2  502    0  0.54414559203E+02  0.10934820102E+01  0.70110192333E+03  0.70321123914E+03  0.00000000000E+00 0. -1.
         22    1    3    3    0    0 -0.14312209380E+03 -0.15257009191E+02  0.55443158181E+02  0.15424219219E+03  0.00000000000E+00 0.  1.
         22    1    3    3    0    0 -0.60955364830E+02  0.45752861853E+02  0.12744461374E+03  0.14849582634E+03  0.00000000000E+00 0.  1.
</event>
<event>
 7    1  0.5593520E-006  0.1392205E+03  0.7818608E-02  0.1406673E+00
          2   -1    0    0  502    0  0.00000000000E+00  0.00000000000E+00  0.15848575045E+04  0.15848575045E+04  0.00000000000E+00 0. -1.
          1   -1    0    0  501    0 -0.00000000000E+00 -0.00000000000E+00 -0.42295168374E+03  0.42295168374E+03  0.00000000000E+00 0. -1.
         25    2    1    2    0    0  0.10027555089E+03 -0.86167766049E+02  0.55147828018E+02  0.19012174244E+03  0.12499969601E+03 0.  0.
          2    1    1    2  501    0 -0.11173469398E+02 -0.21370901666E+02 -0.35171628921E+03  0.35254206834E+03  0.00000000000E+00 0. -1.
          1    1    1    2  502    0 -0.89102081496E+02  0.10753866772E+03  0.14584742820E+04  0.14651453775E+04  0.00000000000E+00 0. -1.
         22    1    3    3    0    0  0.21777188150E+02 -0.55395852424E+02 -0.33069586912E+02  0.68092172590E+02  0.00000000000E+00 0. -1.
         22    1    3    3    0    0  0.78498362744E+02 -0.30771913625E+02  0.88217414931E+02  0.12202956985E+03  0.00000000000E+00 0. -1.
</event>
<event>
 7    1  0.5593520E-006  0.4688061E+02  0.7818608E-02  0.1479655E+00
          2   -1    0    0  502    0  0.00000000000E+00  0.00000000000E+00  0.24600221742E+04  0.24600221742E+04  0.00000000000E+00 0. -1.
          1   -1    0    0  501    0 -0.00000000000E+00 -0.00000000000E+00 -0.91794349038E+02  0.91794349038E+02  0.00000000000E+00 0. -1.
         25    2    1    2    0    0  0.15982792159E+02 -0.23161094635E+02  0.18172390727E+03  0.22235209568E+03  0.12499996012E+03 0.  0.
          2    1    1    2  501    0 -0.48067539797E+02 -0.33132491180E+01 -0.63146828740E+02  0.79429138115E+02  0.00000000000E+00 0. -1.
          1    1    1    2  502    0  0.32084747637E+02  0.26474343753E+02  0.22496507467E+04  0.22500352895E+04  0.00000000000E+00 0. -1.
         22    1    3    3    0    0  0.19673077309E+02 -0.72540078774E+02  0.83446080854E+02  0.11230468115E+03  0.00000000000E+00 0.  1.
         22    1    3    3    0    0 -0.36902851491E+01  0.49378984140E+02  0.98277826412E+02  0.11004741452E+03  0.00000000000E+00 0.  1.
</event>
<event>
 7    1  0.5593520E-006  0.1761896E+03  0.7818608E-02  0.1301463E+00
          2   -1    0    0  502    0  0.00000000000E+00  0.00000000000E+00  0.11459290292E+04  0.11459290292E+04  0.00000000000E+00 0. -1.
          1   -1    0    0  501    0 -0.00000000000E+00 -0.00000000000E+00 -0.23862896837E+03  0.23862896837E+03  0.00000000000E+00 0. -1.
         25    2    1    2    0    0 -0.14780866104E+03 -0.11377334094E+03  0.21708794946E+03  0.31232064036E+03  0.12500092482E+03 0.  0.
          2    1    1    2  501    0  0.39803961714E+02 -0.24161574209E+02 -0.17930251247E+03  0.18524990692E+03  0.00000000000E+00 0. -1.
          1    1    1    2  502    0  0.10800469933E+03  0.13793491515E+03  0.86951462388E+03  0.88698745033E+03  0.00000000000E+00 0. -1.
         22    1    3    3    0    0 -0.53149876905E+02 -0.10842174468E+03  0.77155422532E+02  0.14329390553E+03  0.00000000000E+00 0. -1.
         22    1    3    3    0    0 -0.94658784134E+02 -0.53515962643E+01  0.13993252693E+03  0.16902673484E+03  0.00000000000E+00 0. -1.
</event>
<event>
 7    1  0.5593520E-006  0.1047512E+03  0.7818608E-02  0.1458772E+00
          2   -1    0    0  502    0  0.00000000000E+00  0.00000000000E+00  0.28972178949E+04  0.28972178949E+04  0.00000000000E+00 0. -1.
          1   -1    0    0  501    0 -0.00000000000E+00 -0.00000000000E+00 -0.11505666764E+04  0.11505666764E+04  0.00000000000E+00 0. -1.
         25    2    1    2    0    0 -0.11134015856E+03 -0.36254310936E+02  0.39189694997E+03  0.42769022912E+03  0.12499882687E+03 0.  0.
          2    1    1    2  501    0  0.18609827597E+02 -0.11012230877E+02 -0.11314779051E+04  0.11316845164E+04  0.00000000000E+00 0. -1.
          1    1    1    2  502    0  0.92730330966E+02  0.47266541813E+02  0.24862321736E+04  0.24884098258E+04  0.00000000000E+00 0. -1.
         22    1    3    3    0    0 -0.45394051602E+02 -0.79783668239E+02  0.19480351102E+03  0.21534730447E+03  0.00000000000E+00 0. -1.
         22    1    3    3    0    0 -0.65946106961E+02  0.43529357303E+02  0.19709343896E+03  0.21234292465E+03  0.00000000000E+00 0. -1.
</event>
<event>
 7    1  0.5593520E-006  0.2777502E+02  0.7818608E-02  0.1629727E+00
          2   -1    0    0  502    0  0.00000000000E+00  0.00000000000E+00  0.15621824724E+03  0.15621824724E+03  0.00000000000E+00 0. -1.
          1   -1    0    0  501    0 -0.00000000000E+00 -0.00000000000E+00 -0.19216261275E+03  0.19216261275E+03  0.00000000000E+00 0. -1.
         25    2    1    2    0    0  0.42161529442E+01  0.81174383982E+01  0.15914509825E+02  0.12633768473E+03  0.12499708080E+03 0.  0.
          2    1    1    2  501    0 -0.26259548905E+02  0.90491987904E+01 -0.13318567585E+03  0.13605100573E+03  0.00000000000E+00 0. -1.
          1    1    1    2  502    0  0.22043395961E+02 -0.17166637189E+02  0.81326800514E+02  0.85992169526E+02  0.00000000000E+00 0. -1.
         22    1    3    3    0    0 -0.52155986215E+01 -0.28548828265E+02  0.60947598244E+02  0.67504427973E+02  0.00000000000E+00 0.  1.
         22    1    3    3    0    0  0.94317515658E+01  0.36666266664E+02 -0.45033088419E+02  0.58833256762E+02  0.00000000000E+00 0.  1.
</event>
<event>
 7    1  0.5593520E-006  0.1484021E+03  0.7818608E-02  0.1299694E+00
          2   -1    0    0  502    0  0.00000000000E+00  0.00000000000E+00  0.56708717359E+03  0.56708717359E+03  0.00000000000E+00 0. -1.
          1   -1    0    0  501    0 -0.00000000000E+00 -0.00000000000E+00 -0.15259158754E+03  0.15259158754E+03  0.00000000000E+00 0. -1.
         25    2    1    2    0    0  0.17240117529E+02  0.14584271485E+03 -0.31917336202E+02  0.19547954931E+03  0.12500487479E+03 0.  0.
          2    1    1    2  501    0 -0.73186559149E+02 -0.14061538166E+03  0.13637400373E+03  0.20910960497E+03  0.00000000000E+00 0. -1.
          1    1    1    2  502    0  0.55946441619E+02 -0.52273331954E+01  0.31003891853E+03  0.31508960685E+03  0.00000000000E+00 0. -1.
         22    1    3    3    0    0  0.23179762962E+02  0.68414929977E+02 -0.77087359495E+02  0.10564262894E+03  0.00000000000E+00 0. -1.
         22    1    3    3    0    0 -0.59396454328E+01  0.77427784877E+02  0.45170023293E+02  0.89836920378E+02  0.00000000000E+00 0. -1.
</event>
<event>
 7    1  0.5593520E-006  0.3726503E+02  0.7818608E-02  0.1610050E+00
          2   -1    0    0  502    0  0.00000000000E+00  0.00000000000E+00  0.58042384576E+03  0.58042384576E+03  0.00000000000E+00 0. -1.
          1   -1    0    0  501    0 -0.00000000000E+00 -0.00000000000E+00 -0.34592647672E+02  0.34592647672E+02  0.00000000000E+00 0. -1.
         25    2    1    2    0    0 -0.17797681255E+02  0.39567726499E+02  0.53399001954E+03  0.55013848948E+03  0.12499861681E+03 0.  0.
          2    1    1    2  501    0  0.30683834080E+02 -0.21144244731E+02 -0.38485998251E+01  0.37461826967E+02  0.00000000000E+00 0. -1.
          1    1    1    2  502    0 -0.12886152825E+02 -0.18423481768E+02  0.15689778382E+02  0.27416176990E+02  0.00000000000E+00 0. -1.
         22    1    3    3    0    0  0.23238453216E+02  0.30238878285E+01  0.14092860353E+02  0.27345535621E+02  0.00000000000E+00 0. -1.
         22    1    3    3    0    0 -0.41036134471E+02  0.36543838670E+02  0.51989715918E+03  0.52279295386E+03  0.00000000000E+00 0. -1.
</event>
<event>
 7    1  0.5593520E-006  0.1450725E+03  0.7818608E-02  0.1244210E+00
          2   -1    0    0  502    0  0.00000000000E+00  0.00000000000E+00  0.10940452105E+04  0.10940452105E+04  0.00000000000E+00 0. -1.
          1   -1    0    0  501    0 -0.00000000000E+00 -0.00000000000E+00 -0.49876052055E+03  0.49876052055E+03  0.00000000000E+00 0. -1.
         25    2    1    2    0    0  0.41623051586E+02 -0.11517879242E+03 -0.10117678561E+03  0.20214147514E+03  0.12500320549E+03 0.  0.
          2    1    1    2  501    0 -0.13557428322E+03  0.86772062827E+02 -0.32596241861E+03  0.36353992284E+03  0.00000000000E+00 0. -1.
          1    1    1    2  502    0  0.93951231630E+02  0.28406729588E+02  0.10224238942E+04  0.10271243330E+04  0.00000000000E+00 0. -1.
         22    1    3    3    0    0 -0.13120906270E+02  0.10839318734E+02  0.14636189436E+02  0.22446983164E+02  0.00000000000E+00 0. -1.
         22    1    3    3    0    0  0.54743957856E+02 -0.12601811115E+03 -0.11581297504E+03  0.17969449198E+03  0.00000000000E+00 0. -1.
</event>
<event>
 7    1  0.5593520E-006  0.4528588E+02  0.7818608E-02  0.1552417E+00
          2   -1    0    0  502    0  0.00000000000E+00  0.00000000000E+00  0.56782855216E+03  0.56782855216E+03  0.00000000000E+00 0. -1.
          1   -1    0    0  501    0 -0.00000000000E+00 -0.00000000000E+00 -0.82969762638E+02  0.82969762638E+02  0.00000000000E+00 0. -1.
         25    2    1    2    0    0  0.10371132736E+02  0.19082116686E+02  0.13715567465E+03  0.18683744753E+03  0.12499946055E+03 0.  0.
          2    1    1    2  501    0  0.22237377812E+02  0.14220872663E+02 -0.53712774404E+02  0.59848110458E+02  0.00000000000E+00 0. -1.
          1    1    1    2  502    0 -0.32608510548E+02 -0.33302989349E+02  0.40141588927E+03  0.40411275681E+03  0.00000000000E+00 0. -1.
         22    1    3    3    0    0 -0.22540221592E+02  0.29008124936E+02 -0.80589219042E+01  0.37609561603E+02  0.00000000000E+00 0.  1.
         22    1    3    3    0    0  0.32911354328E+02 -0.99260082500E+01  0.14521459656E+03  0.14922788592E+03  0.00000000000E+00 0.  1.
</event>
<event>
 7    1  0.5593520E-006  0.4499239E+02  0.7818608E-02  0.1478158E+00
          2   -1    0    0  502    0  0.00000000000E+00  0.00000000000E+00  0.28743858698E+03  0.28743858698E+03  0.00000000000E+00 0. -1.
          1   -1    0    0  501    0 -0.00000000000E+00 -0.00000000000E+00 -0.97302943197E+03  0.97302943197E+03  0.00000000000E+00 0. -1.
         25    2    1    2    0    0 -0.10330674283E+02  0.32299217312E+01 -0.25676905257E+03  0.28578396727E+03  0.12499989746E+03 0.  0.
          2    1    1    2  501    0  0.12417529861E+02  0.42007545648E+02 -0.69918428836E+03  0.70055513561E+03  0.00000000000E+00 0. -1.
          1    1    1    2  502    0 -0.20868555773E+01 -0.45237467379E+02  0.27036249593E+03  0.27412891607E+03  0.00000000000E+00 0. -1.
         22    1    3    3    0    0  0.40852332739E+01  0.16537188826E+01  0.13974145223E+02  0.14652667052E+02  0.00000000000E+00 0.  1.
         22    1    3    3    0    0 -0.14415907557E+02  0.15762028486E+01 -0.27074319779E+03  0.27113130022E+03  0.00000000000E+00 0.  1.
</event>
<event>
 7    1  0.5593520E-006  0.6735525E+02  0.7818608E-02  0.1425462E+00
          2   -1    0    0  502    0  0.00000000000E+00  0.00000000000E+00  0.13598260203E+04  0.13598260203E+04  0.00000000000E+00 0. -1.
          1   -1    0    0  501    0 -0.00000000000E+00 -0.00000000000E+00 -0.54988563238E+03  0.54988563238E+03  0.00000000000E+00 0. -1.
         25    2    1    2    0    0  0.98292865896E+01 -0.43689498764E+02  0.48706029432E+03  0.50483594425E+03  0.12500485239E+03 0.  0.
          2    1    1    2  501    0 -0.52896463754E+02  0.41920267945E+02 -0.53835166101E+03  0.54256599198E+03  0.00000000000E+00 0. -1.
          1    1    1    2  502    0  0.43067177164E+02  0.17692308191E+01  0.86123175464E+03  0.86230971647E+03  0.00000000000E+00 0. -1.
         22    1    3    3    0    0  0.32012773387E+02  0.69978594508E+01  0.40219271975E+03  0.40352542859E+03  0.00000000000E+00 0. -1.
         22    1    3    3    0    0 -0.22183486797E+02 -0.50687358214E+02  0.84867574574E+02  0.10131051566E+03  0.00000000000E+00 0. -1.
</event>
<event>
 7    1  0.5593520E-006  0.4682376E+02  0.7818608E-02  0.1509511E+00
          2   -1    0    0  502    0  0.00000000000E+00  0.00000000000E+00  0.80018127954E+02  0.80018127954E+02  0.00000000000E+00 0. -1.
          1   -1    0    0  501    0 -0.00000000000E+00 -0.00000000000E+00 -0.10753631779E+04  0.10753631779E+04  0.00000000000E+00 0. -1.
         25    2    1    2    0    0 -0.35833625385E+02 -0.25344702242E+02 -0.22334306842E+02  0.13434416466E+03  0.12499252248E+03 0.  0.
          2    1    1    2  501    0  0.46476948034E+02 -0.68102472570E+01 -0.98423489773E+03  0.98535517459E+03  0.00000000000E+00 0. -1.
          1    1    1    2  502    0 -0.10643322649E+02  0.32154949499E+02  0.11224154624E+02  0.35681966612E+02  0.00000000000E+00 0. -1.
         22    1    3    3    0    0 -0.51271508473E+02 -0.67845954350E+02 -0.27982727783E+01  0.85086258780E+02  0.00000000000E+00 0.  1.
         22    1    3    3    0    0  0.15437883087E+02  0.42501252107E+02 -0.19536034064E+02  0.49257905882E+02  0.00000000000E+00 0.  1.
</event>
<event>
 7    1  0.5593520E-006  0.1549339E+03  0.7818608E-02  0.1282887E+00
          2   -1    0    0  502    0  0.00000000000E+00  0.00000000000E+00  0.25210188888E+03  0.25210188888E+03  0.00000000000E+00 0. -1.
          1   -1    0    0  501    0 -0.00000000000E+00 -0.00000000000E+00 -0.91849276445E+03  0.91849276445E+03  0.00000000000E+00 0. -1.
         25    2    1    2    0    0  0.17351497707E+03 -0.21572199505E+02 -0.79251757745E+03  0.82114969006E+03  0.12501958191E+03 0.  0.
          2    1    1    2  501    0 -0.11064232262E+03  0.25174433885E+02 -0.76769496257E+02  0.13700011398E+03  0.00000000000E+00 0. -1.
          1    1    1    2  502    0 -0.62872654453E+02 -0.36022343808E+01  0.20289619813E+03  0.21244484928E+03  0.00000000000E+00 0. -1.
         22    1    3    3    0    0  0.18786139558E+03  0.81120601349E+00 -0.71136092042E+03  0.73574922434E+03  0.00000000000E+00 0.  1.
         22    1    3    3    0    0 -0.14346418507E+02 -0.22383405518E+02 -0.81156657028E+02  0.85400465728E+02  0.00000000000E+00 0.  1.
</event>
<event>
 7    1  0.5593520E-006  0.1524151E+03  0.7818608E-02  0.1286855E+00
          2   -1    0    0  502    0  0.00000000000E+00  0.00000000000E+00  0.37259569632E+03  0.37259569632E+03  0.00000000000E+00 0. -1.
          1   -1    0    0  501    0 -0.00000000000E+00 -0.00000000000E+00 -0.42633733197E+03  0.42633733197E+03  0.00000000000E+00 0. -1.
         25    2    1    2    0    0 -0.97909700082E+02  0.14667222523E+03 -0.17637366037E+02  0.21687538654E+03  0.12499922234E+03 0.  0.
          2    1    1    2  501    0  0.12011248936E+03 -0.89145900111E+02 -0.28702983645E+03  0.32366669371E+03  0.00000000000E+00 0. -1.
          1    1    1    2  502    0 -0.22202789275E+02 -0.57526325117E+02  0.25092556684E+03  0.25839094803E+03  0.00000000000E+00 0. -1.
         22    1    3    3    0    0 -0.61675242577E+02  0.96273182501E+02 -0.71365986388E+02  0.13477932048E+03  0.00000000000E+00 0. -1.
         22    1    3    3    0    0 -0.36234457505E+02  0.50399042728E+02  0.53728620351E+02  0.82096066065E+02  0.00000000000E+00 0. -1.
</event>
<event>
 7    1  0.5593520E-006  0.5790024E+02  0.7818608E-02  0.1497848E+00
          2   -1    0    0  502    0  0.00000000000E+00  0.00000000000E+00  0.97342284479E+03  0.97342284479E+03  0.00000000000E+00 0. -1.
          1   -1    0    0  501    0 -0.00000000000E+00 -0.00000000000E+00 -0.11806126128E+04  0.11806126128E+04  0.00000000000E+00 0. -1.
         25    2    1    2    0    0 -0.67746514799E+02  0.34105131457E+02  0.40094996574E+02  0.15160924329E+03  0.12500001457E+03 0.  0.
          2    1    1    2  501    0  0.39268152557E+02 -0.42410127378E+02 -0.11238619699E+04  0.11253472060E+04  0.00000000000E+00 0. -1.
          1    1    1    2  502    0  0.28478362242E+02  0.83049959209E+01  0.87657720526E+03  0.87707900833E+03  0.00000000000E+00 0. -1.
         22    1    3    3    0    0  0.35562792249E+02  0.50119805467E+01  0.23718190345E+02  0.43039338921E+02  0.00000000000E+00 0. -1.
         22    1    3    3    0    0 -0.10330930705E+03  0.29093150910E+02  0.16376806229E+02  0.10856990437E+03  0.00000000000E+00 0. -1.
</event>
<event>
 7    1  0.5593520E-006  0.7058409E+02  0.7818608E-02  0.1505779E+00
          2   -1    0    0  502    0  0.00000000000E+00  0.00000000000E+00  0.22836211207E+04  0.22836211207E+04  0.00000000000E+00 0. -1.
          1   -1    0    0  501    0 -0.00000000000E+00 -0.00000000000E+00 -0.22663374885E+02  0.22663374885E+02  0.00000000000E+00 0. -1.
         25    2    1    2    0    0  0.60173109601E+02  0.41406070695E+02  0.82491169728E+03  0.83751987994E+03  0.12499990069E+03 0.  0.
          2    1    1    2  501    0 -0.67874321435E+02 -0.19684534509E+02  0.60513955473E+02  0.93039471280E+02  0.00000000000E+00 0. -1.
          1    1    1    2  502    0  0.77012118337E+01 -0.21721536186E+02  0.13755320931E+04  0.13757251444E+04  0.00000000000E+00 0. -1.
         22    1    3    3    0    0 -0.19842733802E+02  0.22847033151E+02  0.51303302321E+02  0.59562990502E+02  0.00000000000E+00 0. -1.
         22    1    3    3    0    0  0.80015843403E+02  0.18559037544E+02  0.77360839496E+03  0.77795688944E+03  0.00000000000E+00 0. -1.
</event>
<event>
 7    1  0.5593520E-006  0.1040554E+03  0.7818608E-02  0.1427465E+00
          2   -1    0    0  502    0  0.00000000000E+00  0.00000000000E+00  0.28461717096E+03  0.28461717096E+03  0.00000000000E+00 0. -1.
          1   -1    0    0  501    0 -0.00000000000E+00 -0.00000000000E+00 -0.83804629150E+03  0.83804629150E+03  0.00000000000E+00 0. -1.
         25    2    1    2    0    0 -0.53573749592E+02 -0.71622991424E+02  0.10906142373E+03  0.18846725433E+03  0.12500204903E+03 0.  0.
          2    1    1    2  501    0 -0.26084240036E+02 -0.86412961819E+01 -0.77452509647E+03  0.77501237709E+03  0.00000000000E+00 0. -1.
          1    1    1    2  502    0  0.79657989628E+02  0.80264287606E+02  0.11203455221E+03  0.15918383104E+03  0.00000000000E+00 0. -1.
         22    1    3    3    0    0 -0.78214397866E+02 -0.54717273329E+01  0.80334550917E+02  0.11225449614E+03  0.00000000000E+00 0.  1.
         22    1    3    3    0    0  0.24640648274E+02 -0.66151264091E+02  0.28726872815E+02  0.76212758184E+02  0.00000000000E+00 0.  1.
</event>
<event>
 7    1  0.5593520E-006  0.3957878E+02  0.7818608E-02  0.1548345E+00
          2   -1    0    0  502    0  0.00000000000E+00  0.00000000000E+00  0.95325600166E+03  0.95325600166E+03  0.00000000000E+00 0. -1.
          1   -1    0    0  501    0 -0.00000000000E+00 -0.00000000000E+00 -0.59980202218E+03  0.59980202218E+03  0.00000000000E+00 0. -1.
         25    2    1    2    0    0  0.14604661089E+00 -0.44560314332E+02  0.21363562286E+03  0.25149175973E+03  0.12498913117E+03 0.  0.
          2    1    1    2  501    0  0.26770679300E+02  0.29178352227E+02 -0.57986498848E+03  0.58121549392E+03  0.00000000000E+00 0. -1.
          1    1    1    2  502    0 -0.26916725910E+02  0.15381962105E+02  0.71968334510E+03  0.72035077019E+03  0.00000000000E+00 0. -1.
         22    1    3    3    0    0  0.28399684076E+02 -0.15447768652E+02  0.20804251155E+03  0.21053945527E+03  0.00000000000E+00 0. -1.
         22    1    3    3    0    0 -0.28253637465E+02 -0.29112545680E+02  0.55931113098E+01  0.40952304455E+02  0.00000000000E+00 0. -1.
</event>
<event>
 7    1  0.5593520E-006  0.5388958E+02  0.7818608E-02  0.1497399E+00
          2   -1    0    0  502    0  0.00000000000E+00  0.00000000000E+00  0.68526083799E+03  0.68526083799E+03  0.00000000000E+00 0. -1.
          1   -1    0    0  501    0 -0.00000000000E+00 -0.00000000000E+00 -0.47294650498E+02  0.47294650498E+02  0.00000000000E+00 0. -1.
         25    2    1    2    0    0 -0.73634924679E+00 -0.40708372925E+02  0.32107246893E+03  0.34694382940E+03  0.12499910647E+03 0.  0.
          2    1    1    2  501    0 -0.31196549572E+02 -0.69947520214E+01 -0.23963132187E+02  0.39954761484E+02  0.00000000000E+00 0. -1.
          1    1    1    2  502    0  0.31932898819E+02  0.47703124946E+02  0.34085685076E+03  0.34565689761E+03  0.00000000000E+00 0. -1.
         22    1    3    3    0    0 -0.49682599163E+02 -0.46666849310E+02  0.25818358734E+03  0.26702981155E+03  0.00000000000E+00 0.  1.
         22    1    3    3    0    0  0.48946249916E+02  0.59584763851E+01  0.62888881583E+02  0.79914017848E+02  0.00000000000E+00 0.  1.
</event>
<event>
 7    1  0.5593520E-006  0.5952616E+02  0.7818608E-02  0.1519719E+00
          2   -1    0    0  502    0  0.00000000000E+00  0.00000000000E+00  0.18976044562E+03  0.18976044562E+03  0.00000000000E+00 0. -1.
          1   -1    0    0  501    0 -0.00000000000E+00 -0.00000000000E+00 -0.19427464593E+03  0.19427464593E+03  0.00000000000E+00 0. -1.
         25    2    1    2    0    0  0.18849103176E+02  0.32824870432E+02  0.98681688049E+02  0.16369636783E+03  0.12500265788E+03 0.  0.
          2    1    1    2  501    0 -0.40615298919E+02 -0.44861226693E+02 -0.15307462751E+03  0.16460247189E+03  0.00000000000E+00 0. -1.
          1    1    1    2  502    0  0.21766195743E+02  0.12036356261E+02  0.49878739150E+02  0.55736251833E+02  0.00000000000E+00 0. -1.
         22    1    3    3    0    0  0.27363740101E+02 -0.23425407085E+02  0.10051633281E+03  0.10677573287E+03  0.00000000000E+00 0. -1.
         22    1    3    3    0    0 -0.85146369252E+01  0.56250277517E+02 -0.18346447603E+01  0.56920634959E+02  0.00000000000E+00 0. -1.
</event>
<event>
 7    1  0.5593520E-006  0.8114514E+02  0.7818608E-02  0.1337164E+00
          2   -1    0    0  502    0  0.00000000000E+00  0.00000000000E+00  0.22630040182E+04  0.22630040182E+04  0.00000000000E+00 0. -1.
          1   -1    0    0  501    0 -0.00000000000E+00 -0.00000000000E+00 -0.35638452226E+03  0.35638452226E+03  0.00000000000E+00 0. -1.
         25    2    1    2    0    0  0.28810895141E+02 -0.26332996215E+02  0.70861681381E+03  0.72061620785E+03  0.12500574324E+03 0.  0.
          2    1    1    2  501    0  0.23217306574E+02  0.78197855351E+02 -0.34475129191E+03  0.35427023750E+03  0.00000000000E+00 0. -1.
          1    1    1    2  502    0 -0.52028201715E+02 -0.51864859136E+02  0.15427539740E+04  0.15445020951E+04  0.00000000000E+00 0. -1.
         22    1    3    3    0    0  0.51768759658E+02  0.30117713393E+02  0.49060549145E+03  0.49424774090E+03  0.00000000000E+00 0.  1.
         22    1    3    3    0    0 -0.22957864517E+02 -0.56450709608E+02  0.21801132235E+03  0.22636846696E+03  0.00000000000E+00 0.  1.
</event>
<event>
 7    1  0.5593520E-006  0.1254040E+03  0.7818608E-02  0.1368980E+00
          2   -1    0    0  502    0  0.00000000000E+00  0.00000000000E+00  0.45702680047E+03  0.45702680047E+03  0.00000000000E+00 0. -1.
          1   -1    0    0  501    0 -0.00000000000E+00 -0.00000000000E+00 -0.52367410464E+03  0.52367410464E+03  0.00000000000E+00 0. -1.
         25    2    1    2    0    0  0.16549311552E+02  0.13024669400E+03 -0.34330265107E+03  0.38822505859E+03  0.12499561943E+03 0.  0.
          2    1    1    2  501    0 -0.47854029882E+02 -0.11190842795E+03 -0.13353765191E+03  0.18068151234E+03  0.00000000000E+00 0. -1.
          1    1    1    2  502    0  0.31304718330E+02 -0.18338266051E+02  0.41019299881E+03  0.41179433418E+03  0.00000000000E+00 0. -1.
         22    1    3    3    0    0  0.34715069630E+02 -0.12135479762E+02 -0.87284531718E+02  0.94715338809E+02  0.00000000000E+00 0.  1.
         22    1    3    3    0    0 -0.18165758078E+02  0.14238217376E+03 -0.25601811935E+03  0.29350971978E+03  0.00000000000E+00 0.  1.
</event>
<event>
 7    1  0.5593520E-006  0.2532713E+03  0.7818608E-02  0.1248408E+00
          2   -1    0    0  502    0  0.00000000000E+00  0.00000000000E+00  0.16448589867E+04  0.16448589867E+04  0.00000000000E+00 0. -1.
          1   -1    0    0  501    0 -0.00000000000E+00 -0.00000000000E+00 -0.80365202392E+03  0.80365202392E+03  0.00000000000E+00 0. -1.
         25    2    1    2    0    0 -0.30035750830E+03  0.36765026921E+01  0.11806320812E+03  0.34610973777E+03  0.12499952001E+03 0.  0.
          2    1    1    2  501    0  0.52169223286E+02  0.13543187204E+02 -0.67759776169E+03  0.67973801749E+03  0.00000000000E+00 0. -1.
          1    1    1    2  502    0  0.24818828501E+03 -0.17219689896E+02  0.14007415164E+04  0.14226632554E+04  0.00000000000E+00 0. -1.
         22    1    3    3    0    0 -0.15385544381E+03 -0.58213863711E+02  0.41782176346E+02  0.16972360407E+03  0.00000000000E+00 0.  1.
         22    1    3    3    0    0 -0.14650206449E+03  0.61890366403E+02  0.76281031776E+02  0.17638613370E+03  0.00000000000E+00 0.  1.
</event>
<event>
 7    1  0.5593520E-006  0.9226988E+02  0.7818608E-02  0.1481492E+00
          2   -1    0    0  502    0  0.00000000000E+00  0.00000000000E+00  0.10234112259E+04  0.10234112259E+04  0.00000000000E+00 0. -1.
          1   -1    0    0  501    0 -0.00000000000E+00 -0.00000000000E+00 -0.35854031262E+03  0.35854031262E+03  0.00000000000E+00 0. -1.
         25    2    1    2    0    0  0.82493159036E+02 -0.68067133880E+02 -0.31853541774E+01  0.16454113680E+03  0.12500153286E+03 0.  0.
          2    1    1    2  501    0 -0.77389860056E+02  0.47838353160E+02 -0.26702349489E+03  0.28209793565E+03  0.00000000000E+00 0. -1.
          1    1    1    2  502    0 -0.51032989800E+01  0.20228780721E+02  0.93507976235E+03  0.93531246607E+03  0.00000000000E+00 0. -1.
         22    1    3    3    0    0  0.68950333351E+02 -0.10060989253E+03 -0.22979821170E+02  0.12411515268E+03  0.00000000000E+00 0. -1.
         22    1    3    3    0    0  0.13542825686E+02  0.32542758654E+02  0.19794466993E+02  0.40425984118E+02  0.00000000000E+00 0. -1.
</event>
<event>
 7    1  0.5593520E-006  0.3644756E+02  0.7818608E-02  0.1577010E+00
          2   -1    0    0  502    0  0.00000000000E+00  0.00000000000E+00  0.18372127115E+04  0.18372127115E+04  0.00000000000E+00 0. -1.
          1   -1    0    0  501    0 -0.00000000000E+00 -0.00000000000E+00 -0.68738531744E+01  0.68738531744E+01  0.00000000000E+00 0. -1.
         25    2    1    2    0    0 -0.96378230786E+01 -0.10750276329E+02  0.97133542237E+03  0.97945255423E+03  0.12500538851E+03 0.  0.
          2    1    1    2  501    0  0.24026925858E+01 -0.27986616187E+02  0.82877524232E+02  0.87508328976E+02  0.00000000000E+00 0. -1.
          1    1    1    2  502    0  0.72351304928E+01  0.38736892515E+02  0.77612591174E+03  0.77712568149E+03  0.00000000000E+00 0. -1.
         22    1    3    3    0    0 -0.19118033091E+02  0.26831018477E+01  0.19378624992E+02  0.27353780934E+02  0.00000000000E+00 0. -1.
         22    1    3    3    0    0  0.94802100126E+01 -0.13433378176E+02  0.95195679738E+03  0.95209877329E+03  0.00000000000E+00 0. -1.
</event>
<event>
 7    1  0.5593520E-006  0.7611629E+02  0.7818608E-02  0.1371732E+00
          2   -1    0    0  502    0  0.00000000000E+00  0.00000000000E+00  0.67583543483E+02  0.67583543483E+02  0.00000000000E+00 0. -1.
          1   -1    0    0  501    0 -0.00000000000E+00 -0.00000000000E+00 -0.12837337991E+04  0.12837337991E+04  0.00000000000E+00 0. -1.
         25    2    1    2    0    0 -0.40054796862E+02  0.67730747346E+02 -0.18608316444E+03  0.23757997761E+03  0.12500184313E+03 0.  0.
          2    1    1    2  501    0 -0.35926368624E+02 -0.46077070736E+02 -0.10330245665E+04  0.10346755798E+04  0.00000000000E+00 0. -1.
          1    1    1    2  502    0  0.75981165487E+02 -0.21653676610E+02  0.29574753073E+01  0.79061785204E+02  0.00000000000E+00 0. -1.
         22    1    3    3    0    0  0.39511890158E+01 -0.21374579372E+01 -0.14550849140E+03  0.14557782006E+03  0.00000000000E+00 0. -1.
         22    1    3    3    0    0 -0.44005985878E+02  0.69868205283E+02 -0.40574673034E+02  0.92002157553E+02  0.00000000000E+00 0. -1.
</event>
<event>
 7    1  0.5593520E-006  0.7459892E+02  0.7818608E-02  0.1465677E+00
          2   -1    0    0  502    0  0.00000000000E+00  0.00000000000E+00  0.83125032394E+03  0.83125032394E+03  0.00000000000E+00 0. -1.
          1   -1    0    0  501    0 -0.00000000000E+00 -0.00000000000E+00 -0.25512734774E+03  0.25512734774E+03  0.00000000000E+00 0. -1.
         25    2    1    2    0    0 -0.42036383671E+02 -0.19022445429E+02  0.41937173935E+03  0.44003148847E+03  0.12500457631E+03 0.  0.
          2    1    1    2  501    0  0.67457865161E+02  0.32733295373E+02 -0.23851663475E+03  0.25002443330E+03  0.00000000000E+00 0. -1.
          1    1    1    2  502    0 -0.25421481490E+02 -0.13710849943E+02  0.39526787160E+03  0.39632174990E+03  0.00000000000E+00 0. -1.
         22    1    3    3    0    0  0.21084578033E+02 -0.55562237170E+02  0.21376573063E+03  0.22187273204E+03  0.00000000000E+00 0. -1.
         22    1    3    3    0    0 -0.63120961705E+02  0.36539791740E+02  0.20560600872E+03  0.21815875643E+03  0.00000000000E+00 0. -1.
</event>
<event>
 7    1  0.7559270E-006  0.1063635E+03  0.7818608E-02  0.1399927E+00
          2   -1    0    0  502    0  0.00000000000E+00  0.00000000000E+00  0.20408922430E+04  0.20408922430E+04  0.00000000000E+00 0. -1.
          1   -1    0    0  501    0 -0.00000000000E+00 -0.00000000000E+00 -0.25197192953E+04  0.25197192953E+04  0.00000000000E+00 0. -1.
         25    2    1    2    0    0 -0.59900820003E+02  0.44437432004E+02 -0.20200027432E+03  0.24898284139E+03  0.12500220350E+03 0.  0.
          2    1    1    2  501    0 -0.31796420997E+02  0.98541415993E+01 -0.22926995774E+04  0.22929412267E+04  0.00000000000E+00 0. -1.
          1    1    1    2  502    0  0.91697241000E+02 -0.54291573603E+02  0.20158727995E+04  0.20186874703E+04  0.00000000000E+00 0. -1.
         22    1    3    3    0    0  0.22416036341E+02 -0.13033720677E+02 -0.30132640420E+01  0.26104335275E+02  0.00000000000E+00 0.  1.
         22    1    3    3    0    0 -0.82316856344E+02  0.57471152681E+02 -0.19898701028E+03  0.22287850611E+03  0.00000000000E+00 0.  1.
</event>
<event>
 7    1  0.5593520E-006  0.1023192E+03  0.7818608E-02  0.1305872E+00
          2   -1    0    0  502    0  0.00000000000E+00  0.00000000000E+00  0.17137010023E+04  0.17137010023E+04  0.00000000000E+00 0. -1.
          1   -1    0    0  501    0 -0.00000000000E+00 -0.00000000000E+00 -0.91420407784E+03  0.91420407784E+03  0.00000000000E+00 0. -1.
         25    2    1    2    0    0 -0.20049370999E+02  0.17023231695E+03  0.86582047007E+02  0.22913471888E+03  0.12500099808E+03 0.  0.
          2    1    1    2  501    0  0.35239908693E+02 -0.94740304221E+02 -0.83893923384E+03  0.84500687245E+03  0.00000000000E+00 0. -1.
          1    1    1    2  502    0 -0.15190537695E+02 -0.75492012728E+02  0.15518541113E+04  0.15537634889E+04  0.00000000000E+00 0. -1.
         22    1    3    3    0    0  0.15611507579E+02 -0.25832248476E+01  0.45201310114E+02  0.47891028967E+02  0.00000000000E+00 0. -1.
         22    1    3    3    0    0 -0.35660878578E+02  0.17281554180E+03  0.41380736892E+02  0.18124368991E+03  0.00000000000E+00 0. -1.
</event>
<event>
 7    1  0.5593520E-006  0.1313625E+03  0.7818608E-02  0.1330355E+00
          2   -1    0    0  502    0  0.00000000000E+00  0.00000000000E+00  0.18941284567E+03  0.18941284567E+03  0.00000000000E+00 0. -1.
          1   -1    0    0  501    0 -0.00000000000E+00 -0.00000000000E+00 -0.61464580382E+03  0.61464580382E+03  0.00000000000E+00 0. -1.
         25    2    1    2    0    0  0.85171326095E+02  0.51122499270E+02 -0.16138337814E+03  0.22701860614E+03  0.12500075228E+03 0.  0.
          2    1    1    2  501    0  0.10050564021E+02  0.47103994697E+02 -0.38879354990E+03  0.39176552247E+03  0.00000000000E+00 0. -1.
          1    1    1    2  502    0 -0.95221890115E+02 -0.98226493967E+02  0.12494396989E+03  0.18527452088E+03  0.00000000000E+00 0. -1.
         22    1    3    3    0    0 -0.94776040102E+01  0.63255740688E+02 -0.58237072935E+02  0.86502429861E+02  0.00000000000E+00 0.  1.
         22    1    3    3    0    0  0.94648930105E+02 -0.12133241419E+02 -0.10314630521E+03  0.14051617628E+03  0.00000000000E+00 0.  1.
</event>
<event>
 7    1  0.5593520E-006  0.7162866E+02  0.7818608E-02  0.1363427E+00
          2   -1    0    0  502    0  0.00000000000E+00  0.00000000000E+00  0.31745998758E+04  0.31745998758E+04  0.00000000000E+00 0. -1.
          1   -1    0    0  501    0 -0.00000000000E+00 -0.00000000000E+00 -0.18802752060E+02  0.18802752060E+02  0.00000000000E+00 0. -1.
         25    2    1    2    0    0  0.82190451879E+00  0.30604704582E+02  0.52114402879E+03  0.53679853420E+03  0.12499697639E+03 0.  0.
          2    1    1    2  501    0  0.52320869111E+02 -0.70619887988E+02  0.17293675895E+03  0.19398908351E+03  0.00000000000E+00 0. -1.
          1    1    1    2  502    0 -0.53142773630E+02  0.40015183406E+02  0.24617163360E+04  0.24626150102E+04  0.00000000000E+00 0. -1.
         22    1    3    3    0    0  0.19427505604E+02  0.35560249969E+02  0.46151659744E+02  0.61416081355E+02  0.00000000000E+00 0.  1.
         22    1    3    3    0    0 -0.18605601085E+02 -0.49555453872E+01  0.47499236905E+03  0.47538245285E+03  0.00000000000E+00 0.  1.
</event>
<event>
 7    1  0.5593520E-006  0.4823131E+02  0.7818608E-02  0.1519702E+00
          2   -1    0    0  502    0  0.00000000000E+00  0.00000000000E+00  0.14614664657E+04  0.14614664657E+04  0.00000000000E+00 0. -1.
          1   -1    0    0  501    0 -0.00000000000E+00 -0.00000000000E+00 -0.10546106948E+02  0.10546106948E+02  0.00000000000E+00 0. -1.
         25    2    1    2    0    0 -0.37792117626E+02 -0.31539325647E+02  0.97637389865E+03  0.98557272039E+03  0.12499849594E+03 0.  0.
          2    1    1    2  501    0  0.49032078420E+02  0.29701295164E+01  0.10842417134E+03  0.11903263130E+03  0.00000000000E+00 0. -1.
          1    1    1    2  502    0 -0.11239960794E+02  0.28569196131E+02  0.36612228874E+03  0.36740722094E+03  0.00000000000E+00 0. -1.
         22    1    3    3    0    0 -0.24085914956E+01  0.10779591530E+02  0.81418239345E+03  0.81425731235E+03  0.00000000000E+00 0. -1.
         22    1    3    3    0    0 -0.35383526131E+02 -0.42318917177E+02  0.16219150521E+03  0.17131540805E+03  0.00000000000E+00 0. -1.
</event>
<event>
 7    1  0.5593520E-006  0.1217184E+03  0.7818608E-02  0.1325333E+00
          2   -1    0    0  502    0  0.00000000000E+00  0.00000000000E+00  0.78978755908E+03  0.78978755908E+03  0.00000000000E+00 0. -1.
          1   -1    0    0  501    0 -0.00000000000E+00 -0.00000000000E+00 -0.63723144223E+03  0.63723144223E+03  0.00000000000E+00 0. -1.
         25    2    1    2    0    0 -0.36857296808E+02 -0.12708807637E+03  0.21577636728E+03  0.28230176339E+03  0.12500002181E+03 0.  0.
          2    1    1    2  501    0 -0.41918780527E+02  0.34572319941E+02 -0.59589089646E+03  0.59836309207E+03  0.00000000000E+00 0. -1.
          1    1    1    2  502    0  0.78776077335E+02  0.92515756432E+02  0.53267064603E+03  0.54635414585E+03  0.00000000000E+00 0. -1.
         22    1    3    3    0    0 -0.36147118428E+02  0.15539994508E+02  0.49520844640E+02  0.63248870771E+02  0.00000000000E+00 0. -1.
         22    1    3    3    0    0 -0.71017837968E+00 -0.14262807088E+03  0.16625552264E+03  0.21905289262E+03  0.00000000000E+00 0. -1.
</event>
<event>
 7    1  0.5593520E-006  0.1698937E+03  0.7818608E-02  0.1232872E+00
          2   -1    0    0  502    0  0.00000000000E+00  0.00000000000E+00  0.18260102504E+04  0.18260102504E+04  0.00000000000E+00 0. -1.
          1   -1    0    0  501    0 -0.00000000000E+00 -0.00000000000E+00 -0.16393658315E+03  0.16393658315E+03  0.00000000000E+00 0. -1.
         25    2    1    2    0    0  0.62770744619E+01 -0.16341174037E+03  0.39986110679E+03  0.44972822427E+03  0.12499508961E+03 0.  0.
          2    1    1    2  501    0 -0.98152583907E+02  0.14323473395E+03 -0.82485747408E+02  0.19223427702E+03  0.00000000000E+00 0. -1.
          1    1    1    2  502    0  0.91875509445E+02  0.20177006423E+02  0.13446983079E+04  0.13479843323E+04  0.00000000000E+00 0. -1.
         22    1    3    3    0    0 -0.35867568213E+02 -0.15947764143E+03  0.32125001177E+03  0.36044579430E+03  0.00000000000E+00 0.  1.
         22    1    3    3    0    0  0.42144642675E+02 -0.39340989361E+01  0.78611095020E+02  0.89282429968E+02  0.00000000000E+00 0.  1.
</event>
<event>
 7    1  0.5593520E-006  0.8080539E+02  0.7818608E-02  0.1364172E+00
          2   -1    0    0  502    0  0.00000000000E+00  0.00000000000E+00  0.28783310657E+04  0.28783310657E+04  0.00000000000E+00 0. -1.
          1   -1    0    0  501    0 -0.00000000000E+00 -0.00000000000E+00 -0.14847585521E+02  0.14847585521E+02  0.00000000000E+00 0. -1.
         25    2    1    2    0    0 -0.10868622754E+03 -0.21762793246E+02  0.69705217145E+03  0.71679404106E+03  0.12500260935E+03 0.  0.
          2    1    1    2  501    0  0.33641134720E+02  0.47984595098E+02  0.20157246533E+03  0.20991833196E+03  0.00000000000E+00 0. -1.
          1    1    1    2  502    0  0.75045092819E+02 -0.26221801853E+02  0.19648588433E+04  0.19664662782E+04  0.00000000000E+00 0. -1.
         22    1    3    3    0    0 -0.10575183099E+03  0.24793378694E+02  0.59154098343E+03  0.60143070794E+03  0.00000000000E+00 0. -1.
         22    1    3    3    0    0 -0.29343965504E+01 -0.46556171940E+02  0.10551118803E+03  0.11536333312E+03  0.00000000000E+00 0. -1.
</event>
<event>
 7    1  0.5593520E-006  0.5275068E+02  0.7818608E-02  0.1495921E+00
          2   -1    0    0  502    0  0.00000000000E+00  0.00000000000E+00  0.81925813278E+02  0.81925813278E+02  0.00000000000E+00 0. -1.
          1   -1    0    0  501    0 -0.00000000000E+00 -0.00000000000E+00 -0.90378498849E+03  0.90378498849E+03  0.00000000000E+00 0. -1.
         25    2    1    2    0    0  0.67699239494E+02 -0.35089329437E+02 -0.35795852374E+03  0.38674704943E+03  0.12499810981E+03 0.  0.
          2    1    1    2  501    0 -0.15823571822E+02  0.28954733532E+02 -0.52072965440E+03  0.52177402675E+03  0.00000000000E+00 0. -1.
          1    1    1    2  502    0 -0.51875667672E+02  0.61345959044E+01  0.56829002926E+02  0.77189725591E+02  0.00000000000E+00 0. -1.
         22    1    3    3    0    0  0.12387954908E+02 -0.75225634401E+02 -0.21904907630E+03  0.23193717969E+03  0.00000000000E+00 0.  1.
         22    1    3    3    0    0  0.55311284586E+02  0.40136304964E+02 -0.13890944744E+03  0.15480986974E+03  0.00000000000E+00 0.  1.
</event>
<event>
 7    1  0.5593520E-006  0.4189802E+02  0.7818608E-02  0.1598764E+00
          2   -1    0    0  502    0  0.00000000000E+00  0.00000000000E+00  0.83665664934E+03  0.83665664934E+03  0.00000000000E+00 0. -1.
          1   -1    0    0  501    0 -0.00000000000E+00 -0.00000000000E+00 -0.16940554068E+03  0.16940554068E+03  0.00000000000E+00 0. -1.
         25    2    1    2    0    0 -0.71137159912E+01 -0.20055240988E+02  0.19561799728E+03  0.23311522642E+03  0.12499396098E+03 0.  0.
          2    1    1    2  501    0  0.79338431494E+01  0.41432984583E+02 -0.14751542282E+03  0.15342893485E+03  0.00000000000E+00 0. -1.
          1    1    1    2  502    0 -0.82012715814E+00 -0.21377743595E+02  0.61914853420E+03  0.61951802874E+03  0.00000000000E+00 0. -1.
         22    1    3    3    0    0  0.25505592160E+02 -0.61130707354E+02  0.67009674484E+02  0.94222052023E+02  0.00000000000E+00 0.  1.
         22    1    3    3    0    0 -0.32619308151E+02  0.41075466366E+02  0.12860832280E+03  0.13889317440E+03  0.00000000000E+00 0.  1.
</event>
<event>
 7    1  0.5593520E-006  0.1710038E+03  0.7818608E-02  0.1304720E+00
          2   -1    0    0  502    0  0.00000000000E+00  0.00000000000E+00  0.70080700329E+03  0.70080700329E+03  0.00000000000E+00 0. -1.
          1   -1    0    0  501    0 -0.00000000000E+00 -0.00000000000E+00 -0.11387959696E+04  0.11387959696E+04  0.00000000000E+00 0. -1.
         25    2    1    2    0    0  0.11331753479E+03  0.78237379356E+02  0.81667666578E+02  0.20311795036E+03  0.12500137109E+03 0.  0.
          2    1    1    2  501    0 -0.11994020529E+03 -0.12432740551E+03 -0.10701611942E+04  0.10840147316E+04  0.00000000000E+00 0. -1.
          1    1    1    2  502    0  0.66226704996E+01  0.46090026157E+02  0.55050456137E+03  0.55247029094E+03  0.00000000000E+00 0. -1.
         22    1    3    3    0    0  0.11099746711E+03  0.63992325167E+01  0.31809848384E+02  0.11564278765E+03  0.00000000000E+00 0. -1.
         22    1    3    3    0    0  0.23200676739E+01  0.71838146839E+02  0.49857818194E+02  0.87475162705E+02  0.00000000000E+00 0. -1.
</event>
<event>
 7    1  0.5593520E-006  0.1233823E+03  0.7818608E-02  0.1335020E+00
          2   -1    0    0  502    0  0.00000000000E+00  0.00000000000E+00  0.17680650421E+04  0.17680650421E+04  0.00000000000E+00 0. -1.
          1   -1    0    0  501    0 -0.00000000000E+00 -0.00000000000E+00 -0.24830140702E+04  0.24830140702E+04  0.00000000000E+00 0. -1.
         25    2    1    2    0    0 -0.44172262343E+02  0.70911812932E+02 -0.71758015456E+02  0.16660666285E+03  0.12501557242E+03 0.  0.
          2    1    1    2  501    0  0.94213730807E+01  0.48316145257E+02 -0.23613340034E+04  0.23618470500E+04  0.00000000000E+00 0. -1.
          1    1    1    2  502    0  0.34750889263E+02 -0.11922795819E+03  0.17181429907E+04  0.17226253995E+04  0.00000000000E+00 0. -1.
         22    1    3    3    0    0 -0.30943332991E+02  0.29150019142E+02 -0.10390815428E+03  0.11226806313E+03  0.00000000000E+00 0.  1.
         22    1    3    3    0    0 -0.13228929353E+02  0.41761793790E+02  0.32150138827E+02  0.54338599715E+02  0.00000000000E+00 0.  1.
</event>
<event>
 7    1  0.5593520E-006  0.6770059E+02  0.7818608E-02  0.1439896E+00
          2   -1    0    0  502    0  0.00000000000E+00  0.00000000000E+00  0.90761626787E+02  0.90761626787E+02  0.00000000000E+00 0. -1.
          1   -1    0    0  501    0 -0.00000000000E+00 -0.00000000000E+00 -0.12295863970E+04  0.12295863970E+04  0.00000000000E+00 0. -1.
         25    2    1    2    0    0 -0.91395687987E+02  0.11417867813E+02 -0.89931361633E+02  0.17943593496E+03  0.12500426177E+03 0.  0.
          2    1    1    2  501    0  0.59056825749E+02 -0.32226351260E+02 -0.10856400816E+04  0.10877226821E+04  0.00000000000E+00 0. -1.
          1    1    1    2  502    0  0.32338862238E+02  0.20808483447E+02  0.36746673109E+02  0.53189406641E+02  0.00000000000E+00 0. -1.
         22    1    3    3    0    0 -0.34564839583E+02 -0.56738449914E+02 -0.35429370357E+02  0.75294223670E+02  0.00000000000E+00 0. -1.
         22    1    3    3    0    0 -0.56830848403E+02  0.68156317728E+02 -0.54501991276E+02  0.10414171129E+03  0.00000000000E+00 0. -1.
</event>
<event>
 7    1  0.5593520E-006  0.1132201E+03  0.7818608E-02  0.1322779E+00
          2   -1    0    0  502    0  0.00000000000E+00  0.00000000000E+00  0.87916045025E+03  0.87916045025E+03  0.00000000000E+00 0. -1.
          1   -1    0    0  501    0 -0.00000000000E+00 -0.00000000000E+00 -0.35659701890E+04  0.35659701890E+04  0.00000000000E+00 0. -1.
         25    2    1    2    0    0  0.12437176493E+02  0.55050490110E+02 -0.45355999463E+02  0.14445660628E+03  0.12500121836E+03 0.  0.
          2    1    1    2  501    0  0.24183911569E+02  0.54641705669E+02 -0.34667751185E+04  0.34672900513E+04  0.00000000000E+00 0. -1.
          1    1    1    2  502    0 -0.36621088062E+02 -0.10969219578E+03  0.82532137922E+03  0.83338398167E+03  0.00000000000E+00 0. -1.
         22    1    3    3    0    0 -0.27981467517E+02  0.43932828859E+02  0.28617690608E+02  0.59430869013E+02  0.00000000000E+00 0.  1.
         22    1    3    3    0    0  0.40418644010E+02  0.11117661251E+02 -0.73973690071E+02  0.85025737268E+02  0.00000000000E+00 0.  1.
</event>
<event>
 7    1  0.5593520E-006  0.1017915E+03  0.7818608E-02  0.1349038E+00
          2   -1    0    0  502    0  0.00000000000E+00  0.00000000000E+00  0.26198269369E+03  0.26198269369E+03  0.00000000000E+00 0. -1.
          1   -1    0    0  501    0 -0.00000000000E+00 -0.00000000000E+00 -0.32931382935E+03  0.32931382935E+03  0.00000000000E+00 0. -1.
         25    2    1    2    0    0  0.42159282670E+02  0.30277303586E+02 -0.25601522793E+03  0.28959089673E+03  0.12499988124E+03 0.  0.
          2    1    1    2  501    0  0.34030488845E+02  0.40454455441E+02 -0.29126128406E+02  0.60357008640E+02  0.00000000000E+00 0. -1.
          1    1    1    2  502    0 -0.76189771515E+02 -0.70731759027E+02  0.21781022067E+03  0.24134861766E+03  0.00000000000E+00 0. -1.
         22    1    3    3    0    0  0.66513059089E+02 -0.19690506311E+02 -0.84680198017E+02  0.10946432754E+03  0.00000000000E+00 0.  1.
         22    1    3    3    0    0 -0.24353776419E+02  0.49967809897E+02 -0.17133502991E+03  0.18012656919E+03  0.00000000000E+00 0.  1.
</event>
<event>
 7    1  0.5593520E-006  0.2642121E+03  0.7818608E-02  0.1210031E+00
          2   -1    0    0  502    0  0.00000000000E+00  0.00000000000E+00  0.20639715211E+04  0.20639715211E+04  0.00000000000E+00 0. -1.
          1   -1    0    0  501    0 -0.00000000000E+00 -0.00000000000E+00 -0.39145301590E+03  0.39145301590E+03  0.00000000000E+00 0. -1.
         25    2    1    2    0    0 -0.10336849925E+03 -0.16836464808E+03  0.56140758377E+02  0.24044392701E+03  0.12501918224E+03 0.  0.
          2    1    1    2  501    0 -0.16255224726E+02 -0.75094270978E+02 -0.28457835128E+03  0.29476807812E+03  0.00000000000E+00 0. -1.
          1    1    1    2  502    0  0.11962372397E+03  0.24345891906E+03  0.19009560981E+04  0.19202125318E+04  0.00000000000E+00 0. -1.
         22    1    3    3    0    0 -0.98837942046E+02 -0.18788146025E+03  0.43351494441E+02  0.21667425773E+03  0.00000000000E+00 0.  1.
         22    1    3    3    0    0 -0.45305572021E+01  0.19516812169E+02  0.12789263936E+02  0.23769669283E+02  0.00000000000E+00 0.  1.
</event>
<event>
 7    1  0.5593520E-006  0.1692094E+03  0.7818608E-02  0.1235390E+00
          2   -1    0    0  502    0  0.00000000000E+00  0.00000000000E+00  0.94392846517E+03  0.94392846517E+03  0.00000000000E+00 0. -1.
          1   -1    0    0  501    0 -0.00000000000E+00 -0.00000000000E+00 -0.10332778653E+03  0.10332778653E+03  0.00000000000E+00 0. -1.
         25    2    1    2    0    0  0.18519833904E+03  0.13170235704E+03  0.39299155550E+03  0.47086544526E+03  0.12501187629E+03 0.  0.
          2    1    1    2  501    0 -0.15015897362E+03 -0.46594738266E+02  0.45200019042E+02  0.16359042978E+03  0.00000000000E+00 0. -1.
          1    1    1    2  502    0 -0.35039365419E+02 -0.85107618778E+02  0.40240910411E+03  0.41280037666E+03  0.00000000000E+00 0. -1.
         22    1    3    3    0    0 -0.50605704402E+01  0.31464282568E+02  0.13360223743E+02  0.34555839292E+02  0.00000000000E+00 0. -1.
         22    1    3    3    0    0  0.19025890948E+03  0.10023807448E+03  0.37963133175E+03  0.43630960597E+03  0.00000000000E+00 0. -1.
</event>
<event>
 7    1  0.5593520E-006  0.2945134E+02  0.7818608E-02  0.1617794E+00
          2   -1    0    0  502    0  0.00000000000E+00  0.00000000000E+00  0.26534485326E+03  0.26534485326E+03  0.00000000000E+00 0. -1.
          1   -1    0    0  501    0 -0.00000000000E+00 -0.00000000000E+00 -0.14549015143E+04  0.14549015143E+04  0.00000000000E+00 0. -1.
         25    2    1    2    0    0 -0.20374572239E+02 -0.50298401435E+02 -0.66458140834E+03  0.67840943472E+03  0.12500344166E+03 0.  0.
          2    1    1    2  501    0  0.23058721940E+01  0.27077058804E+02 -0.78233194407E+03  0.78280377801E+03  0.00000000000E+00 0. -1.
          1    1    1    2  502    0  0.18068700045E+02  0.23221342631E+02  0.25735669140E+03  0.25903315480E+03  0.00000000000E+00 0. -1.
         22    1    3    3    0    0  0.48604773974E+02 -0.33386771402E+01 -0.33010440630E+03  0.33368022099E+03  0.00000000000E+00 0.  1.
         22    1    3    3    0    0 -0.68979346214E+02 -0.46959724295E+02 -0.33447700204E+03  0.34472921374E+03  0.00000000000E+00 0.  1.
</event>
<event>
 7    1  0.5593520E-006  0.1417564E+03  0.7818608E-02  0.1273884E+00
          2   -1    0    0  502    0  0.00000000000E+00  0.00000000000E+00  0.33591198100E+04  0.33591198100E+04  0.00000000000E+00 0. -1.
          1   -1    0    0  501    0 -0.00000000000E+00 -0.00000000000E+00 -0.41437854555E+02  0.41437854555E+02  0.00000000000E+00 0. -1.
         25    2    1    2    0    0  0.81388144355E+02 -0.17705270218E+03  0.18410631468E+04  0.18555628877E+04  0.12501372111E+03 0.  0.
          2    1    1    2  501    0 -0.14386808514E+02  0.73609982319E+02  0.12909150833E+02  0.76105557823E+02  0.00000000000E+00 0. -1.
          1    1    1    2  502    0 -0.67001335841E+02  0.10344271986E+03  0.14637096579E+04  0.14688892190E+04  0.00000000000E+00 0. -1.
         22    1    3    3    0    0  0.90621219380E+02 -0.19289686898E+03  0.17058424749E+04  0.17191044054E+04  0.00000000000E+00 0.  1.
         22    1    3    3    0    0 -0.92330750253E+01  0.15844166800E+02  0.13522067191E+03  0.13645848236E+03  0.00000000000E+00 0.  1.
</event>
<event>
 7    1  0.5593520E-006  0.3158047E+02  0.7818608E-02  0.1653855E+00
          2   -1    0    0  502    0  0.00000000000E+00  0.00000000000E+00  0.43141707365E+03  0.43141707365E+03  0.00000000000E+00 0. -1.
          1   -1    0    0  501    0 -0.00000000000E+00 -0.00000000000E+00 -0.62289392232E+03  0.62289392232E+03  0.00000000000E+00 0. -1.
         25    2    1    2    0    0  0.23992248644E+02  0.30866299019E+02 -0.18784911902E+03  0.22899817478E+03  0.12499806449E+03 0.  0.
          2    1    1    2  501    0 -0.33996914860E+01 -0.31341752179E+02 -0.41361186922E+03  0.41481157372E+03  0.00000000000E+00 0. -1.
          1    1    1    2  502    0 -0.20592557158E+02  0.47545316036E+00  0.40998413957E+03  0.41050124746E+03  0.00000000000E+00 0. -1.
         22    1    3    3    0    0  0.27594359012E+02  0.55873232053E+02 -0.30038413450E+02  0.69177835987E+02  0.00000000000E+00 0. -1.
         22    1    3    3    0    0 -0.36021103678E+01 -0.25006933034E+02 -0.15781070557E+03  0.15982033880E+03  0.00000000000E+00 0. -1.
</event>
<event>
 7    1  0.5593520E-006  0.1155642E+03  0.7818608E-02  0.1273493E+00
          2   -1    0    0  502    0  0.00000000000E+00  0.00000000000E+00  0.13930314973E+04  0.13930314973E+04  0.00000000000E+00 0. -1.
          1   -1    0    0  501    0 -0.00000000000E+00 -0.00000000000E+00 -0.17922764919E+03  0.17922764919E+03  0.00000000000E+00 0. -1.
         25    2    1    2    0    0  0.44785802053E+01 -0.56879530029E+02  0.12576834116E+03  0.18628817065E+03  0.12502107130E+03 0.  0.
          2    1    1    2  501    0 -0.84794742803E+02 -0.36580655606E+02 -0.13124497326E+03  0.16047908206E+03  0.00000000000E+00 0. -1.
          1    1    1    2  502    0  0.80316162598E+02  0.93460185635E+02  0.12192804802E+04  0.12254918937E+04  0.00000000000E+00 0. -1.
         22    1    3    3    0    0 -0.56783693348E+02 -0.38306690224E+02  0.89529758017E+02  0.11272696180E+03  0.00000000000E+00 0. -1.
         22    1    3    3    0    0  0.61262273553E+02 -0.18572839805E+02  0.36238583138E+02  0.73561208848E+02  0.00000000000E+00 0. -1.
</event>
<event>
 7    1  0.5593520E-006  0.2210170E+03  0.7818608E-02  0.1333443E+00
          2   -1    0    0  502    0  0.00000000000E+00  0.00000000000E+00  0.17833076457E+04  0.17833076457E+04  0.00000000000E+00 0. -1.
          1   -1    0    0  501    0 -0.00000000000E+00 -0.00000000000E+00 -0.11558176262E+04  0.11558176262E+04  0.00000000000E+00 0. -1.
         25    2    1    2    0    0  0.24036880017E+03  0.36094393557E+02 -0.25399406378E+02  0.27450005477E+03  0.12500073953E+03 0.  0.
          2    1    1    2  501    0 -0.21131086465E+02 -0.18159167648E+02 -0.99838005940E+03  0.99876875261E+03  0.00000000000E+00 0. -1.
          1    1    1    2  502    0 -0.21923771370E+03 -0.17935225909E+02  0.16512694853E+04  0.16658564645E+04  0.00000000000E+00 0. -1.
         22    1    3    3    0    0  0.24354370362E+03  0.29607505047E+02  0.28384920501E+01  0.24535320859E+03  0.00000000000E+00 0. -1.
         22    1    3    3    0    0 -0.31749034516E+01  0.64868885100E+01 -0.28237898429E+02  0.29146846178E+02  0.00000000000E+00 0. -1.
</event>
<event>
 7    1  0.5593520E-006  0.4315274E+02  0.7818608E-02  0.1502710E+00
          2   -1    0    0  502    0  0.00000000000E+00  0.00000000000E+00  0.75166143686E+03  0.75166143686E+03  0.00000000000E+00 0. -1.
          1   -1    0    0  501    0 -0.00000000000E+00 -0.00000000000E+00 -0.31016835258E+02  0.31016835258E+02  0.00000000000E+00 0. -1.
         25    2    1    2    0    0 -0.29480340483E+02 -0.90653166848E+01  0.62468187105E+03  0.63781324799E+03  0.12500811517E+03 0.  0.
          2    1    1    2  501    0  0.46772034208E+01 -0.42898512915E+02  0.15352887664E+02  0.45802508685E+02  0.00000000000E+00 0. -1.
          1    1    1    2  502    0  0.24803137063E+02  0.51963829600E+02  0.80609842892E+02  0.99062515443E+02  0.00000000000E+00 0. -1.
         22    1    3    3    0    0 -0.41769994800E+02 -0.56030261200E+02  0.48334862997E+03  0.48837487725E+03  0.00000000000E+00 0.  1.
         22    1    3    3    0    0  0.12289654316E+02  0.46964944516E+02  0.14133324108E+03  0.14943837074E+03  0.00000000000E+00 0.  1.
</event>
<event>
 7    1  0.5593520E-006  0.2191806E+02  0.7818608E-02  0.1716915E+00
          2   -1    0    0  502    0  0.00000000000E+00  0.00000000000E+00  0.12853239131E+04  0.12853239131E+04  0.00000000000E+00 0. -1.
          1   -1    0    0  501    0 -0.00000000000E+00 -0.00000000000E+00 -0.88169153719E+02  0.88169153719E+02  0.00000000000E+00 0. -1.
         25    2    1    2    0    0  0.90008790754E+01 -0.44236781595E+01 -0.91297942825E+01  0.12573666991E+03  0.12500308902E+03 0.  0.
          2    1    1    2  501    0 -0.12080359790E+02 -0.17304723833E+02 -0.15241947924E+02  0.26032778110E+02  0.00000000000E+00 0. -1.
          1    1    1    2  502    0  0.30794807149E+01  0.21728401993E+02  0.12215265016E+04  0.12217236188E+04  0.00000000000E+00 0. -1.
         22    1    3    3    0    0 -0.13132801789E+01  0.41920429595E+02  0.39614111398E+02  0.57691636691E+02  0.00000000000E+00 0. -1.
         22    1    3    3    0    0  0.10314159254E+02 -0.46344107754E+02 -0.48743905680E+02  0.68045033218E+02  0.00000000000E+00 0. -1.
</event>
<event>
 7    1  0.5593520E-006  0.1567939E+03  0.7818608E-02  0.1303452E+00
          2   -1    0    0  502    0  0.00000000000E+00  0.00000000000E+00  0.18153540387E+03  0.18153540387E+03  0.00000000000E+00 0. -1.
          1   -1    0    0  501    0 -0.00000000000E+00 -0.00000000000E+00 -0.28629790573E+04  0.28629790573E+04  0.00000000000E+00 0. -1.
         25    2    1    2    0    0  0.78554407193E+02  0.97155359567E+02 -0.10357864337E+04  0.10507560439E+04  0.12499907464E+03 0.  0.
          2    1    1    2  501    0  0.50956841135E+02 -0.65548971407E+01 -0.17833787613E+04  0.17841186543E+04  0.00000000000E+00 0. -1.
          1    1    1    2  502    0 -0.12951124833E+03 -0.90600462427E+02  0.13772154157E+03  0.20963976304E+03  0.00000000000E+00 0. -1.
         22    1    3    3    0    0  0.14462226753E+02  0.76382289083E+02 -0.24346214093E+03  0.25557234622E+03  0.00000000000E+00 0.  1.
         22    1    3    3    0    0  0.64092180440E+02  0.20773070485E+02 -0.79232429278E+03  0.79518369764E+03  0.00000000000E+00 0.  1.
</event>
<event>
 7    1  0.5593520E-006  0.1069783E+03  0.7818608E-02  0.1335168E+00
          2   -1    0    0  502    0  0.00000000000E+00  0.00000000000E+00  0.19350024314E+04  0.19350024314E+04  0.00000000000E+00 0. -1.
          1   -1    0    0  501    0 -0.00000000000E+00 -0.00000000000E+00 -0.49127359694E+03  0.49127359694E+03  0.00000000000E+00 0. -1.
         25    2    1    2    0    0 -0.86534866014E+02 -0.93710798844E+02  0.12045560273E+03  0.21541606043E+03  0.12499812001E+03 0.  0.
          2    1    1    2  501    0  0.56053415895E+02 -0.85484258381E+01 -0.44036310825E+03  0.44399856771E+03  0.00000000000E+00 0. -1.
          1    1    1    2  502    0  0.30481450119E+02  0.10225922468E+03  0.17636363400E+04  0.17668614002E+04  0.00000000000E+00 0. -1.
         22    1    3    3    0    0 -0.70117579652E+02  0.11917217144E+02  0.56634305686E+02  0.90917213008E+02  0.00000000000E+00 0. -1.
         22    1    3    3    0    0 -0.16417286362E+02 -0.10562801599E+03  0.63821297045E+02  0.12449884742E+03  0.00000000000E+00 0. -1.
</event>
<event>
 7    1  0.5593520E-006  0.1498603E+03  0.7818608E-02  0.1363963E+00
          2   -1    0    0  502    0  0.00000000000E+00  0.00000000000E+00  0.10130836407E+04  0.10130836407E+04  0.00000000000E+00 0. -1.
          1   -1    0    0  501    0 -0.00000000000E+00 -0.00000000000E+00 -0.18596540695E+03  0.18596540695E+03  0.00000000000E+00 0. -1.
         25    2    1    2    0    0 -0.18302357682E+02 -0.16688556999E+03  0.15971943079E+03  0.26328788271E+03  0.12499777134E+03 0.  0.
          2    1    1    2  501    0 -0.60019452383E+01  0.14660561319E+03 -0.93641345044E+02  0.17406300775E+03  0.00000000000E+00 0. -1.
          1    1    1    2  502    0  0.24304302920E+02  0.20279956801E+02  0.76104014805E+03  0.76169815723E+03  0.00000000000E+00 0. -1.
         22    1    3    3    0    0 -0.56748420661E+02 -0.24477456319E+02  0.47237470667E+02  0.77787580952E+02  0.00000000000E+00 0. -1.
         22    1    3    3    0    0  0.38446062979E+02 -0.14240811367E+03  0.11248196012E+03  0.18550030176E+03  0.00000000000E+00 0. -1.
</event>
<event>
 7    1  0.5593520E-006  0.5083615E+03  0.7818608E-02  0.1083753E+00
          2   -1    0    0  502    0  0.00000000000E+00  0.00000000000E+00  0.61805982166E+03  0.61805982166E+03  0.00000000000E+00 0. -1.
          1   -1    0    0  501    0 -0.00000000000E+00 -0.00000000000E+00 -0.68699645678E+03  0.68699645678E+03  0.00000000000E+00 0. -1.
         25    2    1    2    0    0  0.44498386240E+03  0.33559867866E+03 -0.13177088508E+03  0.58619178005E+03  0.12498050222E+03 0.  0.
          2    1    1    2  501    0 -0.17049719134E+03  0.59535878649E+02  0.14396530917E+03  0.23095415854E+03  0.00000000000E+00 0. -1.
          1    1    1    2  502    0 -0.27448667106E+03 -0.39513455730E+03 -0.81131059209E+02  0.48791033985E+03  0.00000000000E+00 0. -1.
         22    1    3    3    0    0  0.60099989875E+02  0.10900214570E+03 -0.32853915775E+02  0.12873560631E+03  0.00000000000E+00 0. -1.
         22    1    3    3    0    0  0.38488387253E+03  0.22659653295E+03 -0.98916969301E+02  0.45745617374E+03  0.00000000000E+00 0. -1.
</event>
<event>
 7    1  0.5593520E-006  0.8900194E+02  0.7818608E-02  0.1376281E+00
          2   -1    0    0  502    0  0.00000000000E+00  0.00000000000E+00  0.20656133398E+04  0.20656133398E+04  0.00000000000E+00 0. -1.
          1   -1    0    0  501    0 -0.00000000000E+00 -0.00000000000E+00 -0.68975225574E+02  0.68975225574E+02  0.00000000000E+00 0. -1.
         25    2    1    2    0    0 -0.92471605029E+02  0.57022901046E+01  0.21394978957E+03  0.26454494137E+03  0.12500399874E+03 0.  0.
          2    1    1    2  501    0  0.74955870522E+02 -0.50534980240E+02  0.37745618195E+01  0.90478804538E+02  0.00000000000E+00 0. -1.
          1    1    1    2  502    0  0.17515734506E+02  0.44832690136E+02  0.17789137628E+04  0.17795648194E+04  0.00000000000E+00 0. -1.
         22    1    3    3    0    0 -0.76980834633E+02  0.81197325456E+01  0.35073903128E+02  0.84983278579E+02  0.00000000000E+00 0. -1.
         22    1    3    3    0    0 -0.15490770396E+02 -0.24174424410E+01  0.17887588644E+03  0.17956166279E+03  0.00000000000E+00 0. -1.
</event>
<event>
 7    1  0.5593520E-006  0.7428346E+02  0.7818608E-02  0.1409650E+00
          2   -1    0    0  502    0  0.00000000000E+00  0.00000000000E+00  0.83661820606E+02  0.83661820606E+02  0.00000000000E+00 0. -1.
          1   -1    0    0  501    0 -0.00000000000E+00 -0.00000000000E+00 -0.16868618506E+04  0.16868618506E+04  0.00000000000E+00 0. -1.
         25    2    1    2    0    0  0.29066136312E+02  0.40749259045E+02 -0.69983211559E+03  0.71266725964E+03  0.12499716221E+03 0.  0.
          2    1    1    2  501    0 -0.27711315735E+02  0.34378309786E+02 -0.96171178272E+03  0.96272495461E+03  0.00000000000E+00 0. -1.
          1    1    1    2  502    0 -0.13548205772E+01 -0.75127568831E+02  0.58343868300E+02  0.95131456972E+02  0.00000000000E+00 0. -1.
         22    1    3    3    0    0 -0.21946730918E+02  0.51813909790E+01 -0.20440915010E+02  0.30435781852E+02  0.00000000000E+00 0.  1.
         22    1    3    3    0    0  0.51012867230E+02  0.35567868066E+02 -0.67939120058E+03  0.68223147779E+03  0.00000000000E+00 0.  1.
</event>
<event>
 7    1  0.5593520E-006  0.1064574E+03  0.7818608E-02  0.1336494E+00
          2   -1    0    0  502    0  0.00000000000E+00  0.00000000000E+00  0.20459956301E+04  0.20459956301E+04  0.00000000000E+00 0. -1.
          1   -1    0    0  501    0 -0.00000000000E+00 -0.00000000000E+00 -0.28483068575E+03  0.28483068575E+03  0.00000000000E+00 0. -1.
         25    2    1    2    0    0 -0.80086190430E+02 -0.24021260921E+02 -0.17671705555E+03  0.23204471529E+03  0.12500005319E+03 0.  0.
          2    1    1    2  501    0 -0.23044225370E+02  0.51393931705E+02 -0.68997515829E+02  0.89067557110E+02  0.00000000000E+00 0. -1.
          1    1    1    2  502    0  0.10313041580E+03 -0.27372670784E+02  0.20068795158E+04  0.20097140435E+04  0.00000000000E+00 0. -1.
         22    1    3    3    0    0  0.18585249102E+02 -0.31177242032E+02 -0.91161475920E+01  0.37423736476E+02  0.00000000000E+00 0. -1.
         22    1    3    3    0    0 -0.98671439532E+02  0.71559811109E+01 -0.16760090796E+03  0.19462097881E+03  0.00000000000E+00 0. -1.
</event>
<event>
 7    1  0.5761796E-006  0.1693491E+03  0.7818608E-02  0.1202918E+00
          2   -1    0    0  502    0  0.00000000000E+00  0.00000000000E+00  0.61735433408E+03  0.61735433408E+03  0.00000000000E+00 0. -1.
          1   -1    0    0  501    0 -0.00000000000E+00 -0.00000000000E+00 -0.11573615891E+04  0.11573615891E+04  0.00000000000E+00 0. -1.
         25    2    1    2    0    0 -0.32581298556E+02  0.51366114335E+02 -0.39672688686E+03  0.42039406144E+03  0.12505568928E+03 0.  0.
          2    1    1    2  501    0 -0.12895143206E+03  0.10644506039E+02 -0.73063924312E+03  0.74200773644E+03  0.00000000000E+00 0. -1.
          1    1    1    2  502    0  0.16153273062E+03 -0.62010620375E+02  0.58735887494E+03  0.61231412532E+03  0.00000000000E+00 0. -1.
         22    1    3    3    0    0 -0.60350343916E+02  0.78787365228E+02 -0.30397705857E+03  0.31976814267E+03  0.00000000000E+00 0.  1.
         22    1    3    3    0    0  0.27769045360E+02 -0.27421250892E+02 -0.92749828289E+02  0.10062591877E+03  0.00000000000E+00 0.  1.
</event>
<event>
 7    1  0.5593520E-006  0.5544033E+02  0.7818608E-02  0.1454374E+00
          2   -1    0    0  502    0  0.00000000000E+00  0.00000000000E+00  0.18359274501E+04  0.18359274501E+04  0.00000000000E+00 0. -1.
          1   -1    0    0  501    0 -0.00000000000E+00 -0.00000000000E+00 -0.18969518835E+02  0.18969518835E+02  0.00000000000E+00 0. -1.
         25    2    1    2    0    0  0.52471977900E+02 -0.19682530104E+02  0.56287349636E+03  0.57930705081E+03  0.12501750183E+03 0.  0.
          2    1    1    2  501    0 -0.57453449031E+00  0.42185912425E+02  0.33972523894E+02  0.54167459574E+02  0.00000000000E+00 0. -1.
          1    1    1    2  502    0 -0.51897443410E+02 -0.22503382321E+02  0.12201119110E+04  0.12214224585E+04  0.00000000000E+00 0. -1.
         22    1    3    3    0    0 -0.32468120023E+02 -0.30173856734E+02  0.11333859267E+03  0.12169748163E+03  0.00000000000E+00 0.  1.
         22    1    3    3    0    0  0.84940097923E+02  0.10491326630E+02  0.44953490369E+03  0.45760956918E+03  0.00000000000E+00 0.  1.
</event>
<event>
 7    1  0.5593520E-006  0.6539082E+02  0.7818608E-02  0.1534133E+00
          2   -1    0    0  502    0  0.00000000000E+00  0.00000000000E+00  0.74335889437E+03  0.74335889437E+03  0.00000000000E+00 0. -1.
          1   -1    0    0  501    0 -0.00000000000E+00 -0.00000000000E+00 -0.26437267718E+03  0.26437267718E+03  0.00000000000E+00 0. -1.
         25    2    1    2    0    0 -0.54148375302E+02 -0.19029759048E+02 -0.17697425628E+03  0.22414116096E+03  0.12500077749E+03 0.  0.
          2    1    1    2  501    0  0.62632525105E+02  0.37779520956E+02 -0.42654028296E+02  0.84672850044E+02  0.00000000000E+00 0. -1.
          1    1    1    2  502    0 -0.84841498024E+01 -0.18749761908E+02  0.69861450176E+03  0.69891756055E+03  0.00000000000E+00 0. -1.
         22    1    3    3    0    0 -0.68799579033E+02  0.37771560602E+02 -0.10966767302E+03  0.13485945043E+03  0.00000000000E+00 0. -1.
         22    1    3    3    0    0  0.14651203730E+02 -0.56801319650E+02 -0.67306583256E+02  0.89281710526E+02  0.00000000000E+00 0. -1.
</event>
<event>
 7    1  0.5593520E-006  0.4605046E+02  0.7818608E-02  0.1476001E+00
          2   -1    0    0  502    0  0.00000000000E+00  0.00000000000E+00  0.10029400378E+03  0.10029400378E+03  0.00000000000E+00 0. -1.
          1   -1    0    0  501    0 -0.00000000000E+00 -0.00000000000E+00 -0.45363748734E+03  0.45363748734E+03  0.00000000000E+00 0. -1.
         25    2    1    2    0    0  0.29784123540E+01  0.24770682552E+02  0.97492452386E+01  0.12783796128E+03  0.12500015562E+03 0.  0.
          2    1    1    2  501    0 -0.44425868004E+02  0.12123817804E+02 -0.36755148687E+03  0.37042508043E+03  0.00000000000E+00 0. -1.
          1    1    1    2  502    0  0.41447455650E+02 -0.36894500356E+02  0.44587580738E+01  0.55668449412E+02  0.00000000000E+00 0. -1.
         22    1    3    3    0    0 -0.83448293105E+01 -0.49166940386E+02  0.16999317007E+02  0.52687768807E+02  0.00000000000E+00 0. -1.
         22    1    3    3    0    0  0.11323241664E+02  0.73937622938E+02 -0.72500717684E+01  0.75150192469E+02  0.00000000000E+00 0. -1.
</event>
<event>
 7    1  0.5593520E-006  0.8347442E+02  0.7818608E-02  0.1412446E+00
          2   -1    0    0  502    0  0.00000000000E+00  0.00000000000E+00  0.31399564196E+04  0.31399564196E+04  0.00000000000E+00 0. -1.
          1   -1    0    0  501    0 -0.00000000000E+00 -0.00000000000E+00 -0.19269883913E+02  0.19269883913E+02  0.00000000000E+00 0. -1.
         25    2    1    2    0    0  0.52004776123E+02 -0.36599492757E+02  0.66500366195E+03  0.67963161386E+03  0.12500096216E+03 0.  0.
          2    1    1    2  501    0 -0.48891819999E+02  0.74921108586E+02  0.15784292003E+03  0.18143310055E+03  0.00000000000E+00 0. -1.
          1    1    1    2  502    0 -0.31129561239E+01 -0.38321615829E+02  0.22978399537E+04  0.22981615891E+04  0.00000000000E+00 0. -1.
         22    1    3    3    0    0 -0.11092339586E+02  0.30881262766E+02  0.34506547639E+03  0.34662209304E+03  0.00000000000E+00 0. -1.
         22    1    3    3    0    0  0.63097115709E+02 -0.67480755523E+02  0.31993818556E+03  0.33300952082E+03  0.00000000000E+00 0. -1.
</event>
<event>
 7    1  0.5593520E-006  0.3369770E+02  0.7818608E-02  0.1616460E+00
          2   -1    0    0  502    0  0.00000000000E+00  0.00000000000E+00  0.15319559775E+04  0.15319559775E+04  0.00000000000E+00 0. -1.
          1   -1    0    0  501    0 -0.00000000000E+00 -0.00000000000E+00 -0.20484813974E+04  0.20484813974E+04  0.00000000000E+00 0. -1.
         25    2    1    2    0    0  0.16124547060E+02 -0.20003645998E+02 -0.12755371646E+03  0.18043083096E+03  0.12500074923E+03 0.  0.
          2    1    1    2  501    0 -0.33589995160E+02  0.36335182736E+01 -0.18942433198E+04  0.18945446009E+04  0.00000000000E+00 0. -1.
          1    1    1    2  502    0  0.17465448099E+02  0.16370127724E+02  0.15052716164E+04  0.15054619431E+04  0.00000000000E+00 0. -1.
         22    1    3    3    0    0 -0.98154837714E+01  0.50965547238E+02 -0.56271971512E+02  0.76553024139E+02  0.00000000000E+00 0.  1.
         22    1    3    3    0    0  0.25940030832E+02 -0.70969193236E+02 -0.71281744944E+02  0.10387780682E+03  0.00000000000E+00 0.  1.
</event>
<event>
 7    1  0.5593520E-006  0.1743483E+03  0.7818608E-02  0.1228526E+00
          2   -1    0    0  502    0  0.00000000000E+00  0.00000000000E+00  0.38028173676E+03  0.38028173676E+03  0.00000000000E+00 0. -1.
          1   -1    0    0  501    0 -0.00000000000E+00 -0.00000000000E+00 -0.14536750462E+04  0.14536750462E+04  0.00000000000E+00 0. -1.
         25    2    1    2    0    0  0.10707058684E+03 -0.19970788186E+03  0.22801414357E+03  0.34490783003E+03  0.12499445149E+03 0.  0.
          2    1    1    2  501    0 -0.14990944984E+02  0.17304085545E+03 -0.13637049777E+04  0.13747214745E+04  0.00000000000E+00 0. -1.
          1    1    1    2  502    0 -0.92079641857E+02  0.26667026410E+02  0.62297524727E+02  0.11432747845E+03  0.00000000000E+00 0. -1.
         22    1    3    3    0    0  0.78120851698E+02 -0.11110732822E+03  0.20981110530E+03  0.24993680354E+03  0.00000000000E+00 0. -1.
         22    1    3    3    0    0  0.28949735143E+02 -0.88600553641E+02  0.18203038267E+02  0.94971026490E+02  0.00000000000E+00 0. -1.
</event>
<event>
 7    1  0.5593520E-006  0.1900376E+03  0.7818608E-02  0.1221216E+00
          2   -1    0    0  502    0  0.00000000000E+00  0.00000000000E+00  0.22957415620E+04  0.22957415620E+04  0.00000000000E+00 0. -1.
          1   -1    0    0  501    0 -0.00000000000E+00 -0.00000000000E+00 -0.25095979386E+04  0.25095979386E+04  0.00000000000E+00 0. -1.
         25    2    1    2    0    0  0.16012411593E+03  0.92793810598E+02 -0.15977714194E+03  0.27459611541E+03  0.12499547083E+03 0.  0.
          2    1    1    2  501    0  0.30417047580E+02 -0.89898787648E+02 -0.22873695658E+04  0.22893375721E+04  0.00000000000E+00 0. -1.
          1    1    1    2  502    0 -0.19054116351E+03 -0.28950229495E+01  0.22332903310E+04  0.22414058130E+04  0.00000000000E+00 0. -1.
         22    1    3    3    0    0  0.24380158689E+02 -0.15621780384E+02  0.11012043570E+02  0.30978980997E+02  0.00000000000E+00 0.  1.
         22    1    3    3    0    0  0.13574395724E+03  0.10841559098E+03 -0.17078918551E+03  0.24361713442E+03  0.00000000000E+00 0.  1.
</event>
<event>
 7    1  0.5593520E-006  0.1681775E+03  0.7818608E-02  0.1190259E+00
          2   -1    0    0  502    0  0.00000000000E+00  0.00000000000E+00  0.28506805951E+03  0.28506805951E+03  0.00000000000E+00 0. -1.
          1   -1    0    0  501    0 -0.00000000000E+00 -0.00000000000E+00 -0.54455723191E+03  0.54455723191E+03  0.00000000000E+00 0. -1.
         25    2    1    2    0    0 -0.75031918038E+02  0.32514043572E+02 -0.17427634612E+03  0.22953111920E+03  0.12500135243E+03 0.  0.
          2    1    1    2  501    0  0.19534395842E+02  0.14833241533E+03 -0.28690453691E+03  0.32357118438E+03  0.00000000000E+00 0. -1.
          1    1    1    2  502    0  0.55497522197E+02 -0.18084645890E+03  0.20169171063E+03  0.27652298784E+03  0.00000000000E+00 0. -1.
         22    1    3    3    0    0  0.32839172013E+02  0.53788377145E+01 -0.67923540213E+02  0.75636964698E+02  0.00000000000E+00 0.  1.
         22    1    3    3    0    0 -0.10787109005E+03  0.27135205857E+02 -0.10635280591E+03  0.15389415450E+03  0.00000000000E+00 0.  1.
</event>
<event>
 7    1  0.5593520E-006  0.1592601E+03  0.7818608E-02  0.1222647E+00
          2   -1    0    0  502    0  0.00000000000E+00  0.00000000000E+00  0.13641150667E+04  0.13641150667E+04  0.00000000000E+00 0. -1.
          1   -1    0    0  501    0 -0.00000000000E+00 -0.00000000000E+00 -0.47815140375E+03  0.47815140375E+03  0.00000000000E+00 0. -1.
         25    2    1    2    0    0  0.14242365847E+02 -0.13494901957E+03 -0.29048741554E+01  0.18452024137E+03  0.12500079325E+03 0.  0.
          2    1    1    2  501    0  0.97219506625E+02  0.13968765794E+03 -0.36300048758E+03  0.40091598650E+03  0.00000000000E+00 0. -1.
          1    1    1    2  502    0 -0.11146187247E+03 -0.47386383663E+01  0.12518690246E+04  0.12568302425E+04  0.00000000000E+00 0. -1.
         22    1    3    3    0    0 -0.11802560806E+02 -0.12958643789E+03 -0.42444856781E+02  0.13687041752E+03  0.00000000000E+00 0. -1.
         22    1    3    3    0    0  0.26044926653E+02 -0.53625816820E+01  0.39539982625E+02  0.47649823847E+02  0.00000000000E+00 0. -1.
</event>
<event>
 7    1  0.5593520E-006  0.1608255E+03  0.7818608E-02  0.1205913E+00
          2   -1    0    0  502    0  0.00000000000E+00  0.00000000000E+00  0.94154588259E+03  0.94154588259E+03  0.00000000000E+00 0. -1.
          1   -1    0    0  501    0 -0.00000000000E+00 -0.00000000000E+00 -0.17448280962E+03  0.17448280962E+03  0.00000000000E+00 0. -1.
         25    2    1    2    0    0 -0.10325397640E+03  0.10428632824E+02  0.13630293492E+03  0.21209431493E+03  0.12504146646E+03 0.  0.
          2    1    1    2  501    0 -0.18579638436E+02  0.13060514290E+03 -0.89851387546E+02  0.15961258772E+03  0.00000000000E+00 0. -1.
          1    1    1    2  502    0  0.12183361483E+03 -0.14103377572E+03  0.72061152559E+03  0.74432178956E+03  0.00000000000E+00 0. -1.
         22    1    3    3    0    0 -0.54913008976E+02  0.65247151654E+02  0.49445894841E+02  0.98577511991E+02  0.00000000000E+00 0.  1.
         22    1    3    3    0    0 -0.48340967421E+02 -0.54818518831E+02  0.86857040080E+02  0.11351680294E+03  0.00000000000E+00 0.  1.
</event>
<event>
 7    1  0.5593520E-006  0.1208581E+03  0.7818608E-02  0.1341984E+00
          2   -1    0    0  502    0  0.00000000000E+00  0.00000000000E+00  0.49826265670E+03  0.49826265670E+03  0.00000000000E+00 0. -1.
          1   -1    0    0  501    0 -0.00000000000E+00 -0.00000000000E+00 -0.40763982641E+03  0.40763982641E+03  0.00000000000E+00 0. -1.
         25    2    1    2    0    0  0.50356644253E+02  0.15844795674E+03 -0.23826256165E+03  0.31628539679E+03  0.12500342925E+03 0.  0.
          2    1    1    2  501    0 -0.79947746131E+01 -0.46625485085E+02 -0.11793701355E+03  0.12707081272E+03  0.00000000000E+00 0. -1.
          1    1    1    2  502    0 -0.42361869639E+02 -0.11182247165E+03  0.44682240550E+03  0.46254627360E+03  0.00000000000E+00 0. -1.
         22    1    3    3    0    0  0.17912416575E+02  0.12331814165E+03 -0.23779048550E+03  0.26846328189E+03  0.00000000000E+00 0. -1.
         22    1    3    3    0    0  0.32444227677E+02  0.35129815090E+02 -0.47207614979E+00  0.47822114902E+02  0.00000000000E+00 0. -1.
</event>
<event>
 7    1  0.5593520E-006  0.8119244E+02  0.7818608E-02  0.1350350E+00
          2   -1    0    0  502    0  0.00000000000E+00  0.00000000000E+00  0.19306729702E+04  0.19306729702E+04  0.00000000000E+00 0. -1.
          1   -1    0    0  501    0 -0.00000000000E+00 -0.00000000000E+00 -0.12284329523E+04  0.12284329523E+04  0.00000000000E+00 0. -1.
         25    2    1    2    0    0  0.11050840749E+03  0.86410161318E+02  0.57310871086E+03  0.60312222905E+03  0.12499601837E+03 0.  0.
          2    1    1    2  501    0 -0.42983208603E+02 -0.49474277340E+02 -0.12114366124E+04  0.12132081133E+04  0.00000000000E+00 0. -1.
          1    1    1    2  502    0 -0.67525198884E+02 -0.36935883978E+02  0.13405679194E+04  0.13427755801E+04  0.00000000000E+00 0. -1.
         22    1    3    3    0    0  0.94762847134E+02  0.11863946598E+03  0.47365680755E+03  0.49739932793E+03  0.00000000000E+00 0. -1.
         22    1    3    3    0    0  0.15745560352E+02 -0.32229304663E+02  0.99451903309E+02  0.10572290112E+03  0.00000000000E+00 0. -1.
</event>
<event>
 7    1  0.5593520E-006  0.6835637E+02  0.7818608E-02  0.1448222E+00
          2   -1    0    0  502    0  0.00000000000E+00  0.00000000000E+00  0.44395755768E+02  0.44395755768E+02  0.00000000000E+00 0. -1.
          1   -1    0    0  501    0 -0.00000000000E+00 -0.00000000000E+00 -0.14188930900E+04  0.14188930900E+04  0.00000000000E+00 0. -1.
         25    2    1    2    0    0 -0.25993175967E+02 -0.44723167949E+02 -0.53721551106E+03  0.55398598199E+03  0.12499662387E+03 0.  0.
          2    1    1    2  501    0  0.30945886995E+01  0.72244147083E+02 -0.86249069287E+03  0.86551660213E+03  0.00000000000E+00 0. -1.
          1    1    1    2  502    0  0.22898587268E+02 -0.27520979134E+02  0.25208869742E+02  0.43786261601E+02  0.00000000000E+00 0. -1.
         22    1    3    3    0    0  0.14993156895E+01  0.36276066409E+02 -0.29264484621E+03  0.29488846528E+03  0.00000000000E+00 0.  1.
         22    1    3    3    0    0 -0.27492491657E+02 -0.80999234358E+02 -0.24457066484E+03  0.25909751671E+03  0.00000000000E+00 0.  1.
</event>
<event>
 7    1  0.5593520E-006  0.3566263E+02  0.7818608E-02  0.1552303E+00
          2   -1    0    0  502    0  0.00000000000E+00  0.00000000000E+00  0.19214235871E+04  0.19214235871E+04  0.00000000000E+00 0. -1.
          1   -1    0    0  501    0 -0.00000000000E+00 -0.00000000000E+00 -0.28768941941E+02  0.28768941941E+02  0.00000000000E+00 0. -1.
         25    2    1    2    0    0 -0.18946750317E+02 -0.19723653216E+02  0.21979215172E+03  0.25432559645E+03  0.12499966885E+03 0.  0.
          2    1    1    2  501    0 -0.15554687335E+02  0.29718421521E+02  0.13567203027E+02  0.36182894768E+02  0.00000000000E+00 0. -1.
          1    1    1    2  502    0  0.34501437652E+02 -0.99947683047E+01  0.16592952904E+04  0.16596840379E+04  0.00000000000E+00 0. -1.
         22    1    3    3    0    0 -0.50186483814E+02  0.30838482394E+01  0.20784882659E+03  0.21384416754E+03  0.00000000000E+00 0.  1.
         22    1    3    3    0    0  0.31239733497E+02 -0.22807501456E+02  0.11943325126E+02  0.40481428911E+02  0.00000000000E+00 0.  1.
</event>
<event>
 7    1  0.5593520E-006  0.2667023E+03  0.7818608E-02  0.1273048E+00
          2   -1    0    0  502    0  0.00000000000E+00  0.00000000000E+00  0.82421301281E+03  0.82421301281E+03  0.00000000000E+00 0. -1.
          1   -1    0    0  501    0 -0.00000000000E+00 -0.00000000000E+00 -0.19182144461E+04  0.19182144461E+04  0.00000000000E+00 0. -1.
         25    2    1    2    0    0 -0.26349753541E+03 -0.10133057142E+03  0.64743178582E+03  0.71728167365E+03  0.12500498467E+03 0.  0.
          2    1    1    2  501    0  0.25936256318E+03  0.61356678396E+02 -0.18707955296E+04  0.18896850253E+04  0.00000000000E+00 0. -1.
          1    1    1    2  502    0  0.41349722222E+01  0.39973893026E+02  0.12936231050E+03  0.13546075999E+03  0.00000000000E+00 0. -1.
         22    1    3    3    0    0 -0.15680574345E+03  0.95276257661E-01  0.27109601687E+03  0.31317902328E+03  0.00000000000E+00 0.  1.
         22    1    3    3    0    0 -0.10669179196E+03 -0.10142584768E+03  0.37633576895E+03  0.40410265038E+03  0.00000000000E+00 0.  1.
</event>
<event>
 7    1  0.5593520E-006  0.4010169E+02  0.7818608E-02  0.1575710E+00
          2   -1    0    0  502    0  0.00000000000E+00  0.00000000000E+00  0.11553026174E+04  0.11553026174E+04  0.00000000000E+00 0. -1.
          1   -1    0    0  501    0 -0.00000000000E+00 -0.00000000000E+00 -0.52578225911E+03  0.52578225911E+03  0.00000000000E+00 0. -1.
         25    2    1    2    0    0  0.75010734634E+01  0.12655924543E+02 -0.22041930510E+02  0.12777899358E+03  0.12500074388E+03 0.  0.
          2    1    1    2  501    0  0.80264721858E+01  0.24453251461E+02 -0.45013713514E+03  0.45087229477E+03  0.00000000000E+00 0. -1.
          1    1    1    2  502    0 -0.15527545649E+02 -0.37109176003E+02  0.11016994239E+04  0.11024335882E+04  0.00000000000E+00 0. -1.
         22    1    3    3    0    0 -0.17094338725E+02  0.22061773085E+02  0.46567060629E+02  0.54290232857E+02  0.00000000000E+00 0. -1.
         22    1    3    3    0    0  0.24595412188E+02 -0.94058485419E+01 -0.68608991139E+02  0.73488760723E+02  0.00000000000E+00 0. -1.
</event>
<event>
 7    1  0.5593520E-006  0.8553156E+02  0.7818608E-02  0.1343970E+00
          2   -1    0    0  502    0  0.00000000000E+00  0.00000000000E+00  0.32425280164E+04  0.32425280164E+04  0.00000000000E+00 0. -1.
          1   -1    0    0  501    0 -0.00000000000E+00 -0.00000000000E+00 -0.35743692784E+03  0.35743692784E+03  0.00000000000E+00 0. -1.
         25    2    1    2    0    0  0.36541394919E+02  0.10914855489E+03  0.64691973158E+03  0.66886368804E+03  0.12499925397E+03 0.  0.
          2    1    1    2  501    0  0.23384089751E+02 -0.82192477109E+02 -0.34077085892E+03  0.35132207052E+03  0.00000000000E+00 0. -1.
          1    1    1    2  502    0 -0.59925484671E+02 -0.26956077780E+02  0.25789422159E+04  0.25797791857E+04  0.00000000000E+00 0. -1.
         22    1    3    3    0    0  0.25453156753E+02 -0.35151479434E+01  0.35240254596E+03  0.35333804472E+03  0.00000000000E+00 0.  1.
         22    1    3    3    0    0  0.11088238166E+02  0.11266370283E+03  0.29451718562E+03  0.31552564332E+03  0.00000000000E+00 0.  1.
</event>
<event>
 7    1  0.5593520E-006  0.5526980E+02  0.7818608E-02  0.1431336E+00
          2   -1    0    0  502    0  0.00000000000E+00  0.00000000000E+00  0.18367728869E+04  0.18367728869E+04  0.00000000000E+00 0. -1.
          1   -1    0    0  501    0 -0.00000000000E+00 -0.00000000000E+00 -0.59985326262E+03  0.59985326262E+03  0.00000000000E+00 0. -1.
         25    2    1    2    0    0  0.34391633926E+02  0.15557255780E+02  0.10980935308E+04  0.11058294686E+04  0.12499839391E+03 0.  0.
          2    1    1    2  501    0 -0.15255571016E+02  0.47863480449E+02 -0.59342884074E+03  0.59555136993E+03  0.00000000000E+00 0. -1.
          1    1    1    2  502    0 -0.19136062911E+02 -0.63420736229E+02  0.73225493418E+03  0.73524531098E+03  0.00000000000E+00 0. -1.
         22    1    3    3    0    0 -0.12755535341E+02  0.95968051204E+01  0.95336210469E+03  0.95349572888E+03  0.00000000000E+00 0. -1.
         22    1    3    3    0    0  0.47147169267E+02  0.59604506597E+01  0.14473142616E+03  0.15233373973E+03  0.00000000000E+00 0. -1.
</event>
<event>
 7    1  0.5593520E-006  0.7956583E+02  0.7818608E-02  0.1413052E+00
          2   -1    0    0  502    0  0.00000000000E+00  0.00000000000E+00  0.42886872697E+02  0.42886872697E+02  0.00000000000E+00 0. -1.
          1   -1    0    0  501    0 -0.00000000000E+00 -0.00000000000E+00 -0.13834629671E+04  0.13834629671E+04  0.00000000000E+00 0. -1.
         25    2    1    2    0    0  0.20901721845E+02  0.39596525858E+02 -0.23438203308E+03  0.26937838102E+03  0.12500003158E+03 0.  0.
          2    1    1    2  501    0 -0.21981858778E+02 -0.79728775282E+02 -0.11131572342E+04  0.11162252943E+04  0.00000000000E+00 0. -1.
          1    1    1    2  502    0  0.10801369333E+01  0.40132249424E+02  0.69631728573E+01  0.40746164431E+02  0.00000000000E+00 0. -1.
         22    1    3    3    0    0 -0.27640506732E+02  0.11340997720E+02 -0.20270434676E+03  0.20489428503E+03  0.00000000000E+00 0. -1.
         22    1    3    3    0    0  0.48542228578E+02  0.28255528138E+02 -0.31677686320E+02  0.64484095994E+02  0.00000000000E+00 0. -1.
</event>
<event>
 7    1  0.5593520E-006  0.9533602E+02  0.7818608E-02  0.1417864E+00
          2   -1    0    0  502    0  0.00000000000E+00  0.00000000000E+00  0.20215649684E+04  0.20215649684E+04  0.00000000000E+00 0. -1.
          1   -1    0    0  501    0 -0.00000000000E+00 -0.00000000000E+00 -0.33392420500E+03  0.33392420500E+03  0.00000000000E+00 0. -1.
         25    2    1    2    0    0 -0.11058280056E+03 -0.95175079325E+01  0.98865682565E+03  0.10026892973E+04  0.12499747725E+03 0.  0.
          2    1    1    2  501    0  0.93557157447E+02 -0.17908172956E+02 -0.31970788234E+03  0.33359672420E+03  0.00000000000E+00 0. -1.
          1    1    1    2  502    0  0.17025643117E+02  0.27425680889E+02  0.10186918201E+04  0.10192031519E+04  0.00000000000E+00 0. -1.
         22    1    3    3    0    0 -0.13861712056E+03 -0.47494414022E+01  0.82720150979E+03  0.83874883076E+03  0.00000000000E+00 0. -1.
         22    1    3    3    0    0  0.28034319993E+02 -0.47680665303E+01  0.16145531586E+03  0.16394046656E+03  0.00000000000E+00 0. -1.
</event>
<event>
 7    1  0.5593520E-006  0.8705002E+02  0.7818608E-02  0.1394476E+00
          2   -1    0    0  502    0  0.00000000000E+00  0.00000000000E+00  0.60985420557E+03  0.60985420557E+03  0.00000000000E+00 0. -1.
          1   -1    0    0  501    0 -0.00000000000E+00 -0.00000000000E+00 -0.54774482768E+03  0.54774482768E+03  0.00000000000E+00 0. -1.
         25    2    1    2    0    0 -0.99914088995E+02  0.10716005858E+02 -0.33454543705E+03  0.37100106066E+03  0.12499391826E+03 0.  0.
          2    1    1    2  501    0  0.17522644619E+02 -0.38692599968E+02 -0.18940744751E+03  0.19411167285E+03  0.00000000000E+00 0. -1.
          1    1    1    2  502    0  0.82391444376E+02  0.27976594110E+02  0.58606226244E+03  0.59248629975E+03  0.00000000000E+00 0. -1.
         22    1    3    3    0    0 -0.12433890758E+03  0.56932445154E+01 -0.21110454521E+03  0.24506673781E+03  0.00000000000E+00 0.  1.
         22    1    3    3    0    0  0.24424818589E+02  0.50227613430E+01 -0.12344089183E+03  0.12593432285E+03  0.00000000000E+00 0.  1.
</event>
<event>
 7    1  0.5593520E-006  0.4363028E+02  0.7818608E-02  0.1505481E+00
          2   -1    0    0  502    0  0.00000000000E+00  0.00000000000E+00  0.79177431119E+03  0.79177431119E+03  0.00000000000E+00 0. -1.
          1   -1    0    0  501    0 -0.00000000000E+00 -0.00000000000E+00 -0.15343110561E+03  0.15343110561E+03  0.00000000000E+00 0. -1.
         25    2    1    2    0    0  0.53842496176E+02 -0.36674079708E+02  0.67028396485E+03  0.68494344072E+03  0.12499168347E+03 0.  0.
          2    1    1    2  501    0 -0.16655952506E+02  0.40268074086E+02 -0.13963231825E+03  0.14627413593E+03  0.00000000000E+00 0. -1.
          1    1    1    2  502    0 -0.37186543670E+02 -0.35939943774E+01  0.10769155898E+03  0.11398784014E+03  0.00000000000E+00 0. -1.
         22    1    3    3    0    0 -0.18925342280E+02 -0.52242417550E+02  0.16253403343E+03  0.17176946992E+03  0.00000000000E+00 0.  1.
         22    1    3    3    0    0  0.72767838456E+02  0.15568337842E+02  0.50774993142E+03  0.51317397080E+03  0.00000000000E+00 0.  1.
</event>
<event>
 7    1  0.5593520E-006  0.1471948E+03  0.7818608E-02  0.1288392E+00
          2   -1    0    0  502    0  0.00000000000E+00  0.00000000000E+00  0.18322651517E+04  0.18322651517E+04  0.00000000000E+00 0. -1.
          1   -1    0    0  501    0 -0.00000000000E+00 -0.00000000000E+00 -0.15343334383E+04  0.15343334383E+04  0.00000000000E+00 0. -1.
         25    2    1    2    0    0 -0.14857582183E+03 -0.69431580513E+02  0.42428640681E+03  0.47174154504E+03  0.12500244441E+03 0.  0.
          2    1    1    2  501    0  0.49866123297E+02 -0.38392539397E+02 -0.15060874647E+04  0.15074017608E+04  0.00000000000E+00 0. -1.
          1    1    1    2  502    0  0.98709698529E+02  0.10782411991E+03  0.13797327712E+04  0.13874552841E+04  0.00000000000E+00 0. -1.
         22    1    3    3    0    0 -0.14105256482E+03 -0.86231580835E+02  0.27167212805E+03  0.31802115769E+03  0.00000000000E+00 0.  1.
         22    1    3    3    0    0 -0.75232570019E+01  0.16800000322E+02  0.15261427876E+03  0.15372038735E+03  0.00000000000E+00 0.  1.
</event>
<event>
 7    1  0.5593520E-006  0.1763225E+03  0.7818608E-02  0.1310789E+00
          2   -1    0    0  502    0  0.00000000000E+00  0.00000000000E+00  0.10270309541E+04  0.10270309541E+04  0.00000000000E+00 0. -1.
          1   -1    0    0  501    0 -0.00000000000E+00 -0.00000000000E+00 -0.59141636670E+03  0.59141636670E+03  0.00000000000E+00 0. -1.
         25    2    1    2    0    0 -0.10786481910E+03 -0.18341043797E+03  0.16707848211E+03  0.29801565884E+03  0.12499562300E+03 0.  0.
          2    1    1    2  501    0  0.73696846702E+02  0.15775004804E+03 -0.51093622421E+03  0.53978896624E+03  0.00000000000E+00 0. -1.
          1    1    1    2  502    0  0.34167972395E+02  0.25660389934E+02  0.77947232944E+03  0.78064269568E+03  0.00000000000E+00 0. -1.
         22    1    3    3    0    0  0.28507448967E+02 -0.29677298978E+02  0.31421742615E+02  0.51775888502E+02  0.00000000000E+00 0. -1.
         22    1    3    3    0    0 -0.13637226806E+03 -0.15373313900E+03  0.13565673950E+03  0.24623977033E+03  0.00000000000E+00 0. -1.
</event>
<event>
 7    1  0.5593520E-006  0.4670117E+02  0.7818608E-02  0.1537926E+00
          2   -1    0    0  502    0  0.00000000000E+00  0.00000000000E+00  0.26826342397E+04  0.26826342397E+04  0.00000000000E+00 0. -1.
          1   -1    0    0  501    0 -0.00000000000E+00 -0.00000000000E+00 -0.17006145109E+02  0.17006145109E+02  0.00000000000E+00 0. -1.
         25    2    1    2    0    0 -0.11630016599E+02  0.16808171854E+02  0.67547187103E+03  0.68724429321E+03  0.12499879225E+03 0.  0.
          2    1    1    2  501    0 -0.22133981125E+02  0.17327195268E+02  0.74115620211E+01  0.29070192085E+02  0.00000000000E+00 0. -1.
          1    1    1    2  502    0  0.33763997723E+02 -0.34135367122E+02  0.19827446615E+04  0.19833258995E+04  0.00000000000E+00 0. -1.
         22    1    3    3    0    0  0.56649262544E+02  0.19238887947E+01  0.31573857333E+03  0.32078604549E+03  0.00000000000E+00 0. -1.
         22    1    3    3    0    0 -0.68279279143E+02  0.14884283059E+02  0.35973329770E+03  0.36645824771E+03  0.00000000000E+00 0. -1.
</event>
<event>
 7    1  0.5593520E-006  0.5999116E+02  0.7818608E-02  0.1512992E+00
          2   -1    0    0  502    0  0.00000000000E+00  0.00000000000E+00  0.61863671633E+02  0.61863671633E+02  0.00000000000E+00 0. -1.
          1   -1    0    0  501    0 -0.00000000000E+00 -0.00000000000E+00 -0.21846233055E+04  0.21846233055E+04  0.00000000000E+00 0. -1.
         25    2    1    2    0    0 -0.40807184000E+02 -0.82535313504E+00 -0.56063061962E+03  0.57584454662E+03  0.12499737092E+03 0.  0.
          2    1    1    2  501    0 -0.16855711233E+02  0.19560222507E+02 -0.15993108937E+04  0.15995193191E+04  0.00000000000E+00 0. -1.
          1    1    1    2  502    0  0.57662895233E+02 -0.18734869372E+02  0.37181879490E+02  0.71123111430E+02  0.00000000000E+00 0. -1.
         22    1    3    3    0    0 -0.63654298011E+01 -0.54667888483E+01  0.45848524742E+01  0.95616603723E+01  0.00000000000E+00 0.  1.
         22    1    3    3    0    0 -0.34441754199E+02  0.46414357132E+01 -0.56521547210E+03  0.56628288625E+03  0.00000000000E+00 0.  1.
</event>
<event>
 7    1  0.5593520E-006  0.6760692E+02  0.7818608E-02  0.1483361E+00
          2   -1    0    0  502    0  0.00000000000E+00  0.00000000000E+00  0.23292273712E+03  0.23292273712E+03  0.00000000000E+00 0. -1.
          1   -1    0    0  501    0 -0.00000000000E+00 -0.00000000000E+00 -0.13190455342E+04  0.13190455342E+04  0.00000000000E+00 0. -1.
         25    2    1    2    0    0  0.96691076529E+01  0.94676204987E+02  0.17661417933E+02  0.15809220265E+03  0.12499657364E+03 0.  0.
          2    1    1    2  501    0 -0.36708792312E+01 -0.67222961095E+02 -0.12465521885E+04  0.12483688399E+04  0.00000000000E+00 0. -1.
          1    1    1    2  502    0 -0.59982284217E+01 -0.27453243892E+02  0.14276797352E+03  0.14550722871E+03  0.00000000000E+00 0. -1.
         22    1    3    3    0    0 -0.14844523632E+01 -0.29322708401E+02 -0.91212730282E+01  0.30744470209E+02  0.00000000000E+00 0.  1.
         22    1    3    3    0    0  0.11153560016E+02  0.12399891339E+03  0.26782690961E+02  0.12734773244E+03  0.00000000000E+00 0.  1.
</event>
<event>
 7    1  0.5593520E-006  0.8285565E+02  0.7818608E-02  0.1356519E+00
          2   -1    0    0  502    0  0.00000000000E+00  0.00000000000E+00  0.41745450423E+03  0.41745450423E+03  0.00000000000E+00 0. -1.
          1   -1    0    0  501    0 -0.00000000000E+00 -0.00000000000E+00 -0.35481958793E+03  0.35481958793E+03  0.00000000000E+00 0. -1.
         25    2    1    2    0    0  0.28071675041E+02 -0.69485075867E+02  0.95969731793E+02  0.17450762596E+03  0.12500610941E+03 0.  0.
          2    1    1    2  501    0 -0.59767733729E+02 -0.11930103073E+02 -0.30570803080E+03  0.31172409187E+03  0.00000000000E+00 0. -1.
          1    1    1    2  502    0  0.31696058687E+02  0.81415178940E+02  0.27237321531E+03  0.28604237434E+03  0.00000000000E+00 0. -1.
         22    1    3    3    0    0 -0.22081590619E+02 -0.26910953244E+02  0.10264096860E+03  0.10838341425E+03  0.00000000000E+00 0. -1.
         22    1    3    3    0    0  0.50153265660E+02 -0.42574122624E+02 -0.66712368111E+01  0.66124211709E+02  0.00000000000E+00 0. -1.
</event>
<event>
 7    1  0.5593520E-006  0.6794912E+02  0.7818608E-02  0.1399089E+00
          2   -1    0    0  502    0  0.00000000000E+00  0.00000000000E+00  0.75527895437E+02  0.75527895437E+02  0.00000000000E+00 0. -1.
          1   -1    0    0  501    0 -0.00000000000E+00 -0.00000000000E+00 -0.17948010341E+04  0.17948010341E+04  0.00000000000E+00 0. -1.
         25    2    1    2    0    0  0.48285278377E+02 -0.88000489539E+02 -0.53829105285E+03  0.56165778405E+03  0.12500661797E+03 0.  0.
          2    1    1    2  501    0 -0.52998880756E+00  0.66299232784E+02 -0.12330092726E+04  0.12347905634E+04  0.00000000000E+00 0. -1.
          1    1    1    2  502    0 -0.47755289570E+02  0.21701256755E+02  0.52027186855E+02  0.73880582014E+02  0.00000000000E+00 0. -1.
         22    1    3    3    0    0  0.37274480884E+02 -0.94784516721E+02 -0.53915997261E+03  0.54869569672E+03  0.00000000000E+00 0. -1.
         22    1    3    3    0    0  0.11010797493E+02  0.67840271824E+01  0.86891976387E+00  0.12962087324E+02  0.00000000000E+00 0. -1.
</event>
<event>
 7    1  0.5593520E-006  0.8176892E+02  0.7818608E-02  0.1399397E+00
          2   -1    0    0  502    0  0.00000000000E+00  0.00000000000E+00  0.26238987120E+04  0.26238987120E+04  0.00000000000E+00 0. -1.
          1   -1    0    0  501    0 -0.00000000000E+00 -0.00000000000E+00 -0.22661556774E+03  0.22661556774E+03  0.00000000000E+00 0. -1.
         25    2    1    2    0    0 -0.42682627026E+02 -0.36359577351E+02  0.57849397151E+02  0.14871234054E+03  0.12499992785E+03 0.  0.
          2    1    1    2  501    0 -0.38113815543E+02  0.20931632744E+02 -0.17789367144E+03  0.18313097642E+03  0.00000000000E+00 0. -1.
          1    1    1    2  502    0  0.80796442569E+02  0.15427944607E+02  0.25173274185E+04  0.25186709628E+04  0.00000000000E+00 0. -1.
         22    1    3    3    0    0 -0.53211686124E+02 -0.50818662316E+02 -0.13801005311E+02  0.74863126620E+02  0.00000000000E+00 0.  1.
         22    1    3    3    0    0  0.10529059098E+02  0.14459084964E+02  0.71650402462E+02  0.73849213919E+02  0.00000000000E+00 0.  1.
</event>
<event>
 7    1  0.5593520E-006  0.1533157E+03  0.7818608E-02  0.1240042E+00
          2   -1    0    0  502    0  0.00000000000E+00  0.00000000000E+00  0.28281037200E+04  0.28281037200E+04  0.00000000000E+00 0. -1.
          1   -1    0    0  501    0 -0.00000000000E+00 -0.00000000000E+00 -0.22403372099E+03  0.22403372099E+03  0.00000000000E+00 0. -1.
         25    2    1    2    0    0 -0.59035671099E+02 -0.16867645940E+03 -0.52513484119E+02  0.22431996583E+03  0.12499929056E+03 0.  0.
          2    1    1    2  501    0 -0.34071590683E+02  0.14192131640E+03 -0.21895582371E+02  0.14758709248E+03  0.00000000000E+00 0. -1.
          1    1    1    2  502    0  0.93107261781E+02  0.26755142998E+02  0.26784790655E+04  0.26802303827E+04  0.00000000000E+00 0. -1.
         22    1    3    3    0    0 -0.51705278688E+01 -0.46663757971E+02  0.40264641216E+02  0.61850480990E+02  0.00000000000E+00 0.  1.
         22    1    3    3    0    0 -0.53865143230E+02 -0.12201270143E+03 -0.92778125336E+02  0.16246948484E+03  0.00000000000E+00 0.  1.
</event>
<event>
 7    1  0.5593520E-006  0.7430432E+02  0.7818608E-02  0.1492738E+00
          2   -1    0    0  502    0  0.00000000000E+00  0.00000000000E+00  0.18585801084E+03  0.18585801084E+03  0.00000000000E+00 0. -1.
          1   -1    0    0  501    0 -0.00000000000E+00 -0.00000000000E+00 -0.14086832211E+04  0.14086832211E+04  0.00000000000E+00 0. -1.
         25    2    1    2    0    0  0.32099047941E+02 -0.46875398854E+02 -0.10891777333E+03  0.17529234384E+03  0.12504668154E+03 0.  0.
          2    1    1    2  501    0 -0.46187219392E+01 -0.23497386670E+02 -0.12571110539E+04  0.12573391195E+04  0.00000000000E+00 0. -1.
          1    1    1    2  502    0 -0.27480326002E+02  0.70372785524E+02  0.14320361692E+03  0.16190976857E+03  0.00000000000E+00 0. -1.
         22    1    3    3    0    0 -0.34015054351E+02 -0.39532726340E+02 -0.56544898682E+01  0.52457922472E+02  0.00000000000E+00 0. -1.
         22    1    3    3    0    0  0.66114102292E+02 -0.73426725136E+01 -0.10326328346E+03  0.12283442136E+03  0.00000000000E+00 0. -1.
</event>
<event>
 7    1  0.5593520E-006  0.6569249E+02  0.7818608E-02  0.1385949E+00
          2   -1    0    0  502    0  0.00000000000E+00  0.00000000000E+00  0.15409678975E+03  0.15409678975E+03  0.00000000000E+00 0. -1.
          1   -1    0    0  501    0 -0.00000000000E+00 -0.00000000000E+00 -0.25951737782E+04  0.25951737782E+04  0.00000000000E+00 0. -1.
         25    2    1    2    0    0  0.22793792702E+02 -0.12017237148E+00 -0.13740165973E+04  0.13798790448E+04  0.12499998895E+03 0.  0.
          2    1    1    2  501    0  0.47427522901E+01  0.60088415873E+02 -0.12102385570E+04  0.12117386172E+04  0.00000000000E+00 0. -1.
          1    1    1    2  502    0 -0.27536544993E+02 -0.59968243501E+02  0.14317816593E+03  0.15765290590E+03  0.00000000000E+00 0. -1.
         22    1    3    3    0    0 -0.29007522784E+02  0.19431401402E+02 -0.10875743174E+04  0.10881346018E+04  0.00000000000E+00 0. -1.
         22    1    3    3    0    0  0.51801315487E+02 -0.19551573773E+02 -0.28644227989E+03  0.29174444301E+03  0.00000000000E+00 0. -1.
</event>
<event>
 7    1  0.5593520E-006  0.7713362E+02  0.7818608E-02  0.1443801E+00
          2   -1    0    0  502    0  0.00000000000E+00  0.00000000000E+00  0.85954626411E+03  0.85954626411E+03  0.00000000000E+00 0. -1.
          1   -1    0    0  501    0 -0.00000000000E+00 -0.00000000000E+00 -0.37314155088E+02  0.37314155088E+02  0.00000000000E+00 0. -1.
         25    2    1    2    0    0 -0.62767511763E+02  0.33294943936E+02  0.40077316208E+03  0.42578480581E+03  0.12500103836E+03 0.  0.
          2    1    1    2  501    0  0.48111556823E+02 -0.62620852766E+02  0.40574408472E+02  0.88782744517E+02  0.00000000000E+00 0. -1.
          1    1    1    2  502    0  0.14655954941E+02  0.29325908831E+02  0.38088453847E+03  0.38229286887E+03  0.00000000000E+00 0. -1.
         22    1    3    3    0    0 -0.71118919415E+02  0.71318543768E+02  0.32979095261E+03  0.34482793942E+03  0.00000000000E+00 0.  1.
         22    1    3    3    0    0  0.83514076516E+01 -0.38023599832E+02  0.70982209472E+02  0.80956866389E+02  0.00000000000E+00 0.  1.
</event>
<event>
 7    1  0.5593520E-006  0.6968933E+02  0.7818608E-02  0.1507861E+00
          2   -1    0    0  502    0  0.00000000000E+00  0.00000000000E+00  0.18036431951E+03  0.18036431951E+03  0.00000000000E+00 0. -1.
          1   -1    0    0  501    0 -0.00000000000E+00 -0.00000000000E+00 -0.74095437744E+03  0.74095437744E+03  0.00000000000E+00 0. -1.
         25    2    1    2    0    0  0.39218497097E+02 -0.73971067337E+02 -0.46903043999E+02  0.15759415626E+03  0.12500485285E+03 0.  0.
          2    1    1    2  501    0 -0.45862171001E+02  0.51937029150E+02 -0.63574819307E+03  0.63951275102E+03  0.00000000000E+00 0. -1.
          1    1    1    2  502    0  0.66436739042E+01  0.22034038186E+02  0.12206117914E+03  0.12421178967E+03  0.00000000000E+00 0. -1.
         22    1    3    3    0    0 -0.29306827186E+02 -0.59975643602E+02  0.99129392942E+01  0.67485067316E+02  0.00000000000E+00 0. -1.
         22    1    3    3    0    0  0.68525324283E+02 -0.13995423735E+02 -0.56815983293E+02  0.90109088949E+02  0.00000000000E+00 0. -1.
</event>
<event>
 7    1  0.5593520E-006  0.7413263E+02  0.7818608E-02  0.1395796E+00
          2   -1    0    0  502    0  0.00000000000E+00  0.00000000000E+00  0.70762673808E+03  0.70762673808E+03  0.00000000000E+00 0. -1.
          1   -1    0    0  501    0 -0.00000000000E+00 -0.00000000000E+00 -0.20757426527E+04  0.20757426527E+04  0.00000000000E+00 0. -1.
         25    2    1    2    0    0 -0.27546359238E+02  0.19413452313E+02  0.22814918185E+03  0.26232030444E+03  0.12499683558E+03 0.  0.
          2    1    1    2  501    0 -0.37311998930E+02  0.32306025403E+02 -0.20546377574E+04  0.20552304442E+04  0.00000000000E+00 0. -1.
          1    1    1    2  502    0  0.64858358168E+02 -0.51719477716E+02  0.45837266099E+03  0.46581864211E+03  0.00000000000E+00 0. -1.
         22    1    3    3    0    0  0.34324917494E+02 -0.29511146678E+01  0.12161265703E+02  0.36534989014E+02  0.00000000000E+00 0. -1.
         22    1    3    3    0    0 -0.61871276732E+02  0.22364566981E+02  0.21598791615E+03  0.22578531542E+03  0.00000000000E+00 0. -1.
</event>
<event>
 7    1  0.5593520E-006  0.5292062E+02  0.7818608E-02  0.1518872E+00
          2   -1    0    0  502    0  0.00000000000E+00  0.00000000000E+00  0.13939804329E+04  0.13939804329E+04  0.00000000000E+00 0. -1.
          1   -1    0    0  501    0 -0.00000000000E+00 -0.00000000000E+00 -0.33027034255E+03  0.33027034255E+03  0.00000000000E+00 0. -1.
         25    2    1    2    0    0 -0.16654246120E+02  0.32653866466E+02  0.14139633051E+03  0.19225355709E+03  0.12499947608E+03 0.  0.
          2    1    1    2  501    0  0.44563040322E+02 -0.29084265409E+02 -0.30235659665E+03  0.30700369801E+03  0.00000000000E+00 0. -1.
          1    1    1    2  502    0 -0.27908794202E+02 -0.35696010576E+01  0.12246703565E+04  0.12249935203E+04  0.00000000000E+00 0. -1.
         22    1    3    3    0    0  0.67008041619E+01 -0.31222878069E+02 -0.35630505998E+01  0.32131981279E+02  0.00000000000E+00 0. -1.
         22    1    3    3    0    0 -0.23355050282E+02  0.63876744536E+02  0.14495938111E+03  0.16012157581E+03  0.00000000000E+00 0. -1.
</event>
<event>
 7    1  0.5593520E-006  0.1373473E+03  0.7818608E-02  0.1316565E+00
          2   -1    0    0  502    0  0.00000000000E+00  0.00000000000E+00  0.28905701739E+03  0.28905701739E+03  0.00000000000E+00 0. -1.
          1   -1    0    0  501    0 -0.00000000000E+00 -0.00000000000E+00 -0.59796304403E+03  0.59796304403E+03  0.00000000000E+00 0. -1.
         25    2    1    2    0    0  0.10251053097E+03 -0.22499285070E+02 -0.33142729263E+03  0.36944012169E+03  0.12500930534E+03 0.  0.
          2    1    1    2  501    0  0.35963166614E+02  0.37657127467E+02 -0.22641127814E+03  0.23232192207E+03  0.00000000000E+00 0. -1.
          1    1    1    2  502    0 -0.13847369759E+03 -0.15157842397E+02  0.24893254414E+03  0.28525801766E+03  0.00000000000E+00 0. -1.
         22    1    3    3    0    0  0.11241385572E+03  0.18088680817E+02 -0.18555881056E+03  0.21770656285E+03  0.00000000000E+00 0. -1.
         22    1    3    3    0    0 -0.99033247427E+01 -0.40587965887E+02 -0.14586848207E+03  0.15173355884E+03  0.00000000000E+00 0. -1.
</event>
<event>
 7    1  0.5593520E-006  0.1326482E+03  0.7818608E-02  0.1385976E+00
          2   -1    0    0  502    0  0.00000000000E+00  0.00000000000E+00  0.93554406367E+03  0.93554406367E+03  0.00000000000E+00 0. -1.
          1   -1    0    0  501    0 -0.00000000000E+00 -0.00000000000E+00 -0.27883718406E+03  0.27883718406E+03  0.00000000000E+00 0. -1.
         25    2    1    2    0    0 -0.10407221145E+03  0.87129549401E+02  0.32270796536E+03  0.37173850416E+03  0.12500600383E+03 0.  0.
          2    1    1    2  501    0 -0.13723487333E+02 -0.26501653094E+02 -0.24595010008E+03  0.24775415931E+03  0.00000000000E+00 0. -1.
          1    1    1    2  502    0  0.11779569879E+03 -0.60627896307E+02  0.57994901433E+03  0.59488858427E+03  0.00000000000E+00 0. -1.
         22    1    3    3    0    0 -0.12644139669E+03  0.95760598934E+02  0.29621227230E+03  0.33600480557E+03  0.00000000000E+00 0. -1.
         22    1    3    3    0    0  0.22369185238E+02 -0.86310495326E+01  0.26495693058E+02  0.35733698590E+02  0.00000000000E+00 0. -1.
</event>
<event>
 7    1  0.5593520E-006  0.1220355E+03  0.7818608E-02  0.1246078E+00
          2   -1    0    0  502    0  0.00000000000E+00  0.00000000000E+00  0.40121521685E+03  0.40121521685E+03  0.00000000000E+00 0. -1.
          1   -1    0    0  501    0 -0.00000000000E+00 -0.00000000000E+00 -0.33896001811E+04  0.33896001811E+04  0.00000000000E+00 0. -1.
         25    2    1    2    0    0 -0.15283291693E+03  0.17073092241E+03 -0.80545025204E+03  0.84668841173E+03  0.12499683873E+03 0.  0.
          2    1    1    2  501    0  0.70123956775E+02 -0.91542097578E+02 -0.25535875701E+04  0.25561898997E+04  0.00000000000E+00 0. -1.
          1    1    1    2  502    0  0.82708960150E+02 -0.79188824832E+02  0.37065285789E+03  0.38793708656E+03  0.00000000000E+00 0. -1.
         22    1    3    3    0    0 -0.18445938600E+02  0.53216812530E+02 -0.39637623975E+03  0.40035784646E+03  0.00000000000E+00 0.  1.
         22    1    3    3    0    0 -0.13438697833E+03  0.11751410988E+03 -0.40907401229E+03  0.44633056527E+03  0.00000000000E+00 0.  1.
</event>
<event>
 7    1  0.5593520E-006  0.1144188E+03  0.7818608E-02  0.1310635E+00
          2   -1    0    0  502    0  0.00000000000E+00  0.00000000000E+00  0.31961359235E+04  0.31961359235E+04  0.00000000000E+00 0. -1.
          1   -1    0    0  501    0 -0.00000000000E+00 -0.00000000000E+00 -0.17506207112E+04  0.17506207112E+04  0.00000000000E+00 0. -1.
         25    2    1    2    0    0  0.95008518170E+02 -0.67515213866E+02  0.88335995826E+02  0.19238876409E+03  0.12500106305E+03 0.  0.
          2    1    1    2  501    0 -0.41965387240E+02  0.10669061651E+03 -0.16963034146E+04  0.17001733017E+04  0.00000000000E+00 0. -1.
          1    1    1    2  502    0 -0.53043130929E+02 -0.39175402645E+02  0.30534826312E+04  0.30541945689E+04  0.00000000000E+00 0. -1.
         22    1    3    3    0    0  0.63659179505E+02 -0.96588302471E+02  0.29010517941E+02  0.11926190280E+03  0.00000000000E+00 0.  1.
         22    1    3    3    0    0  0.31349338664E+02  0.29073088604E+02  0.59325477885E+02  0.73126861289E+02  0.00000000000E+00 0.  1.
</event>
<event>
 7    1  0.5593520E-006  0.1920227E+03  0.7818608E-02  0.1224153E+00
          2   -1    0    0  502    0  0.00000000000E+00  0.00000000000E+00  0.31951613763E+04  0.31951613763E+04  0.00000000000E+00 0. -1.
          1   -1    0    0  501    0 -0.00000000000E+00 -0.00000000000E+00 -0.47194964544E+03  0.47194964544E+03  0.00000000000E+00 0. -1.
         25    2    1    2    0    0  0.22059565704E+03  0.16057156795E+03 -0.21345862722E+03  0.36828666530E+03  0.12499923984E+03 0.  0.
          2    1    1    2  501    0 -0.88261755356E+02 -0.22501548982E+02 -0.16648953338E+03  0.18977676857E+03  0.00000000000E+00 0. -1.
          1    1    1    2  502    0 -0.13233390169E+03 -0.13807001897E+03  0.31031598914E+04  0.31090475879E+04  0.00000000000E+00 0. -1.
         22    1    3    3    0    0  0.42872342019E+02  0.17075728798E+01  0.71430009548E+01  0.43496850208E+02  0.00000000000E+00 0. -1.
         22    1    3    3    0    0  0.17772331502E+03  0.15886399507E+03 -0.22060162817E+03  0.32478981509E+03  0.00000000000E+00 0. -1.
</event>
<event>
 7    1  0.5593520E-006  0.9544813E+02  0.7818608E-02  0.1426993E+00
          2   -1    0    0  502    0  0.00000000000E+00  0.00000000000E+00  0.11438739675E+04  0.11438739675E+04  0.00000000000E+00 0. -1.
          1   -1    0    0  501    0 -0.00000000000E+00 -0.00000000000E+00 -0.31371816816E+03  0.31371816816E+03  0.00000000000E+00 0. -1.
         25    2    1    2    0    0  0.25698888225E+02 -0.12098369028E+03  0.17503408718E+03  0.24811191511E+03  0.12500041831E+03 0.  0.
          2    1    1    2  501    0 -0.69486878458E+01  0.29250136017E+02 -0.27400417328E+03  0.27564858369E+03  0.00000000000E+00 0. -1.
          1    1    1    2  502    0 -0.18750200380E+02  0.91733554261E+02  0.92912588544E+03  0.93383163685E+03  0.00000000000E+00 0. -1.
         22    1    3    3    0    0 -0.16172277679E+02 -0.13036336988E+03  0.11681900545E+03  0.17579201008E+03  0.00000000000E+00 0.  1.
         22    1    3    3    0    0  0.41871165905E+02  0.93796796045E+01  0.58215081722E+02  0.72319905030E+02  0.00000000000E+00 0.  1.
</event>
<event>
 7    1  0.5593520E-006  0.5945665E+02  0.7818608E-02  0.1404980E+00
          2   -1    0    0  502    0  0.00000000000E+00  0.00000000000E+00  0.68225166137E+02  0.68225166137E+02  0.00000000000E+00 0. -1.
          1   -1    0    0  501    0 -0.00000000000E+00 -0.00000000000E+00 -0.12685833965E+04  0.12685833965E+04  0.00000000000E+00 0. -1.
         25    2    1    2    0    0  0.17064104974E+02 -0.77233125248E+02 -0.29562632071E+03  0.33056957631E+03  0.12500073588E+03 0.  0.
          2    1    1    2  501    0  0.33832202039E+02  0.46150551554E+02 -0.93678699071E+03  0.93853308800E+03  0.00000000000E+00 0. -1.
          1    1    1    2  502    0 -0.50896307012E+02  0.31082573694E+02  0.32055081017E+02  0.67705898368E+02  0.00000000000E+00 0. -1.
         22    1    3    3    0    0 -0.50173684362E+02 -0.44881881355E+02 -0.18731482751E+03  0.19904428272E+03  0.00000000000E+00 0. -1.
         22    1    3    3    0    0  0.67237789335E+02 -0.32351243893E+02 -0.10831149320E+03  0.13152529359E+03  0.00000000000E+00 0. -1.
</event>
<event>
 7    1  0.5593520E-006  0.8113717E+02  0.7818608E-02  0.1355207E+00
          2   -1    0    0  502    0  0.00000000000E+00  0.00000000000E+00  0.28482259212E+04  0.28482259212E+04  0.00000000000E+00 0. -1.
          1   -1    0    0  501    0 -0.00000000000E+00 -0.00000000000E+00 -0.21479389671E+03  0.21479389671E+03  0.00000000000E+00 0. -1.
         25    2    1    2    0    0  0.45356433068E+02 -0.49571571594E+02  0.21908653861E+04  0.21954565364E+04  0.12499486508E+03 0.  0.
          2    1    1    2  501    0  0.62908242182E+02 -0.17249434205E+01 -0.20219692050E+03  0.21176405980E+03  0.00000000000E+00 0. -1.
          1    1    1    2  502    0 -0.10826467525E+03  0.51296515014E+02  0.64476355888E+03  0.65579922173E+03  0.00000000000E+00 0. -1.
         22    1    3    3    0    0 -0.11089675161E+01 -0.82332729754E+02  0.14986522574E+04  0.15009125547E+04  0.00000000000E+00 0.  1.
         22    1    3    3    0    0  0.46465400584E+02  0.32761158160E+02  0.69221312873E+03  0.69454398171E+03  0.00000000000E+00 0.  1.
</event>
<event>
 7    1  0.5593520E-006  0.3759627E+03  0.7818608E-02  0.1178009E+00
          2   -1    0    0  502    0  0.00000000000E+00  0.00000000000E+00  0.74223537190E+03  0.74223537190E+03  0.00000000000E+00 0. -1.
          1   -1    0    0  501    0 -0.00000000000E+00 -0.00000000000E+00 -0.11313945935E+04  0.11313945935E+04  0.00000000000E+00 0. -1.
         25    2    1    2    0    0  0.40046546100E+03  0.17986180111E+02 -0.21242786768E+02  0.42044098334E+03  0.12499310521E+03 0.  0.
          2    1    1    2  501    0 -0.36865369583E+03  0.51838771113E+02 -0.86946083289E+03  0.94580914860E+03  0.00000000000E+00 0. -1.
          1    1    1    2  502    0 -0.31811765168E+02 -0.69824951224E+02  0.50154439804E+03  0.50737983348E+03  0.00000000000E+00 0. -1.
         22    1    3    3    0    0  0.38472350136E+03 -0.13653674328E+01 -0.43283511233E+02  0.38715306931E+03  0.00000000000E+00 0. -1.
         22    1    3    3    0    0  0.15741959641E+02  0.19351547544E+02  0.22040724464E+02  0.33287914032E+02  0.00000000000E+00 0. -1.
</event>
<event>
 7    1  0.5593520E-006  0.7915265E+02  0.7818608E-02  0.1504995E+00
          2   -1    0    0  502    0  0.00000000000E+00  0.00000000000E+00  0.18708172014E+04  0.18708172014E+04  0.00000000000E+00 0. -1.
          1   -1    0    0  501    0 -0.00000000000E+00 -0.00000000000E+00 -0.42275672701E+03  0.42275672701E+03  0.00000000000E+00 0. -1.
         25    2    1    2    0    0 -0.71357242976E+02  0.72563129726E+01 -0.91074972875E+02  0.17048031844E+03  0.12499751233E+03 0.  0.
          2    1    1    2  501    0 -0.69118997365E+01 -0.19471261227E+02 -0.29075555269E+03  0.29148875757E+03  0.00000000000E+00 0. -1.
          1    1    1    2  502    0  0.78269142713E+02  0.12214948254E+02  0.18298909999E+04  0.18316048524E+04  0.00000000000E+00 0. -1.
         22    1    3    3    0    0 -0.10569027521E+03 -0.52005551698E+01 -0.78851717834E+02  0.13196618299E+03  0.00000000000E+00 0.  1.
         22    1    3    3    0    0  0.34333032229E+02  0.12456868142E+02 -0.12223255041E+02  0.38514135454E+02  0.00000000000E+00 0.  1.
</event>
<event>
 7    1  0.5593520E-006  0.1254997E+03  0.7818608E-02  0.1271896E+00
          2   -1    0    0  502    0  0.00000000000E+00  0.00000000000E+00  0.21280850763E+03  0.21280850763E+03  0.00000000000E+00 0. -1.
          1   -1    0    0  501    0 -0.00000000000E+00 -0.00000000000E+00 -0.13075711354E+04  0.13075711354E+04  0.00000000000E+00 0. -1.
         25    2    1    2    0    0 -0.42320267842E+01 -0.57034996333E+02 -0.29108396918E+03  0.32190919520E+03  0.12499900793E+03 0.  0.
          2    1    1    2  501    0  0.61358090329E+02 -0.60765626400E+02 -0.97725099864E+03  0.98105901502E+03  0.00000000000E+00 0. -1.
          1    1    1    2  502    0 -0.57126063545E+02  0.11780062273E+03  0.17357234009E+03  0.21741143276E+03  0.00000000000E+00 0. -1.
         22    1    3    3    0    0 -0.39123999100E+02  0.25491031881E+02 -0.80620916925E+02  0.93167656715E+02  0.00000000000E+00 0. -1.
         22    1    3    3    0    0  0.34891972316E+02 -0.82526028214E+02 -0.21046305226E+03  0.22874153849E+03  0.00000000000E+00 0. -1.
</event>
<event>
 7    1  0.5593520E-006  0.4992368E+02  0.7818608E-02  0.1455712E+00
          2   -1    0    0  502    0  0.00000000000E+00  0.00000000000E+00  0.76376563632E+03  0.76376563632E+03  0.00000000000E+00 0. -1.
          1   -1    0    0  501    0 -0.00000000000E+00 -0.00000000000E+00 -0.55181113115E+02  0.55181113115E+02  0.00000000000E+00 0. -1.
         25    2    1    2    0    0  0.37190538243E+02 -0.44867228159E+02  0.11292985552E+03  0.17825472445E+03  0.12500156088E+03 0.  0.
          2    1    1    2  501    0 -0.46163561225E+02 -0.46345049808E+01  0.36340590000E+01  0.46537720252E+02  0.00000000000E+00 0. -1.
          1    1    1    2  502    0  0.89730229816E+01  0.49501733140E+02  0.59202060869E+03  0.59415430473E+03  0.00000000000E+00 0. -1.
         22    1    3    3    0    0 -0.27228819698E+02 -0.49134870218E+02  0.10457027187E+02  0.57140121728E+02  0.00000000000E+00 0. -1.
         22    1    3    3    0    0  0.64419357941E+02  0.42676420591E+01  0.10247282833E+03  0.12111460272E+03  0.00000000000E+00 0. -1.
</event>
<event>
 7    1  0.5593520E-006  0.1722333E+03  0.7818608E-02  0.1242518E+00
          2   -1    0    0  502    0  0.00000000000E+00  0.00000000000E+00  0.42175820283E+02  0.42175820283E+02  0.00000000000E+00 0. -1.
          1   -1    0    0  501    0 -0.00000000000E+00 -0.00000000000E+00 -0.17218799102E+04  0.17218799102E+04  0.00000000000E+00 0. -1.
         25    2    1    2    0    0  0.45945739807E+02 -0.13776647181E+03 -0.53921630792E+03  0.57224959756E+03  0.12499905369E+03 0.  0.
          2    1    1    2  501    0  0.19847460757E+02  0.19014807993E+03 -0.10538988239E+04  0.10710989427E+04  0.00000000000E+00 0. -1.
          1    1    1    2  502    0 -0.65793200564E+02 -0.52381608127E+02 -0.86588958096E+02  0.12070719024E+03  0.00000000000E+00 0. -1.
         22    1    3    3    0    0  0.70661396543E+02 -0.61072412992E+02 -0.40562428274E+03  0.41623783026E+03  0.00000000000E+00 0.  1.
         22    1    3    3    0    0 -0.24715656736E+02 -0.76694058814E+02 -0.13359202517E+03  0.15601176730E+03  0.00000000000E+00 0.  1.
</event>
<event>
 7    1  0.5593520E-006  0.8846660E+02  0.7818608E-02  0.1373020E+00
          2   -1    0    0  502    0  0.00000000000E+00  0.00000000000E+00  0.10559963968E+04  0.10559963968E+04  0.00000000000E+00 0. -1.
          1   -1    0    0  501    0 -0.00000000000E+00 -0.00000000000E+00 -0.18716967122E+03  0.18716967122E+03  0.00000000000E+00 0. -1.
         25    2    1    2    0    0  0.50170156756E+02 -0.64491366037E+02  0.25630810478E+03  0.29664024794E+03  0.12500164479E+03 0.  0.
          2    1    1    2  501    0  0.35708066886E+02  0.34626242610E+02 -0.16057581797E+03  0.16810305183E+03  0.00000000000E+00 0. -1.
          1    1    1    2  502    0 -0.85878223642E+02  0.29865123427E+02  0.77309443876E+03  0.77842276825E+03  0.00000000000E+00 0. -1.
         22    1    3    3    0    0  0.24638770390E+02 -0.14842015474E+02  0.23520247582E+03  0.23695476164E+03  0.00000000000E+00 0.  1.
         22    1    3    3    0    0  0.25531386366E+02 -0.49649350563E+02  0.21105628951E+02  0.59685486297E+02  0.00000000000E+00 0.  1.
</event>
<event>
 7    1  0.5593520E-006  0.1978215E+03  0.7818608E-02  0.1199502E+00
          2   -1    0    0  502    0  0.00000000000E+00  0.00000000000E+00  0.31567372197E+04  0.31567372197E+04  0.00000000000E+00 0. -1.
          1   -1    0    0  501    0 -0.00000000000E+00 -0.00000000000E+00 -0.40736606687E+03  0.40736606687E+03  0.00000000000E+00 0. -1.
         25    2    1    2    0    0 -0.29986242118E+03 -0.68387391447E+02 -0.71554771651E+02  0.33961604360E+03  0.12499865910E+03 0.  0.
          2    1    1    2  501    0  0.11490297393E+03  0.30982261244E+01 -0.18194770784E+03  0.21521445308E+03  0.00000000000E+00 0. -1.
          1    1    1    2  502    0  0.18495944725E+03  0.65289165322E+02  0.30028736323E+04  0.30092727899E+04  0.00000000000E+00 0. -1.
         22    1    3    3    0    0 -0.18345709852E+02  0.22915504214E+02  0.12580358371E+02  0.31936668895E+02  0.00000000000E+00 0. -1.
         22    1    3    3    0    0 -0.28151671133E+03 -0.91302895661E+02 -0.84135130022E+02  0.30767937471E+03  0.00000000000E+00 0. -1.
</event>
<event>
 7    1  0.5593520E-006  0.7326592E+02  0.7818608E-02  0.1376870E+00
          2   -1    0    0  502    0  0.00000000000E+00  0.00000000000E+00  0.28678833434E+04  0.28678833434E+04  0.00000000000E+00 0. -1.
          1   -1    0    0  501    0 -0.00000000000E+00 -0.00000000000E+00 -0.36418261139E+03  0.36418261139E+03  0.00000000000E+00 0. -1.
         25    2    1    2    0    0  0.35460267002E+02  0.92856586162E+01  0.11238344906E+02  0.13074681562E+03  0.12499910162E+03 0.  0.
          2    1    1    2  501    0 -0.64538059301E+02  0.41116876960E+02 -0.29931159416E+03  0.30893881120E+03  0.00000000000E+00 0. -1.
          1    1    1    2  502    0  0.29077792299E+02 -0.50402535576E+02  0.27917739812E+04  0.27923803279E+04  0.00000000000E+00 0. -1.
         22    1    3    3    0    0  0.21023542297E+01  0.64282612038E+02  0.15907012336E+02  0.66254865068E+02  0.00000000000E+00 0. -1.
         22    1    3    3    0    0  0.33357912772E+02 -0.54996953422E+02 -0.46686674295E+01  0.64491950550E+02  0.00000000000E+00 0. -1.
</event>
<event>
 7    1  0.5593520E-006  0.9092956E+02  0.7818608E-02  0.1342349E+00
          2   -1    0    0  502    0  0.00000000000E+00  0.00000000000E+00  0.64078817320E+03  0.64078817320E+03  0.00000000000E+00 0. -1.
          1   -1    0    0  501    0 -0.00000000000E+00 -0.00000000000E+00 -0.53365847234E+03  0.53365847234E+03  0.00000000000E+00 0. -1.
         25    2    1    2    0    0 -0.29900545391E+02 -0.93670951225E+02  0.17005335413E+03  0.23283267616E+03  0.12499848847E+03 0.  0.
          2    1    1    2  501    0 -0.32219887709E+02  0.85326607271E+02 -0.49585269730E+03  0.50417124917E+03  0.00000000000E+00 0. -1.
          1    1    1    2  502    0  0.62120433099E+02  0.83443439534E+01  0.43292904404E+03  0.43744272020E+03  0.00000000000E+00 0. -1.
         22    1    3    3    0    0 -0.23546368766E+02 -0.12488968317E+03  0.13279945459E+03  0.18381392653E+03  0.00000000000E+00 0.  1.
         22    1    3    3    0    0 -0.63541766245E+01  0.31218731950E+02  0.37253899539E+02  0.49018749637E+02  0.00000000000E+00 0.  1.
</event>
<event>
 7    1  0.5593520E-006  0.8225007E+02  0.7818608E-02  0.1356056E+00
          2   -1    0    0  502    0  0.00000000000E+00  0.00000000000E+00  0.16449414586E+03  0.16449414586E+03  0.00000000000E+00 0. -1.
          1   -1    0    0  501    0 -0.00000000000E+00 -0.00000000000E+00 -0.51539640008E+03  0.51539640008E+03  0.00000000000E+00 0. -1.
         25    2    1    2    0    0 -0.10334867868E+03  0.93007819607E+02 -0.82615523237E+01  0.18714835550E+03  0.12499939931E+03 0.  0.
          2    1    1    2  501    0  0.67195369696E+02 -0.43088556482E+02 -0.40039589501E+03  0.40827529211E+03  0.00000000000E+00 0. -1.
          1    1    1    2  502    0  0.36153308983E+02 -0.49919263125E+02  0.57755193118E+02  0.84466898329E+02  0.00000000000E+00 0. -1.
         22    1    3    3    0    0 -0.11327965742E+03  0.22311878242E+02 -0.18488027674E+01  0.11547085679E+03  0.00000000000E+00 0.  1.
         22    1    3    3    0    0  0.99309787458E+01  0.70695941365E+02 -0.64127495563E+01  0.71677498709E+02  0.00000000000E+00 0.  1.
</event>
<event>
 7    1  0.5593520E-006  0.7818949E+02  0.7818608E-02  0.1431897E+00
          2   -1    0    0  502    0  0.00000000000E+00  0.00000000000E+00  0.63950414581E+03  0.63950414581E+03  0.00000000000E+00 0. -1.
          1   -1    0    0  501    0 -0.00000000000E+00 -0.00000000000E+00 -0.89988733947E+03  0.89988733947E+03  0.00000000000E+00 0. -1.
         25    2    1    2    0    0 -0.35273122792E+02  0.10607669018E+03 -0.19261521944E+03  0.25538567004E+03  0.12499904124E+03 0.  0.
          2    1    1    2  501    0  0.30784963000E+01 -0.35225741583E+02 -0.67293101511E+03  0.67385939269E+03  0.00000000000E+00 0. -1.
          1    1    1    2  502    0  0.32194626492E+02 -0.70850948600E+02  0.60516304089E+03  0.61014642255E+03  0.00000000000E+00 0. -1.
         22    1    3    3    0    0 -0.18855094963E+02  0.10992822868E+03 -0.20573284029E+03  0.23402079318E+03  0.00000000000E+00 0.  1.
         22    1    3    3    0    0 -0.16418027830E+02 -0.38515384977E+01  0.13117620851E+02  0.21364876864E+02  0.00000000000E+00 0.  1.
</event>
<event>
 7    1  0.5593520E-006  0.9958246E+02  0.7818608E-02  0.1313764E+00
          2   -1    0    0  502    0  0.00000000000E+00  0.00000000000E+00  0.99464309766E+03  0.99464309766E+03  0.00000000000E+00 0. -1.
          1   -1    0    0  501    0 -0.00000000000E+00 -0.00000000000E+00 -0.41925899985E+02  0.41925899985E+02  0.00000000000E+00 0. -1.
         25    2    1    2    0    0 -0.47508578047E+02  0.56186729394E+01  0.64242205265E+03  0.65621611970E+03  0.12499947023E+03 0.  0.
          2    1    1    2  501    0  0.83085577438E+02 -0.70108085158E+02  0.70668151172E+02  0.12966242468E+03  0.00000000000E+00 0. -1.
          1    1    1    2  502    0 -0.35576999391E+02  0.64489412218E+02  0.23962699385E+03  0.25069045326E+03  0.00000000000E+00 0. -1.
         22    1    3    3    0    0 -0.20532341909E+02 -0.55339194151E+02  0.41660534661E+03  0.42076598995E+03  0.00000000000E+00 0. -1.
         22    1    3    3    0    0 -0.26976236138E+02  0.60957867091E+02  0.22581670603E+03  0.23545012975E+03  0.00000000000E+00 0. -1.
</event>
<event>
 7    1  0.5593520E-006  0.5931434E+02  0.7818608E-02  0.1442570E+00
          2   -1    0    0  502    0  0.00000000000E+00  0.00000000000E+00  0.55616160750E+03  0.55616160750E+03  0.00000000000E+00 0. -1.
          1   -1    0    0  501    0 -0.00000000000E+00 -0.00000000000E+00 -0.92364305297E+02  0.92364305297E+02  0.00000000000E+00 0. -1.
         25    2    1    2    0    0  0.51028780763E+02  0.52763092747E+01  0.33621845557E+03  0.36235293971E+03  0.12500010859E+03 0.  0.
          2    1    1    2  501    0 -0.47919168076E+01  0.42757813145E+02 -0.67482704385E+02  0.80031921399E+02  0.00000000000E+00 0. -1.
          1    1    1    2  502    0 -0.46236863955E+02 -0.48034122419E+02  0.19506155102E+03  0.20614105169E+03  0.00000000000E+00 0. -1.
         22    1    3    3    0    0 -0.11382605399E+02  0.36058379717E+02  0.24353186276E+03  0.24644987042E+03  0.00000000000E+00 0. -1.
         22    1    3    3    0    0  0.62411386162E+02 -0.30782070442E+02  0.92686592807E+02  0.11590306928E+03  0.00000000000E+00 0. -1.
</event>
<event>
 7    1  0.5593520E-006  0.3002642E+02  0.7818608E-02  0.1628587E+00
          2   -1    0    0  502    0  0.00000000000E+00  0.00000000000E+00  0.37117725553E+02  0.37117725553E+02  0.00000000000E+00 0. -1.
          1   -1    0    0  501    0 -0.00000000000E+00 -0.00000000000E+00 -0.35085127950E+03  0.35085127950E+03  0.00000000000E+00 0. -1.
         25    2    1    2    0    0  0.12435891665E+02 -0.66925462953E+01 -0.16257328919E+03  0.20555417613E+03  0.12499201330E+03 0.  0.
          2    1    1    2  501    0  0.17538498353E+02  0.17852552773E+02 -0.14819484648E+03  0.15029313054E+03  0.00000000000E+00 0. -1.
          1    1    1    2  502    0 -0.29974390017E+02 -0.11160006478E+02 -0.29654182769E+01  0.32121698384E+02  0.00000000000E+00 0. -1.
         22    1    3    3    0    0  0.58318458776E+02  0.54327154192E+01 -0.14242201887E+03  0.15399541711E+03  0.00000000000E+00 0. -1.
         22    1    3    3    0    0 -0.45882567112E+02 -0.12125261714E+02 -0.20151270324E+02  0.51558759024E+02  0.00000000000E+00 0. -1.
</event>
<event>
 7    1  0.5593520E-006  0.1176854E+03  0.7818608E-02  0.1323509E+00
          2   -1    0    0  502    0  0.00000000000E+00  0.00000000000E+00  0.43799702022E+03  0.43799702022E+03  0.00000000000E+00 0. -1.
          1   -1    0    0  501    0 -0.00000000000E+00 -0.00000000000E+00 -0.18909894689E+03  0.18909894689E+03  0.00000000000E+00 0. -1.
         25    2    1    2    0    0 -0.83481929242E+02 -0.12479980860E+02 -0.42370006037E+02  0.15666892772E+03  0.12499981227E+03 0.  0.
          2    1    1    2  501    0 -0.18491609272E+02 -0.54039325897E+02 -0.69331694481E+02  0.89828014653E+02  0.00000000000E+00 0. -1.
          1    1    1    2  502    0  0.10197353851E+03  0.66519306757E+02  0.36059977385E+03  0.38059902473E+03  0.00000000000E+00 0. -1.
         22    1    3    3    0    0 -0.51813073803E+02  0.51762747190E+02 -0.43217523440E+02  0.85039584582E+02  0.00000000000E+00 0. -1.
         22    1    3    3    0    0 -0.31668855439E+02 -0.64242728050E+02  0.84751740351E+00  0.71629343135E+02  0.00000000000E+00 0. -1.
</event>
<event>
 7    1  0.5593520E-006  0.3480615E+02  0.7818608E-02  0.1570791E+00
          2   -1    0    0  502    0  0.00000000000E+00  0.00000000000E+00  0.82778079766E+02  0.82778079766E+02  0.00000000000E+00 0. -1.
          1   -1    0    0  501    0 -0.00000000000E+00 -0.00000000000E+00 -0.23809138955E+04  0.23809138955E+04  0.00000000000E+00 0. -1.
         25    2    1    2    0    0  0.39865105758E+02 -0.43149727551E+02 -0.32556830923E+02  0.14190311629E+03  0.12500168610E+03 0.  0.
          2    1    1    2  501    0 -0.31986762486E+02  0.13607157125E+02 -0.22851968996E+04  0.22854612615E+04  0.00000000000E+00 0. -1.
          1    1    1    2  502    0 -0.78783432719E+01  0.29542570426E+02  0.19617914795E+02  0.36327597512E+02  0.00000000000E+00 0. -1.
         22    1    3    3    0    0  0.81499989177E+02 -0.31299878335E+02  0.71326149125E+00  0.87306582579E+02  0.00000000000E+00 0.  1.
         22    1    3    3    0    0 -0.41634883419E+02 -0.11849849216E+02 -0.33270092414E+02  0.54596533709E+02  0.00000000000E+00 0.  1.
</event>
<event>
 7    1  0.5593520E-006  0.1983542E+03  0.7818608E-02  0.1252401E+00
          2   -1    0    0  502    0  0.00000000000E+00  0.00000000000E+00  0.11922925082E+04  0.11922925082E+04  0.00000000000E+00 0. -1.
          1   -1    0    0  501    0 -0.00000000000E+00 -0.00000000000E+00 -0.15449805545E+04  0.15449805545E+04  0.00000000000E+00 0. -1.
         25    2    1    2    0    0 -0.10889249306E+03  0.76550545285E+02  0.50027778132E+03  0.53256057969E+03  0.12500140610E+03 0.  0.
          2    1    1    2  501    0  0.16496467963E+03 -0.11161239736E+03 -0.15207117717E+04  0.15336997637E+04  0.00000000000E+00 0. -1.
          1    1    1    2  502    0 -0.56072186568E+02  0.35061852071E+02  0.66774594405E+03  0.67101271924E+03  0.00000000000E+00 0. -1.
         22    1    3    3    0    0 -0.15937789697E+02  0.72048288474E+02  0.11844252170E+03  0.13954784111E+03  0.00000000000E+00 0.  1.
         22    1    3    3    0    0 -0.92954703360E+02  0.45022568110E+01  0.38183525963E+03  0.39301273858E+03  0.00000000000E+00 0.  1.
</event>
<event>
 7    1  0.5593520E-006  0.1898039E+03  0.7818608E-02  0.1208372E+00
          2   -1    0    0  502    0  0.00000000000E+00  0.00000000000E+00  0.89834613099E+03  0.89834613099E+03  0.00000000000E+00 0. -1.
          1   -1    0    0  501    0 -0.00000000000E+00 -0.00000000000E+00 -0.42195273555E+03  0.42195273555E+03  0.00000000000E+00 0. -1.
         25    2    1    2    0    0  0.32477551279E+02  0.16407254661E+03 -0.33882756011E+03  0.39799976060E+03  0.12500040823E+03 0.  0.
          2    1    1    2  501    0 -0.10823862985E+03  0.11695503104E+02  0.28370967981E+02  0.11250465594E+03  0.00000000000E+00 0. -1.
          1    1    1    2  502    0  0.75761078566E+02 -0.17576804971E+03  0.78684998757E+03  0.80979445001E+03  0.00000000000E+00 0. -1.
         22    1    3    3    0    0 -0.19477155340E+02  0.42919145791E+02 -0.20424323571E+03  0.20961085847E+03  0.00000000000E+00 0. -1.
         22    1    3    3    0    0  0.51954706620E+02  0.12115340082E+03 -0.13458432440E+03  0.18838890212E+03  0.00000000000E+00 0. -1.
</event>
<event>
 7    1  0.5593520E-006  0.1080751E+03  0.7818608E-02  0.1410143E+00
          2   -1    0    0  502    0  0.00000000000E+00  0.00000000000E+00  0.98412488410E+03  0.98412488410E+03  0.00000000000E+00 0. -1.
          1   -1    0    0  501    0 -0.00000000000E+00 -0.00000000000E+00 -0.12374964767E+04  0.12374964767E+04  0.00000000000E+00 0. -1.
         25    2    1    2    0    0  0.33322447300E+01  0.78457015018E+02 -0.20598489372E+03  0.25341131656E+03  0.12498364637E+03 0.  0.
          2    1    1    2  501    0  0.61783291614E+01  0.29595448256E+02 -0.10045075141E+04  0.10049623914E+04  0.00000000000E+00 0. -1.
          1    1    1    2  502    0 -0.95105738913E+01 -0.10805246327E+03  0.95712081519E+03  0.96324765284E+03  0.00000000000E+00 0. -1.
         22    1    3    3    0    0  0.13194149255E+02  0.93102872962E+02 -0.72429920007E+02  0.11869424519E+03  0.00000000000E+00 0.  1.
         22    1    3    3    0    0 -0.98619045250E+01 -0.14645857944E+02 -0.13355497372E+03  0.13471707138E+03  0.00000000000E+00 0.  1.
</event>
<event>
 7    1  0.5593520E-006  0.7926818E+02  0.7818608E-02  0.1461266E+00
          2   -1    0    0  502    0  0.00000000000E+00  0.00000000000E+00  0.75697350341E+03  0.75697350341E+03  0.00000000000E+00 0. -1.
          1   -1    0    0  501    0 -0.00000000000E+00 -0.00000000000E+00 -0.34095217926E+03  0.34095217926E+03  0.00000000000E+00 0. -1.
         25    2    1    2    0    0  0.29179180995E+02  0.42995012011E+02 -0.27138175518E+02  0.13806072063E+03  0.12499714537E+03 0.  0.
          2    1    1    2  501    0  0.15936671752E+02  0.23098216623E+02 -0.25529925861E+03  0.25683694548E+03  0.00000000000E+00 0. -1.
          1    1    1    2  502    0 -0.45115852747E+02 -0.66093228634E+02  0.69845875828E+03  0.70302801655E+03  0.00000000000E+00 0. -1.
         22    1    3    3    0    0  0.70483613070E+02  0.28916643053E+01 -0.36991315470E+02  0.79653366872E+02  0.00000000000E+00 0. -1.
         22    1    3    3    0    0 -0.41304432075E+02  0.40103347706E+02  0.98531399525E+01  0.58407353759E+02  0.00000000000E+00 0. -1.
</event>
<event>
 7    1  0.5593520E-006  0.9616895E+02  0.7818608E-02  0.1425605E+00
          2   -1    0    0  502    0  0.00000000000E+00  0.00000000000E+00  0.58335069545E+03  0.58335069545E+03  0.00000000000E+00 0. -1.
          1   -1    0    0  501    0 -0.00000000000E+00 -0.00000000000E+00 -0.58673519195E+03  0.58673519195E+03  0.00000000000E+00 0. -1.
         25    2    1    2    0    0  0.80069860083E+02 -0.57801170852E+02  0.11968682493E+03  0.19925261625E+03  0.12499804468E+03 0.  0.
          2    1    1    2  501    0 -0.57156336904E+02  0.77406544156E+02 -0.54217441877E+03  0.55064663832E+03  0.00000000000E+00 0. -1.
          1    1    1    2  502    0 -0.22913523179E+02 -0.19605373304E+02  0.41910309734E+03  0.42018663283E+03  0.00000000000E+00 0. -1.
         22    1    3    3    0    0  0.53734804397E+02 -0.69772420447E+02  0.13894286348E+03  0.16450148684E+03  0.00000000000E+00 0. -1.
         22    1    3    3    0    0  0.26335055686E+02  0.11971249596E+02 -0.19256038551E+02  0.34751129414E+02  0.00000000000E+00 0. -1.
</event>
<event>
 7    1  0.5593520E-006  0.9968060E+02  0.7818608E-02  0.1338887E+00
          2   -1    0    0  502    0  0.00000000000E+00  0.00000000000E+00  0.17696356195E+03  0.17696356195E+03  0.00000000000E+00 0. -1.
          1   -1    0    0  501    0 -0.00000000000E+00 -0.00000000000E+00 -0.13146620563E+04  0.13146620563E+04  0.00000000000E+00 0. -1.
         25    2    1    2    0    0  0.11681022672E+02  0.58741072921E+02 -0.10263691689E+03  0.17247039181E+03  0.12499895761E+03 0.  0.
          2    1    1    2  501    0  0.53087158130E+02  0.25547630575E+02 -0.11563660131E+04  0.11578658316E+04  0.00000000000E+00 0. -1.
          1    1    1    2  502    0 -0.64768180803E+02 -0.84288703496E+02  0.12130443563E+03  0.16128939483E+03  0.00000000000E+00 0. -1.
         22    1    3    3    0    0  0.42315943120E+02 -0.99797294395E+01 -0.84570915750E+02  0.95091923067E+02  0.00000000000E+00 0.  1.
         22    1    3    3    0    0 -0.30634920447E+02  0.68720802361E+02 -0.18066001143E+02  0.77378468744E+02  0.00000000000E+00 0.  1.
</event>
<event>
 7    1  0.5593520E-006  0.1504145E+03  0.7818608E-02  0.1365200E+00
          2   -1    0    0  502    0  0.00000000000E+00  0.00000000000E+00  0.12864475378E+04  0.12864475378E+04  0.00000000000E+00 0. -1.
          1   -1    0    0  501    0 -0.00000000000E+00 -0.00000000000E+00 -0.27837085708E+03  0.27837085708E+03  0.00000000000E+00 0. -1.
         25    2    1    2    0    0  0.49650375184E+02 -0.17111424204E+03  0.17265707124E+03  0.27781135042E+03  0.12499375419E+03 0.  0.
          2    1    1    2  501    0 -0.14483978008E+02  0.27649607858E+02 -0.21954442014E+03  0.22175220145E+03  0.00000000000E+00 0. -1.
          1    1    1    2  502    0 -0.35166397175E+02  0.14346463418E+03  0.10549640297E+04  0.10652548430E+04  0.00000000000E+00 0. -1.
         22    1    3    3    0    0  0.34058194449E+02 -0.36479656089E+01  0.77110776758E+02  0.84376182388E+02  0.00000000000E+00 0.  1.
         22    1    3    3    0    0  0.15592180735E+02 -0.16746627643E+03  0.95546294485E+02  0.19343516803E+03  0.00000000000E+00 0.  1.
</event>
<event>
 7    1  0.5593520E-006  0.1002517E+03  0.7818608E-02  0.1407476E+00
          2   -1    0    0  502    0  0.00000000000E+00  0.00000000000E+00  0.20132385818E+04  0.20132385818E+04  0.00000000000E+00 0. -1.
          1   -1    0    0  501    0 -0.00000000000E+00 -0.00000000000E+00 -0.20387676723E+03  0.20387676723E+03  0.00000000000E+00 0. -1.
         25    2    1    2    0    0  0.66047332560E+02 -0.10518995001E+03  0.92286393931E+03  0.93953782670E+03  0.12500520629E+03 0.  0.
          2    1    1    2  501    0 -0.51542509787E+01  0.32877750756E+02 -0.19204112937E+03  0.19490333032E+03  0.00000000000E+00 0. -1.
          1    1    1    2  502    0 -0.60893081581E+02  0.72312199257E+02  0.10785390046E+04  0.10826741920E+04  0.00000000000E+00 0. -1.
         22    1    3    3    0    0  0.44480852768E+02 -0.46078085797E+02  0.13779522325E+03  0.15195150477E+03  0.00000000000E+00 0. -1.
         22    1    3    3    0    0  0.21566479791E+02 -0.59111864216E+02  0.78506871607E+03  0.78758632193E+03  0.00000000000E+00 0. -1.
</event>
<event>
 7    1  0.5593520E-006  0.1696854E+03  0.7818608E-02  0.1254897E+00
          2   -1    0    0  502    0  0.00000000000E+00  0.00000000000E+00  0.14682064805E+04  0.14682064805E+04  0.00000000000E+00 0. -1.
          1   -1    0    0  501    0 -0.00000000000E+00 -0.00000000000E+00 -0.12160386585E+04  0.12160386585E+04  0.00000000000E+00 0. -1.
         25    2    1    2    0    0  0.17661215752E+03  0.36815224820E+02  0.26988882127E+03  0.34787102207E+03  0.12500822846E+03 0.  0.
          2    1    1    2  501    0 -0.10645123249E+02 -0.74657425664E+02 -0.11695779568E+04  0.11720066753E+04  0.00000000000E+00 0. -1.
          1    1    1    2  502    0 -0.16596703427E+03  0.37842200843E+02  0.11518569575E+04  0.11643674417E+04  0.00000000000E+00 0. -1.
         22    1    3    3    0    0  0.23300264975E+02  0.32254312496E+02  0.14414440760E+03  0.14953545822E+03  0.00000000000E+00 0. -1.
         22    1    3    3    0    0  0.15331189255E+03  0.45609123247E+01  0.12574441367E+03  0.19833556385E+03  0.00000000000E+00 0. -1.
</event>
<event>
 7    1  0.5593520E-006  0.1664528E+03  0.7818608E-02  0.1208889E+00
          2   -1    0    0  502    0  0.00000000000E+00  0.00000000000E+00  0.21809037580E+04  0.21809037580E+04  0.00000000000E+00 0. -1.
          1   -1    0    0  501    0 -0.00000000000E+00 -0.00000000000E+00 -0.30046653300E+04  0.30046653300E+04  0.00000000000E+00 0. -1.
         25    2    1    2    0    0 -0.13810565984E+03  0.63503459391E+02 -0.54231340600E+03  0.57691740370E+03  0.12499599084E+03 0.  0.
          2    1    1    2  501    0  0.16640718557E+03  0.56665581682E+02 -0.24401242484E+04  0.24464481779E+04  0.00000000000E+00 0. -1.
          1    1    1    2  502    0 -0.28301525730E+02 -0.12016904107E+03  0.21586760824E+04  0.21622035065E+04  0.00000000000E+00 0. -1.
         22    1    3    3    0    0  0.15898772698E+02  0.33772688664E+02 -0.14596558472E+03  0.15066292642E+03  0.00000000000E+00 0.  1.
         22    1    3    3    0    0 -0.15400443254E+03  0.29730770727E+02 -0.39634782128E+03  0.42625447728E+03  0.00000000000E+00 0.  1.
</event>
<event>
 7    1  0.5593520E-006  0.3434551E+02  0.7818608E-02  0.1560089E+00
          2   -1    0    0  502    0  0.00000000000E+00  0.00000000000E+00  0.63759044610E+02  0.63759044610E+02  0.00000000000E+00 0. -1.
          1   -1    0    0  501    0 -0.00000000000E+00 -0.00000000000E+00 -0.64433950194E+03  0.64433950194E+03  0.00000000000E+00 0. -1.
         25    2    1    2    0    0 -0.23967776206E+02  0.35218647935E+02 -0.23659989902E+03  0.27095846739E+03  0.12499668545E+03 0.  0.
          2    1    1    2  501    0  0.34413622578E+02 -0.37639555134E+01 -0.38378504646E+03  0.38534325823E+03  0.00000000000E+00 0. -1.
          1    1    1    2  502    0 -0.10445846372E+02 -0.31454692421E+02  0.39804488150E+02  0.51796820932E+02  0.00000000000E+00 0. -1.
         22    1    3    3    0    0 -0.52192583743E+02 -0.29239344785E+02 -0.86371961156E+02  0.10506722017E+03  0.00000000000E+00 0. -1.
         22    1    3    3    0    0  0.28224807537E+02  0.64457992720E+02 -0.15022793787E+03  0.16589124721E+03  0.00000000000E+00 0. -1.
</event>
<event>
 7    1  0.5593520E-006  0.1008324E+03  0.7818608E-02  0.1413080E+00
          2   -1    0    0  502    0  0.00000000000E+00  0.00000000000E+00  0.49961380952E+03  0.49961380952E+03  0.00000000000E+00 0. -1.
          1   -1    0    0  501    0 -0.00000000000E+00 -0.00000000000E+00 -0.20678162615E+04  0.20678162615E+04  0.00000000000E+00 0. -1.
         25    2    1    2    0    0 -0.19083083827E+02  0.11486667033E+03  0.74394762436E+02  0.18633231548E+03  0.12500654012E+03 0.  0.
          2    1    1    2  501    0 -0.90464925900E+01 -0.10031018631E+03 -0.20099050110E+04  0.20124269243E+04  0.00000000000E+00 0. -1.
          1    1    1    2  502    0  0.28129576417E+02 -0.14556484023E+02  0.36730779663E+03  0.36867083117E+03  0.00000000000E+00 0. -1.
         22    1    3    3    0    0 -0.43964682418E+02  0.90920340081E+02  0.10093106908E+03  0.14278123913E+03  0.00000000000E+00 0.  1.
         22    1    3    3    0    0  0.24881598591E+02  0.23946330254E+02 -0.26536306647E+02  0.43551076354E+02  0.00000000000E+00 0.  1.
</event>
<event>
 7    1  0.5593520E-006  0.6059291E+02  0.7818608E-02  0.1435380E+00
          2   -1    0    0  502    0  0.00000000000E+00  0.00000000000E+00  0.32486691588E+04  0.32486691588E+04  0.00000000000E+00 0. -1.
          1   -1    0    0  501    0 -0.00000000000E+00 -0.00000000000E+00 -0.10822149287E+04  0.10822149287E+04  0.00000000000E+00 0. -1.
         25    2    1    2    0    0 -0.32544063408E+02 -0.98893753755E+02  0.37946227486E+02  0.16704566853E+03  0.12500099439E+03 0.  0.
          2    1    1    2  501    0  0.23794092437E+02  0.55317811231E+02 -0.10166172375E+04  0.10183991490E+04  0.00000000000E+00 0. -1.
          1    1    1    2  502    0  0.87499709706E+01  0.43575942524E+02  0.31451252402E+04  0.31454392700E+04  0.00000000000E+00 0. -1.
         22    1    3    3    0    0  0.24854972467E+02  0.13243039707E+02 -0.13177946189E+02  0.31093504511E+02  0.00000000000E+00 0.  1.
         22    1    3    3    0    0 -0.57399035875E+02 -0.11213679346E+03  0.51124173675E+02  0.13595216402E+03  0.00000000000E+00 0.  1.
</event>
<event>
 7    1  0.5593520E-006  0.7608857E+02  0.7818608E-02  0.1417420E+00
          2   -1    0    0  502    0  0.00000000000E+00  0.00000000000E+00  0.57322082601E+03  0.57322082601E+03  0.00000000000E+00 0. -1.
          1   -1    0    0  501    0 -0.00000000000E+00 -0.00000000000E+00 -0.10314003601E+04  0.10314003601E+04  0.00000000000E+00 0. -1.
         25    2    1    2    0    0 -0.85117846152E+02 -0.52643827109E+02  0.17024890439E+02  0.16103087264E+03  0.12499869912E+03 0.  0.
          2    1    1    2  501    0  0.39860867229E+02 -0.76342350609E+01 -0.95603065916E+03  0.95689173449E+03  0.00000000000E+00 0. -1.
          1    1    1    2  502    0  0.45256978923E+02  0.60278062170E+02  0.48082623461E+03  0.48669857901E+03  0.00000000000E+00 0. -1.
         22    1    3    3    0    0 -0.36085570052E+02  0.31191601082E+02 -0.26542151926E+02  0.54585439202E+02  0.00000000000E+00 0.  1.
         22    1    3    3    0    0 -0.49032276099E+02 -0.83835428191E+02  0.43567042365E+02  0.10644543344E+03  0.00000000000E+00 0.  1.
</event>
<event>
 7    1  0.5593520E-006  0.1327552E+03  0.7818608E-02  0.1293129E+00
          2   -1    0    0  502    0  0.00000000000E+00  0.00000000000E+00  0.57362122342E+03  0.57362122342E+03  0.00000000000E+00 0. -1.
          1   -1    0    0  501    0 -0.00000000000E+00 -0.00000000000E+00 -0.33146367094E+03  0.33146367094E+03  0.00000000000E+00 0. -1.
         25    2    1    2    0    0 -0.46157929255E+02  0.18784673234E+03  0.14459027190E+03  0.27193282437E+03  0.12499665979E+03 0.  0.
          2    1    1    2  501    0  0.19003897120E+02 -0.12686497817E+03 -0.24906032683E+03  0.28015516628E+03  0.00000000000E+00 0. -1.
          1    1    1    2  502    0  0.27154032135E+02 -0.60981754173E+02  0.34662760742E+03  0.35299690371E+03  0.00000000000E+00 0. -1.
         22    1    3    3    0    0  0.28942560010E+02  0.10471249695E+03  0.11018578182E+03  0.15473617972E+03  0.00000000000E+00 0. -1.
         22    1    3    3    0    0 -0.75100489265E+02  0.83134235386E+02  0.34404490081E+02  0.11719664466E+03  0.00000000000E+00 0. -1.
</event>
<event>
 7    1  0.5593520E-006  0.5995304E+02  0.7818608E-02  0.1411428E+00
          2   -1    0    0  502    0  0.00000000000E+00  0.00000000000E+00  0.12318562183E+03  0.12318562183E+03  0.00000000000E+00 0. -1.
          1   -1    0    0  501    0 -0.00000000000E+00 -0.00000000000E+00 -0.11334653161E+04  0.11334653161E+04  0.00000000000E+00 0. -1.
         25    2    1    2    0    0  0.73566891634E+02  0.74911317955E+02 -0.86323598680E+02  0.18466209576E+03  0.12499813126E+03 0.  0.
          2    1    1    2  501    0 -0.23354204527E+02 -0.48641421590E+02 -0.98627888979E+03  0.98775374219E+03  0.00000000000E+00 0. -1.
          1    1    1    2  502    0 -0.50212687107E+02 -0.26269896365E+02  0.62322794168E+02  0.84235100015E+02  0.00000000000E+00 0. -1.
         22    1    3    3    0    0  0.69501351410E+02 -0.13273439712E+02 -0.59355348681E+02  0.92356263819E+02  0.00000000000E+00 0. -1.
         22    1    3    3    0    0  0.40655402242E+01  0.88184757667E+02 -0.26968250000E+02  0.92305831940E+02  0.00000000000E+00 0. -1.
</event>
<event>
 7    1  0.5593520E-006  0.4711799E+02  0.7818608E-02  0.1532530E+00
          2   -1    0    0  502    0  0.00000000000E+00  0.00000000000E+00  0.25220733155E+03  0.25220733155E+03  0.00000000000E+00 0. -1.
          1   -1    0    0  501    0 -0.00000000000E+00 -0.00000000000E+00 -0.35098635632E+03  0.35098635632E+03  0.00000000000E+00 0. -1.
         25    2    1    2    0    0 -0.47699035584E+02 -0.15633650492E+02 -0.85984250734E+02  0.15980926015E+03  0.12500439685E+03 0.  0.
          2    1    1    2  501    0  0.28968001588E+02  0.37593604844E+02 -0.22463151446E+03  0.22959037769E+03  0.00000000000E+00 0. -1.
          1    1    1    2  502    0  0.18731033996E+02 -0.21959954352E+02  0.21183674043E+03  0.21379405002E+03  0.00000000000E+00 0. -1.
         22    1    3    3    0    0  0.26681404289E+02  0.90613214975E+01  0.15046776250E+02  0.31943862597E+02  0.00000000000E+00 0.  1.
         22    1    3    3    0    0 -0.74380439873E+02 -0.24694971989E+02 -0.10103102698E+03  0.12786539755E+03  0.00000000000E+00 0.  1.
</event>
<event>
 7    1  0.5593520E-006  0.4885281E+02  0.7818608E-02  0.1477905E+00
          2   -1    0    0  502    0  0.00000000000E+00  0.00000000000E+00  0.19100094365E+04  0.19100094365E+04  0.00000000000E+00 0. -1.
          1   -1    0    0  501    0 -0.00000000000E+00 -0.00000000000E+00 -0.26510949117E+03  0.26510949117E+03  0.00000000000E+00 0. -1.
         25    2    1    2    0    0  0.35354650684E+02 -0.76546856389E+02  0.47240902428E+03  0.49588693958E+03  0.12499679226E+03 0.  0.
          2    1    1    2  501    0 -0.32542827473E+02  0.36229469372E+02 -0.25074096087E+03  0.25542638769E+03  0.00000000000E+00 0. -1.
          1    1    1    2  502    0 -0.28118232108E+01  0.40317387017E+02  0.14232318820E+04  0.14238056004E+04  0.00000000000E+00 0. -1.
         22    1    3    3    0    0  0.49609462835E+02 -0.23993094886E+02  0.66607830822E+02  0.86448658358E+02  0.00000000000E+00 0.  1.
         22    1    3    3    0    0 -0.14254812151E+02 -0.52553761503E+02  0.40580119346E+03  0.40943828122E+03  0.00000000000E+00 0.  1.
</event>
<event>
 7    1  0.5593520E-006  0.2179912E+03  0.7818608E-02  0.1196801E+00
          2   -1    0    0  502    0  0.00000000000E+00  0.00000000000E+00  0.39530621633E+03  0.39530621633E+03  0.00000000000E+00 0. -1.
          1   -1    0    0  501    0 -0.00000000000E+00 -0.00000000000E+00 -0.12882904075E+04  0.12882904075E+04  0.00000000000E+00 0. -1.
         25    2    1    2    0    0  0.18435937809E+03  0.21952939706E+03 -0.36413746197E+03  0.48000312857E+03  0.12500150306E+03 0.  0.
          2    1    1    2  501    0 -0.26848131184E+01 -0.10739028313E+03 -0.82862602339E+03  0.83556027177E+03  0.00000000000E+00 0. -1.
          1    1    1    2  502    0 -0.18167456497E+03 -0.11213911393E+03  0.29977929414E+03  0.36803322353E+03  0.00000000000E+00 0. -1.
         22    1    3    3    0    0  0.91372541720E+02  0.12964617796E+03 -0.10450359826E+03  0.18994229358E+03  0.00000000000E+00 0.  1.
         22    1    3    3    0    0  0.92986836367E+02  0.89883219099E+02 -0.25963386371E+03  0.29006083500E+03  0.00000000000E+00 0.  1.
</event>
<event>
 7    1  0.5593520E-006  0.9282352E+02  0.7818608E-02  0.1308781E+00
          2   -1    0    0  502    0  0.00000000000E+00  0.00000000000E+00  0.18070978096E+03  0.18070978096E+03  0.00000000000E+00 0. -1.
          1   -1    0    0  501    0 -0.00000000000E+00 -0.00000000000E+00 -0.15097970421E+04  0.15097970421E+04  0.00000000000E+00 0. -1.
         25    2    1    2    0    0  0.67104421708E+01 -0.35937730362E+02 -0.23154435128E+03  0.26565776524E+03  0.12499884449E+03 0.  0.
          2    1    1    2  501    0 -0.88299769366E+02  0.49213847804E+02 -0.12485829435E+04  0.12526684393E+04  0.00000000000E+00 0. -1.
          1    1    1    2  502    0  0.81589327195E+02 -0.13276117442E+02  0.15104003367E+03  0.17218061847E+03  0.00000000000E+00 0. -1.
         22    1    3    3    0    0 -0.44420080151E+02  0.24517387303E+02 -0.99638847609E+02  0.11181299457E+03  0.00000000000E+00 0.  1.
         22    1    3    3    0    0  0.51130522322E+02 -0.60455117665E+02 -0.13190550367E+03  0.15384477067E+03  0.00000000000E+00 0.  1.
</event>
<event>
 7    1  0.5593520E-006  0.7462222E+02  0.7818608E-02  0.1463644E+00
          2   -1    0    0  502    0  0.00000000000E+00  0.00000000000E+00  0.14658340365E+04  0.14658340365E+04  0.00000000000E+00 0. -1.
          1   -1    0    0  501    0 -0.00000000000E+00 -0.00000000000E+00 -0.24589748955E+03  0.24589748955E+03  0.00000000000E+00 0. -1.
         25    2    1    2    0    0  0.32825923265E+02  0.75327341732E+02  0.13072592880E+03  0.19866169888E+03  0.12500180995E+03 0.  0.
          2    1    1    2  501    0  0.19307586904E+02 -0.22040066626E+02 -0.20984306021E+03  0.21187887429E+03  0.00000000000E+00 0. -1.
          1    1    1    2  502    0 -0.52133510169E+02 -0.53287275105E+02  0.12990536784E+04  0.13011909529E+04  0.00000000000E+00 0. -1.
         22    1    3    3    0    0 -0.34386753364E+02 -0.85594112495E+00  0.17006590446E+01  0.34439420485E+02  0.00000000000E+00 0. -1.
         22    1    3    3    0    0  0.67212676629E+02  0.76183282857E+02  0.12902526975E+03  0.16422227839E+03  0.00000000000E+00 0. -1.
</event>
<event>
 7    1  0.5593520E-006  0.9045672E+02  0.7818608E-02  0.1395102E+00
          2   -1    0    0  502    0  0.00000000000E+00  0.00000000000E+00  0.60368984652E+03  0.60368984652E+03  0.00000000000E+00 0. -1.
          1   -1    0    0  501    0 -0.00000000000E+00 -0.00000000000E+00 -0.10250949915E+03  0.10250949915E+03  0.00000000000E+00 0. -1.
         25    2    1    2    0    0  0.70121526558E+02 -0.36284303048E+02  0.13668617244E+03  0.20134688104E+03  0.12499551046E+03 0.  0.
          2    1    1    2  501    0  0.23182559901E+02  0.33418622387E+02 -0.58739726407E+02  0.71446419534E+02  0.00000000000E+00 0. -1.
          1    1    1    2  502    0 -0.93304086459E+02  0.28656806607E+01  0.42323390134E+03  0.43340604509E+03  0.00000000000E+00 0. -1.
         22    1    3    3    0    0  0.17178660292E+02 -0.58069780584E+02  0.87511181020E+01  0.61186500591E+02  0.00000000000E+00 0.  1.
         22    1    3    3    0    0  0.52942866266E+02  0.21785477536E+02  0.12793505434E+03  0.14016038045E+03  0.00000000000E+00 0.  1.
</event>
<event>
 7    1  0.5593520E-006  0.1292399E+03  0.7818608E-02  0.1280355E+00
          2   -1    0    0  502    0  0.00000000000E+00  0.00000000000E+00  0.13495600737E+04  0.13495600737E+04  0.00000000000E+00 0. -1.
          1   -1    0    0  501    0 -0.00000000000E+00 -0.00000000000E+00 -0.16524619145E+03  0.16524619145E+03  0.00000000000E+00 0. -1.
         25    2    1    2    0    0 -0.23497457654E+02  0.15510000973E+03 -0.17196627257E+02  0.20131654276E+03  0.12499793144E+03 0.  0.
          2    1    1    2  501    0 -0.55895142457E+02 -0.53440882011E+02 -0.24185363361E+02  0.81025468967E+02  0.00000000000E+00 0. -1.
          1    1    1    2  502    0  0.79392600111E+02 -0.10165912772E+03  0.12256958729E+04  0.12324642534E+04  0.00000000000E+00 0. -1.
         22    1    3    3    0    0 -0.52361265060E+01  0.71180680071E+02  0.54209740161E+02  0.89625901192E+02  0.00000000000E+00 0.  1.
         22    1    3    3    0    0 -0.18261331148E+02  0.83919329655E+02 -0.71406367418E+02  0.11169064156E+03  0.00000000000E+00 0.  1.
</event>
<event>
 7    1  0.5593520E-006  0.1103374E+03  0.7818608E-02  0.1272261E+00
          2   -1    0    0  502    0  0.00000000000E+00  0.00000000000E+00  0.10490162668E+04  0.10490162668E+04  0.00000000000E+00 0. -1.
          1   -1    0    0  501    0 -0.00000000000E+00 -0.00000000000E+00 -0.14667243480E+03  0.14667243480E+03  0.00000000000E+00 0. -1.
         25    2    1    2    0    0  0.19285097009E+02 -0.11172685181E+03  0.11939380866E+03  0.20672558685E+03  0.12500312928E+03 0.  0.
          2    1    1    2  501    0 -0.10137744010E+03  0.58427535993E+02 -0.66033502075E+02  0.13435618973E+03  0.00000000000E+00 0. -1.
          1    1    1    2  502    0  0.82092343091E+02  0.53299315817E+02  0.84898352538E+03  0.85460692498E+03  0.00000000000E+00 0. -1.
         22    1    3    3    0    0 -0.10651269357E+02 -0.58103874382E+02 -0.13263004984E+02  0.60542687902E+02  0.00000000000E+00 0. -1.
         22    1    3    3    0    0  0.29936366366E+02 -0.53622977427E+02  0.13265681364E+03  0.14618289895E+03  0.00000000000E+00 0. -1.
</event>
<event>
 7    1  0.5593520E-006  0.3806888E+02  0.7818608E-02  0.1567097E+00
          2   -1    0    0  502    0  0.00000000000E+00  0.00000000000E+00  0.70967412021E+01  0.70967412021E+01  0.00000000000E+00 0. -1.
          1   -1    0    0  501    0 -0.00000000000E+00 -0.00000000000E+00 -0.14647635549E+04  0.14647635549E+04  0.00000000000E+00 0. -1.
         25    2    1    2    0    0  0.14443898891E+02 -0.46762695259E+02 -0.11115377450E+04  0.11196147153E+04  0.12500230576E+03 0.  0.
          2    1    1    2  501    0  0.10982559871E+02  0.33648678381E+02 -0.15520650861E+03  0.15919142719E+03  0.00000000000E+00 0. -1.
          1    1    1    2  502    0 -0.25426458762E+02  0.13114016878E+02 -0.19092256012E+03  0.19305415356E+03  0.00000000000E+00 0. -1.
         22    1    3    3    0    0 -0.46762708597E+02 -0.44419523282E+02 -0.76426349105E+03  0.76698013580E+03  0.00000000000E+00 0. -1.
         22    1    3    3    0    0  0.61206607487E+02 -0.23431719776E+01 -0.34727425391E+03  0.35263457954E+03  0.00000000000E+00 0. -1.
</event>
<event>
 7    1  0.5593520E-006  0.7978789E+02  0.7818608E-02  0.1423480E+00
          2   -1    0    0  502    0  0.00000000000E+00  0.00000000000E+00  0.12006892400E+03  0.12006892400E+03  0.00000000000E+00 0. -1.
          1   -1    0    0  501    0 -0.00000000000E+00 -0.00000000000E+00 -0.69351059517E+03  0.69351059517E+03  0.00000000000E+00 0. -1.
         25    2    1    2    0    0 -0.41809914594E+02  0.22629959326E+02 -0.39188711342E+03  0.41407731157E+03  0.12499730509E+03 0.  0.
          2    1    1    2  501    0 -0.36825360165E+02 -0.29392088322E+01 -0.27404028015E+03  0.27651911551E+03  0.00000000000E+00 0. -1.
          1    1    1    2  502    0  0.78635274759E+02 -0.19690750493E+02  0.92485722401E+02  0.12298309209E+03  0.00000000000E+00 0. -1.
         22    1    3    3    0    0 -0.32501713477E+02  0.60337409286E+02 -0.35121508698E+03  0.35783935175E+03  0.00000000000E+00 0.  1.
         22    1    3    3    0    0 -0.93082011171E+01 -0.37707449960E+02 -0.40672026438E+02  0.56237959824E+02  0.00000000000E+00 0.  1.
</event>
<event>
 7    1  0.5593520E-006  0.1073667E+03  0.7818608E-02  0.1394823E+00
          2   -1    0    0  502    0  0.00000000000E+00  0.00000000000E+00  0.16509859631E+04  0.16509859631E+04  0.00000000000E+00 0. -1.
          1   -1    0    0  501    0 -0.00000000000E+00 -0.00000000000E+00 -0.20623339929E+03  0.20623339929E+03  0.00000000000E+00 0. -1.
         25    2    1    2    0    0  0.22224616745E+02  0.13693494492E+03  0.15074128671E+03  0.23998583625E+03  0.12500061340E+03 0.  0.
          2    1    1    2  501    0 -0.20415630664E+02 -0.10263980970E+03 -0.14444317652E+03  0.17836916705E+03  0.00000000000E+00 0. -1.
          1    1    1    2  502    0 -0.18089860804E+01 -0.34295135224E+02  0.14384544537E+04  0.14388643591E+04  0.00000000000E+00 0. -1.
         22    1    3    3    0    0 -0.30352329296E+01 -0.21131636901E+02  0.19442731277E+01  0.21436858796E+02  0.00000000000E+00 0. -1.
         22    1    3    3    0    0  0.25259849674E+02  0.15806658182E+03  0.14879701358E+03  0.21854897745E+03  0.00000000000E+00 0. -1.
</event>
<event>
 7    1  0.5593520E-006  0.5791166E+02  0.7818608E-02  0.1427211E+00
          2   -1    0    0  502    0  0.00000000000E+00  0.00000000000E+00  0.72944286814E+03  0.72944286814E+03  0.00000000000E+00 0. -1.
          1   -1    0    0  501    0 -0.00000000000E+00 -0.00000000000E+00 -0.22294447530E+03  0.22294447530E+03  0.00000000000E+00 0. -1.
         25    2    1    2    0    0 -0.45408960061E+02 -0.67457826172E+00  0.35286241953E+03  0.37709341812E+03  0.12500052065E+03 0.  0.
          2    1    1    2  501    0  0.32427575163E+02  0.48409548151E+02 -0.20507299747E+03  0.21318997695E+03  0.00000000000E+00 0. -1.
          1    1    1    2  502    0  0.12981384898E+02 -0.47734969889E+02  0.35870897077E+03  0.36210394836E+03  0.00000000000E+00 0. -1.
         22    1    3    3    0    0 -0.77362445506E+02  0.17366360679E+02  0.13830057769E+03  0.15941639892E+03  0.00000000000E+00 0.  1.
         22    1    3    3    0    0  0.31953485445E+02 -0.18040938941E+02  0.21456184185E+03  0.21767701920E+03  0.00000000000E+00 0.  1.
</event>
<event>
 7    1  0.5593520E-006  0.1863316E+03  0.7818608E-02  0.1189657E+00
          2   -1    0    0  502    0  0.00000000000E+00  0.00000000000E+00  0.18957385781E+03  0.18957385781E+03  0.00000000000E+00 0. -1.
          1   -1    0    0  501    0 -0.00000000000E+00 -0.00000000000E+00 -0.89590160103E+03  0.89590160103E+03  0.00000000000E+00 0. -1.
         25    2    1    2    0    0  0.15739234531E+03  0.12105160350E+02 -0.10202742708E+03  0.22572717695E+03  0.12499710904E+03 0.  0.
          2    1    1    2  501    0  0.23564716718E+02 -0.13388010120E+03 -0.62596822042E+03  0.64055865488E+03  0.00000000000E+00 0. -1.
          1    1    1    2  502    0 -0.18095706202E+03  0.12177494084E+03  0.21667904274E+02  0.21918962701E+03  0.00000000000E+00 0. -1.
         22    1    3    3    0    0  0.16488301634E+03  0.20507583345E+02 -0.11969551851E+03  0.20477789725E+03  0.00000000000E+00 0.  1.
         22    1    3    3    0    0 -0.74906710361E+01 -0.84024229945E+01  0.17668091432E+02  0.20949279692E+02  0.00000000000E+00 0.  1.
</event>
<event>
 7    1  0.5593520E-006  0.9575460E+02  0.7818608E-02  0.1307559E+00
          2   -1    0    0  502    0  0.00000000000E+00  0.00000000000E+00  0.41213551308E+03  0.41213551308E+03  0.00000000000E+00 0. -1.
          1   -1    0    0  501    0 -0.00000000000E+00 -0.00000000000E+00 -0.40786682616E+03  0.40786682616E+03  0.00000000000E+00 0. -1.
         25    2    1    2    0    0  0.40345557710E+02 -0.62809056748E+02 -0.17025794983E+03  0.22402078648E+03  0.12499920663E+03 0.  0.
          2    1    1    2  501    0 -0.11436968590E+03  0.29855723088E+02 -0.18933731199E+03  0.22320485426E+03  0.00000000000E+00 0. -1.
          1    1    1    2  502    0  0.74024128192E+02  0.32953333660E+02  0.36386394874E+03  0.37277669850E+03  0.00000000000E+00 0. -1.
         22    1    3    3    0    0  0.75176093274E+01 -0.87384254087E+02 -0.59685283052E+02  0.10608890293E+03  0.00000000000E+00 0. -1.
         22    1    3    3    0    0  0.32827948383E+02  0.24575197339E+02 -0.11057266678E+03  0.11793188355E+03  0.00000000000E+00 0. -1.
</event>
<event>
 7    1  0.5593520E-006  0.3222502E+02  0.7818608E-02  0.1623106E+00
          2   -1    0    0  502    0  0.00000000000E+00  0.00000000000E+00  0.79782267558E+02  0.79782267558E+02  0.00000000000E+00 0. -1.
          1   -1    0    0  501    0 -0.00000000000E+00 -0.00000000000E+00 -0.23694846285E+03  0.23694846285E+03  0.00000000000E+00 0. -1.
         25    2    1    2    0    0 -0.31566991673E+01  0.13577907094E+02 -0.15850416294E+03  0.20234406340E+03  0.12500090405E+03 0.  0.
          2    1    1    2  501    0  0.35089440080E+01 -0.37650102705E+02 -0.47037278059E+02  0.60351871959E+02  0.00000000000E+00 0. -1.
          1    1    1    2  502    0 -0.35224484068E+00  0.24072195611E+02  0.48375245710E+02  0.54034795045E+02  0.00000000000E+00 0. -1.
         22    1    3    3    0    0  0.27247432882E+02 -0.43374699043E+02 -0.32218683236E+02  0.60513061939E+02  0.00000000000E+00 0. -1.
         22    1    3    3    0    0 -0.30404132049E+02  0.56952606137E+02 -0.12628547970E+03  0.14183100146E+03  0.00000000000E+00 0. -1.
</event>
<event>
 7    1  0.5593520E-006  0.1060160E+03  0.7818608E-02  0.1335017E+00
          2   -1    0    0  502    0  0.00000000000E+00  0.00000000000E+00  0.25781496818E+03  0.25781496818E+03  0.00000000000E+00 0. -1.
          1   -1    0    0  501    0 -0.00000000000E+00 -0.00000000000E+00 -0.28790548948E+03  0.28790548948E+03  0.00000000000E+00 0. -1.
         25    2    1    2    0    0  0.71716364470E+02 -0.54712796488E+02 -0.13130544693E+03  0.20249422318E+03  0.12500425190E+03 0.  0.
          2    1    1    2  501    0 -0.59480715894E+02  0.11068250407E+03 -0.82812179110E+02  0.15048730604E+03  0.00000000000E+00 0. -1.
          1    1    1    2  502    0 -0.12235648576E+02 -0.55969707578E+02  0.18402710474E+03  0.19273892845E+03  0.00000000000E+00 0. -1.
         22    1    3    3    0    0 -0.24954702759E+02 -0.36364211167E+02 -0.80417204086E+02  0.91717063606E+02  0.00000000000E+00 0. -1.
         22    1    3    3    0    0  0.96671067229E+02 -0.18348585321E+02 -0.50888242845E+02  0.11077715957E+03  0.00000000000E+00 0. -1.
</event>
<event>
 7    1  0.5593520E-006  0.4192367E+02  0.7818608E-02  0.1503093E+00
          2   -1    0    0  502    0  0.00000000000E+00  0.00000000000E+00  0.17167276426E+03  0.17167276426E+03  0.00000000000E+00 0. -1.
          1   -1    0    0  501    0 -0.00000000000E+00 -0.00000000000E+00 -0.33144146215E+03  0.33144146215E+03  0.00000000000E+00 0. -1.
         25    2    1    2    0    0 -0.84498581394E+01  0.21935095747E+02 -0.98317179307E+02  0.16075907380E+03  0.12499865413E+03 0.  0.
          2    1    1    2  501    0 -0.29435996435E+02 -0.33181632695E+02 -0.19660273859E+03  0.20154437590E+03  0.00000000000E+00 0. -1.
          1    1    1    2  502    0  0.37885854574E+02  0.11246536948E+02  0.13515122000E+03  0.14081077671E+03  0.00000000000E+00 0. -1.
         22    1    3    3    0    0 -0.78038148708E+01  0.73389469530E+02 -0.71389511347E+02  0.10268094319E+03  0.00000000000E+00 0. -1.
         22    1    3    3    0    0 -0.64604326864E+00 -0.51454373783E+02 -0.26927667960E+02  0.58078130609E+02  0.00000000000E+00 0. -1.
</event>
<event>
 7    1  0.5593520E-006  0.6618444E+02  0.7818608E-02  0.1470248E+00
          2   -1    0    0  502    0  0.00000000000E+00  0.00000000000E+00  0.15337071654E+03  0.15337071654E+03  0.00000000000E+00 0. -1.
          1   -1    0    0  501    0 -0.00000000000E+00 -0.00000000000E+00 -0.34426754738E+03  0.34426754738E+03  0.00000000000E+00 0. -1.
         25    2    1    2    0    0 -0.26529990717E+02 -0.27170679636E+02  0.42428965645E+02  0.13735323375E+03  0.12499442970E+03 0.  0.
          2    1    1    2  501    0  0.56534123242E+02  0.36775161828E+02 -0.28875610012E+03  0.29652757878E+03  0.00000000000E+00 0. -1.
          1    1    1    2  502    0 -0.30004132526E+02 -0.96044821913E+01  0.55430303637E+02  0.63757451393E+02  0.00000000000E+00 0. -1.
         22    1    3    3    0    0 -0.47023155989E+02  0.26495368262E+02  0.56574865264E+02  0.78191413328E+02  0.00000000000E+00 0.  1.
         22    1    3    3    0    0  0.20493165272E+02 -0.53666047899E+02 -0.14145899619E+02  0.59161820425E+02  0.00000000000E+00 0.  1.
</event>
<event>
 7    1  0.5593520E-006  0.8836631E+02  0.7818608E-02  0.1347125E+00
          2   -1    0    0  502    0  0.00000000000E+00  0.00000000000E+00  0.46864944690E+03  0.46864944690E+03  0.00000000000E+00 0. -1.
          1   -1    0    0  501    0 -0.00000000000E+00 -0.00000000000E+00 -0.10616575124E+04  0.10616575124E+04  0.00000000000E+00 0. -1.
         25    2    1    2    0    0  0.24651612970E+02  0.53711450924E+02  0.17653437558E+03  0.22423504725E+03  0.12499739466E+03 0.  0.
          2    1    1    2  501    0  0.61790151284E+02  0.37021264022E+01 -0.10268047813E+04  0.10286689396E+04  0.00000000000E+00 0. -1.
          1    1    1    2  502    0 -0.86441764254E+02 -0.57413577326E+02  0.25726234014E+03  0.27740297245E+03  0.00000000000E+00 0. -1.
         22    1    3    3    0    0 -0.47855643622E+02 -0.11353716673E+00  0.65377203417E+02  0.81020702563E+02  0.00000000000E+00 0.  1.
         22    1    3    3    0    0  0.72507256592E+02  0.53824988090E+02  0.11115717216E+03  0.14321434469E+03  0.00000000000E+00 0.  1.
</event>
<event>
 7    1  0.5593520E-006  0.8161448E+02  0.7818608E-02  0.1327719E+00
          2   -1    0    0  502    0  0.00000000000E+00  0.00000000000E+00  0.15364123624E+03  0.15364123624E+03  0.00000000000E+00 0. -1.
          1   -1    0    0  501    0 -0.00000000000E+00 -0.00000000000E+00 -0.24294818662E+04  0.24294818662E+04  0.00000000000E+00 0. -1.
         25    2    1    2    0    0  0.92937880586E+02  0.31838527347E+02 -0.95536793552E+02  0.18548333463E+03  0.12500258810E+03 0.  0.
          2    1    1    2  501    0 -0.69200614340E+02  0.43872156417E+02 -0.22736513409E+04  0.22751272296E+04  0.00000000000E+00 0. -1.
          1    1    1    2  502    0 -0.23737266246E+02 -0.75710683764E+02  0.93347504413E+02  0.12251253824E+03  0.00000000000E+00 0. -1.
         22    1    3    3    0    0  0.34078796893E+02  0.56927094168E+02  0.47570031533E+01  0.66518324747E+02  0.00000000000E+00 0.  1.
         22    1    3    3    0    0  0.58859083693E+02 -0.25088566821E+02 -0.10029379671E+03  0.11896500988E+03  0.00000000000E+00 0.  1.
</event>
<event>
 7    1  0.5593520E-006  0.7315604E+02  0.7818608E-02  0.1393457E+00
          2   -1    0    0  502    0  0.00000000000E+00  0.00000000000E+00  0.38248722103E+03  0.38248722103E+03  0.00000000000E+00 0. -1.
          1   -1    0    0  501    0 -0.00000000000E+00 -0.00000000000E+00 -0.41254197458E+03  0.41254197458E+03  0.00000000000E+00 0. -1.
         25    2    1    2    0    0  0.28719504420E+02 -0.49717557871E+01  0.64667715674E+02  0.14373346176E+03  0.12501146463E+03 0.  0.
          2    1    1    2  501    0  0.50840761929E+02  0.34182528418E+01 -0.36551679733E+03  0.36905148239E+03  0.00000000000E+00 0. -1.
          1    1    1    2  502    0 -0.79560266349E+02  0.15535029453E+01  0.27079432810E+03  0.28224425146E+03  0.00000000000E+00 0. -1.
         22    1    3    3    0    0 -0.15230967586E+02  0.51204984610E+02  0.11179752168E+02  0.54579480403E+02  0.00000000000E+00 0.  1.
         22    1    3    3    0    0  0.43950472006E+02 -0.56176740397E+02  0.53487963506E+02  0.89153981354E+02  0.00000000000E+00 0.  1.
</event>
<event>
 7    1  0.5593520E-006  0.4944301E+02  0.7818608E-02  0.1450534E+00
          2   -1    0    0  502    0  0.00000000000E+00  0.00000000000E+00  0.15263224005E+04  0.15263224005E+04  0.00000000000E+00 0. -1.
          1   -1    0    0  501    0 -0.00000000000E+00 -0.00000000000E+00 -0.97178363151E+02  0.97178363151E+02  0.00000000000E+00 0. -1.
         25    2    1    2    0    0  0.11497644125E+02 -0.38584775016E+01  0.25618495792E+03  0.28531161998E+03  0.12499961664E+03 0.  0.
          2    1    1    2  501    0  0.19112194042E+02  0.44749638925E+02 -0.74881754443E+02  0.89303321850E+02  0.00000000000E+00 0. -1.
          1    1    1    2  502    0 -0.30609838167E+02 -0.40891161423E+02  0.12478408339E+04  0.12488858218E+04  0.00000000000E+00 0. -1.
         22    1    3    3    0    0 -0.50067737434E+02 -0.29392467815E+02  0.10258565628E+03  0.11787498620E+03  0.00000000000E+00 0.  1.
         22    1    3    3    0    0  0.61565381559E+02  0.25533990313E+02  0.15359930164E+03  0.16743663378E+03  0.00000000000E+00 0.  1.
</event>
<event>
 7    1  0.5593520E-006  0.1514866E+03  0.7818608E-02  0.1217309E+00
          2   -1    0    0  502    0  0.00000000000E+00  0.00000000000E+00  0.20824899210E+03  0.20824899210E+03  0.00000000000E+00 0. -1.
          1   -1    0    0  501    0 -0.00000000000E+00 -0.00000000000E+00 -0.49070749666E+03  0.49070749666E+03  0.00000000000E+00 0. -1.
         25    2    1    2    0    0  0.94197273822E+02  0.23878188182E+02 -0.11594892217E+03  0.19623842122E+03  0.12498828402E+03 0.  0.
          2    1    1    2  501    0 -0.15434320652E+03 -0.13237012594E+03 -0.27219364563E+03  0.33975440595E+03  0.00000000000E+00 0. -1.
          1    1    1    2  502    0  0.60145932696E+02  0.10849193776E+03  0.10568406325E+03  0.16296366160E+03  0.00000000000E+00 0. -1.
         22    1    3    3    0    0  0.35629007970E+02  0.35792532813E+02  0.14673761597E+02  0.52591357593E+02  0.00000000000E+00 0. -1.
         22    1    3    3    0    0  0.58568265852E+02 -0.11914344631E+02 -0.13062268377E+03  0.14364706362E+03  0.00000000000E+00 0. -1.
</event>
<event>
 7    1  0.5593520E-006  0.3560690E+02  0.7818608E-02  0.1608091E+00
          2   -1    0    0  502    0  0.00000000000E+00  0.00000000000E+00  0.14125145315E+04  0.14125145315E+04  0.00000000000E+00 0. -1.
          1   -1    0    0  501    0 -0.00000000000E+00 -0.00000000000E+00 -0.40068617925E+03  0.40068617925E+03  0.00000000000E+00 0. -1.
         25    2    1    2    0    0  0.86730043593E+01 -0.58356009670E+02  0.43962624383E+03  0.46084367014E+03  0.12500003673E+03 0.  0.
          2    1    1    2  501    0 -0.19831231409E+01  0.35509883806E+02 -0.38911914459E+03  0.39074108219E+03  0.00000000000E+00 0. -1.
          1    1    1    2  502    0 -0.66898812184E+01  0.22846125864E+02  0.96132125297E+03  0.96161595837E+03  0.00000000000E+00 0. -1.
         22    1    3    3    0    0  0.18282530340E+02 -0.93120414320E+02  0.24178421062E+03  0.25974076882E+03  0.00000000000E+00 0.  1.
         22    1    3    3    0    0 -0.96095259808E+01  0.34764404650E+02  0.19784203321E+03  0.20110290133E+03  0.00000000000E+00 0.  1.
</event>
<event>
 7    1  0.5593520E-006  0.6927016E+02  0.7818608E-02  0.1363037E+00
          2   -1    0    0  502    0  0.00000000000E+00  0.00000000000E+00  0.18851061016E+04  0.18851061016E+04  0.00000000000E+00 0. -1.
          1   -1    0    0  501    0 -0.00000000000E+00 -0.00000000000E+00 -0.25365964688E+03  0.25365964688E+03  0.00000000000E+00 0. -1.
         25    2    1    2    0    0 -0.64802585255E+00 -0.83353567481E+00  0.52041209542E+03  0.53521544842E+03  0.12500284976E+03 0.  0.
          2    1    1    2  501    0  0.65231846180E+02  0.25158419190E+02 -0.24039725948E+03  0.25035770844E+03  0.00000000000E+00 0. -1.
          1    1    1    2  502    0 -0.64583820328E+02 -0.24324883515E+02  0.13514316187E+04  0.13531925916E+04  0.00000000000E+00 0. -1.
         22    1    3    3    0    0 -0.51743957172E+02 -0.29499768866E+02  0.17471295980E+03  0.18458681370E+03  0.00000000000E+00 0. -1.
         22    1    3    3    0    0  0.51095931319E+02  0.28666233191E+02  0.34569913562E+03  0.35062863473E+03  0.00000000000E+00 0. -1.
</event>
<event>
 7    1  0.5593520E-006  0.6831877E+02  0.7818608E-02  0.1520233E+00
          2   -1    0    0  502    0  0.00000000000E+00  0.00000000000E+00  0.15118492679E+02  0.15118492679E+02  0.00000000000E+00 0. -1.
          1   -1    0    0  501    0 -0.00000000000E+00 -0.00000000000E+00 -0.11066802957E+04  0.11066802957E+04  0.00000000000E+00 0. -1.
         25    2    1    2    0    0 -0.63985738037E+02 -0.17009762416E+01 -0.59704721462E+03  0.61334107239E+03  0.12499930642E+03 0.  0.
          2    1    1    2  501    0 -0.36232904820E+01  0.21291041127E+02 -0.31343362626E+03  0.31417682082E+03  0.00000000000E+00 0. -1.
          1    1    1    2  502    0  0.67609028519E+02 -0.19590064885E+02 -0.18108096215E+03  0.19428089518E+03  0.00000000000E+00 0. -1.
         22    1    3    3    0    0 -0.99146151770E+02  0.89752178234E+01 -0.36200688947E+03  0.37544573772E+03  0.00000000000E+00 0. -1.
         22    1    3    3    0    0  0.35160413734E+02 -0.10676194065E+02 -0.23504032515E+03  0.23789533467E+03  0.00000000000E+00 0. -1.
</event>
<event>
 7    1  0.5593520E-006  0.9090863E+02  0.7818608E-02  0.1338034E+00
          2   -1    0    0  502    0  0.00000000000E+00  0.00000000000E+00  0.51609461443E+03  0.51609461443E+03  0.00000000000E+00 0. -1.
          1   -1    0    0  501    0 -0.00000000000E+00 -0.00000000000E+00 -0.11979298688E+04  0.11979298688E+04  0.00000000000E+00 0. -1.
         25    2    1    2    0    0  0.12501492144E+03 -0.78713517340E+02  0.15685082243E+03  0.24912259544E+03  0.12504134783E+03 0.  0.
          2    1    1    2  501    0 -0.59786419226E+02  0.25708806862E+02 -0.11452130241E+04  0.11470606912E+04  0.00000000000E+00 0. -1.
          1    1    1    2  502    0 -0.65228502213E+02  0.53004710478E+02  0.30652694730E+03  0.31784119660E+03  0.00000000000E+00 0. -1.
         22    1    3    3    0    0  0.59825657633E+02  0.16100499396E+02  0.10717815956E+03  0.12379617635E+03  0.00000000000E+00 0. -1.
         22    1    3    3    0    0  0.65189263806E+02 -0.94814016736E+02  0.49672662872E+02  0.12532641909E+03  0.00000000000E+00 0. -1.
</event>
<event>
 7    1  0.5593520E-006  0.7953780E+02  0.7818608E-02  0.1376286E+00
          2   -1    0    0  502    0  0.00000000000E+00  0.00000000000E+00  0.21880605095E+04  0.21880605095E+04  0.00000000000E+00 0. -1.
          1   -1    0    0  501    0 -0.00000000000E+00 -0.00000000000E+00 -0.61841696028E+03  0.61841696028E+03  0.00000000000E+00 0. -1.
         25    2    1    2    0    0  0.73560292378E+02  0.10171677320E+03 -0.11667935321E+03  0.21212149852E+03  0.12499616036E+03 0.  0.
          2    1    1    2  501    0 -0.57899667773E+02 -0.50186330507E+02 -0.45044196389E+03  0.45691246660E+03  0.00000000000E+00 0. -1.
          1    1    1    2  502    0 -0.15660624605E+02 -0.51530442697E+02  0.21367648663E+04  0.21374435047E+04  0.00000000000E+00 0. -1.
         22    1    3    3    0    0  0.33861311911E+02  0.12250180563E+03 -0.10731522866E+03  0.16634253554E+03  0.00000000000E+00 0.  1.
         22    1    3    3    0    0  0.39698980467E+02 -0.20785032430E+02 -0.93641245507E+01  0.45778962984E+02  0.00000000000E+00 0.  1.
</event>
<event>
 7    1  0.5593520E-006  0.8369308E+02  0.7818608E-02  0.1428483E+00
          2   -1    0    0  502    0  0.00000000000E+00  0.00000000000E+00  0.19393301342E+03  0.19393301342E+03  0.00000000000E+00 0. -1.
          1   -1    0    0  501    0 -0.00000000000E+00 -0.00000000000E+00 -0.18485631987E+03  0.18485631987E+03  0.00000000000E+00 0. -1.
         25    2    1    2    0    0  0.31266627341E+02 -0.71735516675E+02 -0.21333853431E+02  0.14900969602E+03  0.12500067947E+03 0.  0.
          2    1    1    2  501    0  0.31197370707E+02  0.13265268801E+02 -0.81872251231E+02  0.88613254183E+02  0.00000000000E+00 0. -1.
          1    1    1    2  502    0 -0.62463998048E+02  0.58470247874E+02  0.11228279822E+03  0.14116638309E+03  0.00000000000E+00 0. -1.
         22    1    3    3    0    0 -0.47574747892E+02 -0.17363314486E+02 -0.15908213688E+02  0.53084014445E+02  0.00000000000E+00 0. -1.
         22    1    3    3    0    0  0.78841375233E+02 -0.54372202189E+02 -0.54256397434E+01  0.95925681578E+02  0.00000000000E+00 0. -1.
</event>
<event>
 7    1  0.5593520E-006  0.3037279E+02  0.7818608E-02  0.1604548E+00
          2   -1    0    0  502    0  0.00000000000E+00  0.00000000000E+00  0.25633298568E+02  0.25633298568E+02  0.00000000000E+00 0. -1.
          1   -1    0    0  501    0 -0.00000000000E+00 -0.00000000000E+00 -0.12990967147E+04  0.12990967147E+04  0.00000000000E+00 0. -1.
         25    2    1    2    0    0  0.42699751021E+01 -0.30827229542E+00 -0.20181225360E+03  0.23742389514E+03  0.12499437012E+03 0.  0.
          2    1    1    2  501    0  0.12679002898E+02 -0.27599806596E+02 -0.10442185267E+04  0.10446601543E+04  0.00000000000E+00 0. -1.
          1    1    1    2  502    0 -0.16948978000E+02  0.27908078892E+02 -0.27432635791E+02  0.42645963808E+02  0.00000000000E+00 0. -1.
         22    1    3    3    0    0  0.63526012456E+02 -0.51970504555E+01 -0.12475910388E+03  0.14009781438E+03  0.00000000000E+00 0.  1.
         22    1    3    3    0    0 -0.59256037354E+02  0.48887781601E+01 -0.77053149720E+02  0.97326080763E+02  0.00000000000E+00 0.  1.
</event>
<event>
 7    1  0.5593520E-006  0.9303490E+02  0.7818608E-02  0.1420723E+00
          2   -1    0    0  502    0  0.00000000000E+00  0.00000000000E+00  0.22825083423E+03  0.22825083423E+03  0.00000000000E+00 0. -1.
          1   -1    0    0  501    0 -0.00000000000E+00 -0.00000000000E+00 -0.21793859574E+04  0.21793859574E+04  0.00000000000E+00 0. -1.
         25    2    1    2    0    0  0.39958503288E+02 -0.97939451983E+02 -0.10389339433E+03  0.19392508589E+03  0.12499713322E+03 0.  0.
          2    1    1    2  501    0  0.18589011732E+02  0.26486994298E+02 -0.20186962879E+04  0.20189556248E+04  0.00000000000E+00 0. -1.
          1    1    1    2  502    0 -0.58547515020E+02  0.71452457686E+02  0.17145455907E+03  0.19475608090E+03  0.00000000000E+00 0. -1.
         22    1    3    3    0    0  0.22963919421E+02 -0.11160075005E+03 -0.31346511093E+02  0.11817221655E+03  0.00000000000E+00 0. -1.
         22    1    3    3    0    0  0.16994583866E+02  0.13661298070E+02 -0.72546883235E+02  0.75752869337E+02  0.00000000000E+00 0. -1.
</event>
<event>
 7    1  0.5593520E-006  0.3635243E+03  0.7818608E-02  0.1234944E+00
          2   -1    0    0  502    0  0.00000000000E+00  0.00000000000E+00  0.33416212223E+03  0.33416212223E+03  0.00000000000E+00 0. -1.
          1   -1    0    0  501    0 -0.00000000000E+00 -0.00000000000E+00 -0.23411064261E+04  0.23411064261E+04  0.00000000000E+00 0. -1.
         25    2    1    2    0    0 -0.10454292787E+03  0.37020355638E+03 -0.10802069062E+04  0.11534525017E+04  0.12500326626E+03 0.  0.
          2    1    1    2  501    0  0.72105569851E+02 -0.34191919596E+03 -0.11976085442E+04  0.12475472636E+04  0.00000000000E+00 0. -1.
          1    1    1    2  502    0  0.32437358020E+02 -0.28284360425E+02  0.27087114661E+03  0.27426878296E+03  0.00000000000E+00 0. -1.
         22    1    3    3    0    0 -0.10418016638E+03  0.35749466645E+03 -0.10780623982E+04  0.11405588446E+04  0.00000000000E+00 0.  1.
         22    1    3    3    0    0 -0.36276149160E+00  0.12708889937E+02 -0.21445080225E+01  0.12893657123E+02  0.00000000000E+00 0.  1.
</event>
<event>
 7    1  0.5593520E-006  0.8006770E+02  0.7818608E-02  0.1437466E+00
          2   -1    0    0  502    0  0.00000000000E+00  0.00000000000E+00  0.97701061285E+02  0.97701061285E+02  0.00000000000E+00 0. -1.
          1   -1    0    0  501    0 -0.00000000000E+00 -0.00000000000E+00 -0.74247211486E+03  0.74247211486E+03  0.00000000000E+00 0. -1.
         25    2    1    2    0    0  0.20334882566E+02  0.44776337023E+02 -0.60966476827E+03  0.62428698115E+03  0.12499870943E+03 0.  0.
          2    1    1    2  501    0  0.23411800816E+02  0.23416058700E+02 -0.10424487851E+03  0.10937741503E+03  0.00000000000E+00 0. -1.
          1    1    1    2  502    0 -0.43746683381E+02 -0.68192395723E+02  0.69138593200E+02  0.10650877997E+03  0.00000000000E+00 0. -1.
         22    1    3    3    0    0  0.36971446715E+02  0.41960089406E+02 -0.10186354312E+03  0.11620550069E+03  0.00000000000E+00 0.  1.
         22    1    3    3    0    0 -0.16636564149E+02  0.28162476170E+01 -0.50780122515E+03  0.50808148045E+03  0.00000000000E+00 0.  1.
</event>
<event>
 7    1  0.5593520E-006  0.3015428E+03  0.7818608E-02  0.1276483E+00
          2   -1    0    0  502    0  0.00000000000E+00  0.00000000000E+00  0.69817757485E+03  0.69817757485E+03  0.00000000000E+00 0. -1.
          1   -1    0    0  501    0 -0.00000000000E+00 -0.00000000000E+00 -0.39462425362E+03  0.39462425362E+03  0.00000000000E+00 0. -1.
         25    2    1    2    0    0  0.18043199452E+03 -0.26215199443E+03  0.19567498563E+03  0.39394608622E+03  0.12500178407E+03 0.  0.
          2    1    1    2  501    0  0.34679217775E+01  0.34216043249E+02 -0.24094501951E+03  0.24338707140E+03  0.00000000000E+00 0. -1.
          1    1    1    2  502    0 -0.18389991629E+03  0.22793595119E+03  0.34882335511E+03  0.45546867085E+03  0.00000000000E+00 0. -1.
         22    1    3    3    0    0  0.12765139235E+03 -0.20627174742E+03  0.20356955607E+03  0.31667566359E+03  0.00000000000E+00 0. -1.
         22    1    3    3    0    0  0.52780602169E+02 -0.55880247012E+02 -0.78945704410E+01  0.77270422633E+02  0.00000000000E+00 0. -1.
</event>
<event>
 7    1  0.5593520E-006  0.2133214E+03  0.7818608E-02  0.1252208E+00
          2   -1    0    0  502    0  0.00000000000E+00  0.00000000000E+00  0.56033179804E+03  0.56033179804E+03  0.00000000000E+00 0. -1.
          1   -1    0    0  501    0 -0.00000000000E+00 -0.00000000000E+00 -0.20547270616E+03  0.20547270616E+03  0.00000000000E+00 0. -1.
         25    2    1    2    0    0 -0.44817753933E+01  0.17861297812E+03  0.15085980132E+03  0.26516627108E+03  0.12502715464E+03 0.  0.
          2    1    1    2  501    0 -0.17726816781E+02  0.59004705119E+02 -0.97979480031E+02  0.11574011304E+03  0.00000000000E+00 0. -1.
          1    1    1    2  502    0  0.22208592174E+02 -0.23761768324E+03  0.30197877059E+03  0.38489812008E+03  0.00000000000E+00 0. -1.
         22    1    3    3    0    0  0.38510624802E+02  0.46997097593E+02  0.10126022691E+03  0.11809076576E+03  0.00000000000E+00 0. -1.
         22    1    3    3    0    0 -0.42992400196E+02  0.13161588053E+03  0.49599574415E+02  0.14707550532E+03  0.00000000000E+00 0. -1.
</event>
<event>
 7    1  0.5593520E-006  0.5684335E+02  0.7818608E-02  0.1424702E+00
          2   -1    0    0  502    0  0.00000000000E+00  0.00000000000E+00  0.62624351345E+02  0.62624351345E+02  0.00000000000E+00 0. -1.
          1   -1    0    0  501    0 -0.00000000000E+00 -0.00000000000E+00 -0.38415683878E+03  0.38415683878E+03  0.00000000000E+00 0. -1.
         25    2    1    2    0    0  0.32369889597E+02 -0.71628280569E+02 -0.22320504098E+03  0.26762662039E+03  0.12500038917E+03 0.  0.
          2    1    1    2  501    0  0.15278156461E+02  0.52425628282E+02 -0.11319193822E+03  0.12567530960E+03  0.00000000000E+00 0. -1.
          1    1    1    2  502    0 -0.47648046058E+02  0.19202652287E+02  0.14864491773E+02  0.53479260126E+02  0.00000000000E+00 0. -1.
         22    1    3    3    0    0  0.23686502327E+02  0.20965449878E+02 -0.71849308427E+01  0.32437997970E+02  0.00000000000E+00 0. -1.
         22    1    3    3    0    0  0.86833872697E+01 -0.92593730446E+02 -0.21602011014E+03  0.23518862242E+03  0.00000000000E+00 0. -1.
</event>
<event>
 7    1  0.5593520E-006  0.1301692E+03  0.7818608E-02  0.1300925E+00
          2   -1    0    0  502    0  0.00000000000E+00  0.00000000000E+00  0.24517651217E+04  0.24517651217E+04  0.00000000000E+00 0. -1.
          1   -1    0    0  501    0 -0.00000000000E+00 -0.00000000000E+00 -0.14328964818E+04  0.14328964818E+04  0.00000000000E+00 0. -1.
         25    2    1    2    0    0  0.29973718247E+02  0.62800760638E+02  0.21735159885E+03  0.26020996735E+03  0.12500060106E+03 0.  0.
          2    1    1    2  501    0 -0.36289220151E+02 -0.12582333889E+03 -0.14079751546E+04  0.14140517869E+04  0.00000000000E+00 0. -1.
          1    1    1    2  502    0  0.63155019040E+01  0.63022578253E+02  0.22094921956E+04  0.22103998492E+04  0.00000000000E+00 0. -1.
         22    1    3    3    0    0  0.60613849889E+02 -0.29352119422E+01  0.14758725264E+03  0.15957647511E+03  0.00000000000E+00 0.  1.
         22    1    3    3    0    0 -0.30640131642E+02  0.65735972580E+02  0.69764346205E+02  0.10063349224E+03  0.00000000000E+00 0.  1.
</event>
<event>
 7    1  0.5593520E-006  0.8799709E+02  0.7818608E-02  0.1458477E+00
          2   -1    0    0  502    0  0.00000000000E+00  0.00000000000E+00  0.54684541577E+03  0.54684541577E+03  0.00000000000E+00 0. -1.
          1   -1    0    0  501    0 -0.00000000000E+00 -0.00000000000E+00 -0.79533052017E+03  0.79533052017E+03  0.00000000000E+00 0. -1.
         25    2    1    2    0    0  0.23650564781E+02 -0.10181250413E+03  0.13652491936E+03  0.21257708898E+03  0.12499931976E+03 0.  0.
          2    1    1    2  501    0 -0.20370285152E+02  0.15827274470E+02 -0.75210833089E+03  0.75255059135E+03  0.00000000000E+00 0. -1.
          1    1    1    2  502    0 -0.32802796283E+01  0.85985229665E+02  0.36709830714E+03  0.37704825561E+03  0.00000000000E+00 0. -1.
         22    1    3    3    0    0  0.63239577704E+02 -0.10045559028E+03  0.78471377095E+02  0.14229661567E+03  0.00000000000E+00 0. -1.
         22    1    3    3    0    0 -0.39589012923E+02 -0.13569138533E+01  0.58053542262E+02  0.70280473309E+02  0.00000000000E+00 0. -1.
</event>
<event>
 7    1  0.5593520E-006  0.1861932E+03  0.7818608E-02  0.1264002E+00
          2   -1    0    0  502    0  0.00000000000E+00  0.00000000000E+00  0.14734045453E+04  0.14734045453E+04  0.00000000000E+00 0. -1.
          1   -1    0    0  501    0 -0.00000000000E+00 -0.00000000000E+00 -0.88594754449E+02  0.88594754449E+02  0.00000000000E+00 0. -1.
         25    2    1    2    0    0  0.10159896279E+02  0.15234717115E+03  0.28346512488E+03  0.34538422763E+03  0.12499961448E+03 0.  0.
          2    1    1    2  501    0 -0.49396410842E+02 -0.20143048598E+03  0.13332039128E+03  0.24655338736E+03  0.00000000000E+00 0. -1.
          1    1    1    2  502    0  0.39236514563E+02  0.49083314832E+02  0.96802427466E+03  0.97006168474E+03  0.00000000000E+00 0. -1.
         22    1    3    3    0    0  0.59454534889E+02  0.55796398634E+02  0.76790600978E+02  0.11200391162E+03  0.00000000000E+00 0. -1.
         22    1    3    3    0    0 -0.49294638609E+02  0.96550772512E+02  0.20667452391E+03  0.23338031601E+03  0.00000000000E+00 0. -1.
</event>
<event>
 7    1  0.5593520E-006  0.1013955E+03  0.7818608E-02  0.1316981E+00
          2   -1    0    0  502    0  0.00000000000E+00  0.00000000000E+00  0.14931562838E+04  0.14931562838E+04  0.00000000000E+00 0. -1.
          1   -1    0    0  501    0 -0.00000000000E+00 -0.00000000000E+00 -0.56619365220E+03  0.56619365220E+03  0.00000000000E+00 0. -1.
         25    2    1    2    0    0  0.10298355259E+03  0.90121122016E+02  0.13983282947E+03  0.23217360316E+03  0.12499573221E+03 0.  0.
          2    1    1    2  501    0 -0.70094751982E+02  0.49766649279E+01 -0.51570037652E+03  0.52046606017E+03  0.00000000000E+00 0. -1.
          1    1    1    2  502    0 -0.32888800610E+02 -0.95097786943E+02  0.13028301786E+04  0.13067102726E+04  0.00000000000E+00 0. -1.
         22    1    3    3    0    0  0.11631431588E+03  0.37815756399E+02  0.61113322409E+02  0.13672559997E+03  0.00000000000E+00 0. -1.
         22    1    3    3    0    0 -0.13330763288E+02  0.52305365617E+02  0.78719507060E+02  0.95448003195E+02  0.00000000000E+00 0. -1.
</event>
<event>
 7    1  0.5593520E-006  0.4972834E+02  0.7818608E-02  0.1491301E+00
          2   -1    0    0  502    0  0.00000000000E+00  0.00000000000E+00  0.17343010565E+04  0.17343010565E+04  0.00000000000E+00 0. -1.
          1   -1    0    0  501    0 -0.00000000000E+00 -0.00000000000E+00 -0.46119823020E+02  0.46119823020E+02  0.00000000000E+00 0. -1.
         25    2    1    2    0    0 -0.80119652194E+01 -0.21677099442E+02  0.45307580093E+03  0.47057074795E+03  0.12500023683E+03 0.  0.
          2    1    1    2  501    0  0.43918160129E+02  0.25789078430E+02 -0.19638900114E+02  0.54585417037E+02  0.00000000000E+00 0. -1.
          1    1    1    2  502    0 -0.35906194910E+02 -0.41119789885E+01  0.12547443327E+04  0.12552647145E+04  0.00000000000E+00 0. -1.
         22    1    3    3    0    0  0.28763752604E+02 -0.43083730718E+02  0.39602359625E+03  0.39939735866E+03  0.00000000000E+00 0.  1.
         22    1    3    3    0    0 -0.36775717823E+02  0.21406631277E+02  0.57052204681E+02  0.71173389290E+02  0.00000000000E+00 0.  1.
</event>
<event>
 7    1  0.5593520E-006  0.9216996E+02  0.7818608E-02  0.1444184E+00
          2   -1    0    0  502    0  0.00000000000E+00  0.00000000000E+00  0.15024576428E+04  0.15024576428E+04  0.00000000000E+00 0. -1.
          1   -1    0    0  501    0 -0.00000000000E+00 -0.00000000000E+00 -0.13813668134E+03  0.13813668134E+03  0.00000000000E+00 0. -1.
         25    2    1    2    0    0 -0.64153981587E+02  0.80578535866E+02  0.36262741615E+03  0.39715588275E+03  0.12500207386E+03 0.  0.
          2    1    1    2  501    0  0.37014593826E+02 -0.84029580178E+02 -0.10324076071E+03  0.13816549921E+03  0.00000000000E+00 0. -1.
          1    1    1    2  502    0  0.27139387761E+02  0.34510443115E+01  0.11049343060E+04  0.11052729421E+04  0.00000000000E+00 0. -1.
         22    1    3    3    0    0 -0.72347194847E+02  0.10356510400E+03  0.34397551006E+03  0.36644098964E+03  0.00000000000E+00 0.  1.
         22    1    3    3    0    0  0.81932132600E+01 -0.22986568136E+02  0.18651906090E+02  0.30714893114E+02  0.00000000000E+00 0.  1.
</event>
<event>
 7    1  0.5593520E-006  0.4817604E+02  0.7818608E-02  0.1540050E+00
          2   -1    0    0  502    0  0.00000000000E+00  0.00000000000E+00  0.10638582162E+04  0.10638582162E+04  0.00000000000E+00 0. -1.
          1   -1    0    0  501    0 -0.00000000000E+00 -0.00000000000E+00 -0.32490246899E+02  0.32490246899E+02  0.00000000000E+00 0. -1.
         25    2    1    2    0    0  0.29897650939E+02 -0.44731741464E+02  0.65896624717E+03  0.67287892356E+03  0.12503892448E+03 0.  0.
          2    1    1    2  501    0 -0.26660566307E+02 -0.33822034357E+01 -0.16535739477E+02  0.31554013626E+02  0.00000000000E+00 0. -1.
          1    1    1    2  502    0 -0.32370846320E+01  0.48113944900E+02  0.38893746159E+03  0.39191552590E+03  0.00000000000E+00 0. -1.
         22    1    3    3    0    0  0.74346383497E+02 -0.52481045884E+02  0.44138883268E+03  0.45067254912E+03  0.00000000000E+00 0.  1.
         22    1    3    3    0    0 -0.44448732558E+02  0.77493044192E+01  0.21757741449E+03  0.22220637444E+03  0.00000000000E+00 0.  1.
</event>
<event>
 7    1  0.5593520E-006  0.8466473E+02  0.7818608E-02  0.1470719E+00
          2   -1    0    0  502    0  0.00000000000E+00  0.00000000000E+00  0.22558073578E+04  0.22558073578E+04  0.00000000000E+00 0. -1.
          1   -1    0    0  501    0 -0.00000000000E+00 -0.00000000000E+00 -0.12834490148E+03  0.12834490148E+03  0.00000000000E+00 0. -1.
         25    2    1    2    0    0  0.36737926409E+02 -0.55506100173E+02  0.43805364232E+03  0.46037637232E+03  0.12499923297E+03 0.  0.
          2    1    1    2  501    0 -0.31224643612E+02  0.79423217571E+02 -0.10155064312E+03  0.13264825282E+03  0.00000000000E+00 0. -1.
          1    1    1    2  502    0 -0.55132827971E+01 -0.23917117398E+02  0.17909594572E+04  0.17911276342E+04  0.00000000000E+00 0. -1.
         22    1    3    3    0    0 -0.38057760225E+02 -0.16027063778E+02  0.59087469598E+02  0.72087370254E+02  0.00000000000E+00 0.  1.
         22    1    3    3    0    0  0.74795686634E+02 -0.39479036396E+02  0.37896617273E+03  0.38828900207E+03  0.00000000000E+00 0.  1.
</event>
<event>
 7    1  0.5593520E-006  0.5708557E+02  0.7818608E-02  0.1449240E+00
          2   -1    0    0  502    0  0.00000000000E+00  0.00000000000E+00  0.92589167481E+03  0.92589167481E+03  0.00000000000E+00 0. -1.
          1   -1    0    0  501    0 -0.00000000000E+00 -0.00000000000E+00 -0.29693252857E+03  0.29693252857E+03  0.00000000000E+00 0. -1.
         25    2    1    2    0    0 -0.80404582555E+02 -0.35719270791E+02 -0.20880621739E+03  0.25878569855E+03  0.12501695145E+03 0.  0.
          2    1    1    2  501    0  0.39167848751E+02  0.25231971517E+02 -0.53964125957E+02  0.71294457378E+02  0.00000000000E+00 0. -1.
          1    1    1    2  502    0  0.41236733804E+02  0.10487299274E+02  0.89172948959E+03  0.89274404746E+03  0.00000000000E+00 0. -1.
         22    1    3    3    0    0  0.25065357276E+02 -0.15044223366E+01 -0.33690026663E+01  0.25335461332E+02  0.00000000000E+00 0.  1.
         22    1    3    3    0    0 -0.10546993983E+03 -0.34214848455E+02 -0.20543721473E+03  0.23345023722E+03  0.00000000000E+00 0.  1.
</event>
<event>
 7    1  0.5593520E-006  0.3337059E+03  0.7818608E-02  0.1275582E+00
          2   -1    0    0  502    0  0.00000000000E+00  0.00000000000E+00  0.55976859144E+03  0.55976859144E+03  0.00000000000E+00 0. -1.
          1   -1    0    0  501    0 -0.00000000000E+00 -0.00000000000E+00 -0.32194733801E+04  0.32194733801E+04  0.00000000000E+00 0. -1.
         25    2    1    2    0    0  0.16526221181E+02  0.32538811507E+03 -0.70114917762E+03  0.78318917234E+03  0.12499827590E+03 0.  0.
          2    1    1    2  501    0 -0.46960734262E+02 -0.33289156801E+03 -0.24654120473E+04  0.24882280180E+04  0.00000000000E+00 0. -1.
          1    1    1    2  502    0  0.30434513082E+02  0.75034529371E+01  0.50685643627E+03  0.50782478118E+03  0.00000000000E+00 0. -1.
         22    1    3    3    0    0 -0.47401642627E+02  0.21330612756E+03 -0.40596680673E+03  0.46103738237E+03  0.00000000000E+00 0. -1.
         22    1    3    3    0    0  0.63927863807E+02  0.11208198751E+03 -0.29518237088E+03  0.32215178996E+03  0.00000000000E+00 0. -1.
</event>
<event>
 7    1  0.5593520E-006  0.4604725E+02  0.7818608E-02  0.1492567E+00
          2   -1    0    0  502    0  0.00000000000E+00  0.00000000000E+00  0.11052891490E+02  0.11052891490E+02  0.00000000000E+00 0. -1.
          1   -1    0    0  501    0 -0.00000000000E+00 -0.00000000000E+00 -0.12795324710E+04  0.12795324710E+04  0.00000000000E+00 0. -1.
         25    2    1    2    0    0  0.29398743661E+02  0.37664033627E+02 -0.71880046359E+03  0.73115079336E+03  0.12499804242E+03 0.  0.
          2    1    1    2  501    0 -0.37357863038E+02  0.10058267429E+02 -0.40577284576E+03  0.40761302853E+03  0.00000000000E+00 0. -1.
          1    1    1    2  502    0  0.79591193773E+01 -0.47722301057E+02 -0.14390627019E+03  0.15182154063E+03  0.00000000000E+00 0. -1.
         22    1    3    3    0    0  0.22435680031E+02 -0.21242779740E+02 -0.44091056762E+02  0.53838988808E+02  0.00000000000E+00 0. -1.
         22    1    3    3    0    0  0.69630636296E+01  0.58906813367E+02 -0.67470940683E+03  0.67731180455E+03  0.00000000000E+00 0. -1.
</event>
<event>
 7    1  0.5593520E-006  0.5088804E+02  0.7818608E-02  0.1449783E+00
          2   -1    0    0  502    0  0.00000000000E+00  0.00000000000E+00  0.54624135448E+03  0.54624135448E+03  0.00000000000E+00 0. -1.
          1   -1    0    0  501    0 -0.00000000000E+00 -0.00000000000E+00 -0.12159601116E+03  0.12159601116E+03  0.00000000000E+00 0. -1.
         25    2    1    2    0    0  0.14485304873E+02 -0.69562047450E+02  0.10665212243E+03  0.17902419225E+03  0.12500513464E+03 0.  0.
          2    1    1    2  501    0 -0.40882188823E+02  0.30023354332E+02 -0.76323591829E+02  0.91640852451E+02  0.00000000000E+00 0. -1.
          1    1    1    2  502    0  0.26396883950E+02  0.39538693118E+02  0.39431681271E+03  0.39717232094E+03  0.00000000000E+00 0. -1.
         22    1    3    3    0    0 -0.11384456358E+02 -0.88300068405E+02  0.26733074558E+02  0.92957867888E+02  0.00000000000E+00 0.  1.
         22    1    3    3    0    0  0.25869761230E+02  0.18738020955E+02  0.79919047874E+02  0.86066324358E+02  0.00000000000E+00 0.  1.
</event>
<event>
 7    1  0.5593520E-006  0.1647986E+03  0.7818608E-02  0.1364725E+00
          2   -1    0    0  502    0  0.00000000000E+00  0.00000000000E+00  0.98434153978E+03  0.98434153978E+03  0.00000000000E+00 0. -1.
          1   -1    0    0  501    0 -0.00000000000E+00 -0.00000000000E+00 -0.78890012721E+03  0.78890012721E+03  0.00000000000E+00 0. -1.
         25    2    1    2    0    0 -0.14981344849E+03 -0.10864843011E+03 -0.26549791187E+03  0.34693068260E+03  0.12499282622E+03 0.  0.
          2    1    1    2  501    0  0.13362654980E+03  0.85067328941E+02 -0.46946384951E+03  0.49546827473E+03  0.00000000000E+00 0. -1.
          1    1    1    2  502    0  0.16186898693E+02  0.23581101174E+02  0.93040317395E+03  0.93084270966E+03  0.00000000000E+00 0. -1.
         22    1    3    3    0    0 -0.93834879956E+02 -0.13055395294E+02 -0.19167120394E+03  0.21380663802E+03  0.00000000000E+00 0.  1.
         22    1    3    3    0    0 -0.55978568533E+02 -0.95593034821E+02 -0.73826707936E+02  0.13312404458E+03  0.00000000000E+00 0.  1.
</event>
<event>
 7    1  0.5593520E-006  0.1150339E+03  0.7818608E-02  0.1339887E+00
          2   -1    0    0  502    0  0.00000000000E+00  0.00000000000E+00  0.78026117784E+03  0.78026117784E+03  0.00000000000E+00 0. -1.
          1   -1    0    0  501    0 -0.00000000000E+00 -0.00000000000E+00 -0.10682966289E+03  0.10682966289E+03  0.00000000000E+00 0. -1.
         25    2    1    2    0    0  0.80658320351E+01  0.15870713725E+03  0.40944551137E+03  0.45665751388E+03  0.12504977066E+03 0.  0.
          2    1    1    2  501    0  0.86467247314E+01 -0.11093539126E+03 -0.43008913508E+02  0.11929456619E+03  0.00000000000E+00 0. -1.
          1    1    1    2  502    0 -0.16712556766E+02 -0.47771745989E+02  0.30699491708E+03  0.31113876066E+03  0.00000000000E+00 0. -1.
         22    1    3    3    0    0 -0.37355122073E+02  0.26111180805E+02  0.36974018413E+02  0.58687962528E+02  0.00000000000E+00 0. -1.
         22    1    3    3    0    0  0.45420954108E+02  0.13259595644E+03  0.37247149296E+03  0.39796955135E+03  0.00000000000E+00 0. -1.
</event>
<event>
 7    1  0.5593520E-006  0.8274805E+02  0.7818608E-02  0.1334608E+00
          2   -1    0    0  502    0  0.00000000000E+00  0.00000000000E+00  0.21420629964E+03  0.21420629964E+03  0.00000000000E+00 0. -1.
          1   -1    0    0  501    0 -0.00000000000E+00 -0.00000000000E+00 -0.19030430713E+04  0.19030430713E+04  0.00000000000E+00 0. -1.
         25    2    1    2    0    0  0.83967371332E+02 -0.57150711532E+02 -0.70348822725E+02  0.17575786538E+03  0.12500058843E+03 0.  0.
          2    1    1    2  501    0 -0.20567611828E+01  0.73635350723E+02 -0.17683648325E+04  0.17698984648E+04  0.00000000000E+00 0. -1.
          1    1    1    2  502    0 -0.81910610150E+02 -0.16484639191E+02  0.14987688356E+03  0.17159304068E+03  0.00000000000E+00 0. -1.
         22    1    3    3    0    0  0.67336037818E+01 -0.36176342232E+02 -0.86599737348E+02  0.94093483653E+02  0.00000000000E+00 0. -1.
         22    1    3    3    0    0  0.77233767551E+02 -0.20974369300E+02  0.16250914623E+02  0.81664381732E+02  0.00000000000E+00 0. -1.
</event>
<event>
 7    1  0.5593520E-006  0.5375126E+02  0.7818608E-02  0.1515615E+00
          2   -1    0    0  502    0  0.00000000000E+00  0.00000000000E+00  0.56294425053E+03  0.56294425053E+03  0.00000000000E+00 0. -1.
          1   -1    0    0  501    0 -0.00000000000E+00 -0.00000000000E+00 -0.39481235488E+03  0.39481235488E+03  0.00000000000E+00 0. -1.
         25    2    1    2    0    0 -0.22670474397E+02  0.77971913882E+02 -0.61832648290E+02  0.16140641477E+03  0.12504073165E+03 0.  0.
          2    1    1    2  501    0  0.35853747495E+01 -0.28085646230E+02 -0.28108983614E+03  0.28251221994E+03  0.00000000000E+00 0. -1.
          1    1    1    2  502    0  0.19085099647E+02 -0.49886267651E+02  0.51105438008E+03  0.51383797069E+03  0.00000000000E+00 0. -1.
         22    1    3    3    0    0  0.48779404930E+02  0.55336124423E+02 -0.24938377141E+02  0.77868091449E+02  0.00000000000E+00 0.  1.
         22    1    3    3    0    0 -0.71449879326E+02  0.22635789459E+02 -0.36894271150E+02  0.83538323324E+02  0.00000000000E+00 0.  1.
</event>
<event>
 7    1  0.5593520E-006  0.3071073E+03  0.7818608E-02  0.1252308E+00
          2   -1    0    0  502    0  0.00000000000E+00  0.00000000000E+00  0.19909947518E+03  0.19909947518E+03  0.00000000000E+00 0. -1.
          1   -1    0    0  501    0 -0.00000000000E+00 -0.00000000000E+00 -0.19371408684E+04  0.19371408684E+04  0.00000000000E+00 0. -1.
         25    2    1    2    0    0  0.27568145201E+03 -0.18752173433E+03 -0.49874783411E+03  0.61281257075E+03  0.12500072407E+03 0.  0.
          2    1    1    2  501    0 -0.26115213587E+03  0.14731358351E+03 -0.13614135672E+04  0.13940403979E+04  0.00000000000E+00 0. -1.
          1    1    1    2  502    0 -0.14529316138E+02  0.40208150824E+02  0.12212000809E+03  0.12938737495E+03  0.00000000000E+00 0. -1.
         22    1    3    3    0    0  0.58301081019E+02 -0.13597345166E+02 -0.17954655165E+03  0.18926401680E+03  0.00000000000E+00 0. -1.
         22    1    3    3    0    0  0.21738037099E+03 -0.17392438916E+03 -0.31920128245E+03  0.42354855395E+03  0.00000000000E+00 0. -1.
</event>
<event>
 7    1  0.5593520E-006  0.5385177E+02  0.7818608E-02  0.1489214E+00
          2   -1    0    0  502    0  0.00000000000E+00  0.00000000000E+00  0.19768368851E+03  0.19768368851E+03  0.00000000000E+00 0. -1.
          1   -1    0    0  501    0 -0.00000000000E+00 -0.00000000000E+00 -0.44360557778E+03  0.44360557778E+03  0.00000000000E+00 0. -1.
         25    2    1    2    0    0  0.67306992162E+02 -0.54167111364E+02 -0.12312975331E+03  0.19557597814E+03  0.12499887972E+03 0.  0.
          2    1    1    2  501    0 -0.28819233002E+02  0.17778810968E+02 -0.27885695654E+03  0.28090538714E+03  0.00000000000E+00 0. -1.
          1    1    1    2  502    0 -0.38487759159E+02  0.36388300397E+02  0.15606482058E+03  0.16480790101E+03  0.00000000000E+00 0. -1.
         22    1    3    3    0    0  0.72597991790E+02 -0.74706364622E+02 -0.43016817592E+02  0.11270295437E+03  0.00000000000E+00 0. -1.
         22    1    3    3    0    0 -0.52909996281E+01  0.20539253257E+02 -0.80112935715E+02  0.82873023779E+02  0.00000000000E+00 0. -1.
</event>
<event>
 7    1  0.5593520E-006  0.3063983E+02  0.7818608E-02  0.1617495E+00
          2   -1    0    0  502    0  0.00000000000E+00  0.00000000000E+00  0.64325716790E+03  0.64325716790E+03  0.00000000000E+00 0. -1.
          1   -1    0    0  501    0 -0.00000000000E+00 -0.00000000000E+00 -0.23004310609E+03  0.23004310609E+03  0.00000000000E+00 0. -1.
         25    2    1    2    0    0  0.39956620893E+02  0.17558526065E+02  0.10237679102E+02  0.13279759771E+03  0.12500223395E+03 0.  0.
          2    1    1    2  501    0 -0.24600031689E+02  0.89190117593E+01 -0.16733597353E+03  0.16936953199E+03  0.00000000000E+00 0. -1.
          1    1    1    2  502    0 -0.15356589203E+02 -0.26477537824E+02  0.57031235623E+03  0.57113314430E+03  0.00000000000E+00 0. -1.
         22    1    3    3    0    0  0.18685185602E+02  0.66098693991E+00 -0.57155073569E+02  0.60135476213E+02  0.00000000000E+00 0. -1.
         22    1    3    3    0    0  0.21271435291E+02  0.16897539125E+02  0.67392752672E+02  0.72662121497E+02  0.00000000000E+00 0. -1.
</event>
<event>
 7    1  0.5593520E-006  0.8392033E+02  0.7818608E-02  0.1358108E+00
          2   -1    0    0  502    0  0.00000000000E+00  0.00000000000E+00  0.56447283206E+03  0.56447283206E+03  0.00000000000E+00 0. -1.
          1   -1    0    0  501    0 -0.00000000000E+00 -0.00000000000E+00 -0.32155477293E+03  0.32155477293E+03  0.00000000000E+00 0. -1.
         25    2    1    2    0    0  0.40817090136E+00  0.28597509905E+02 -0.10013161193E+03  0.16269293725E+03  0.12499867178E+03 0.  0.
          2    1    1    2  501    0 -0.28575951082E+02  0.52043109982E+02 -0.18197041465E+03  0.19141134262E+03  0.00000000000E+00 0. -1.
          1    1    1    2  502    0  0.28167780181E+02 -0.80640619887E+02  0.52502008570E+03  0.53192332512E+03  0.00000000000E+00 0. -1.
         22    1    3    3    0    0  0.47573310124E+02  0.55932747947E+02 -0.62812859199E+02  0.96628916013E+02  0.00000000000E+00 0.  1.
         22    1    3    3    0    0 -0.47165139223E+02 -0.27335238042E+02 -0.37318752731E+02  0.66064021238E+02  0.00000000000E+00 0.  1.
</event>
<event>
 7    1  0.5593520E-006  0.1699954E+03  0.7818608E-02  0.1359522E+00
          2   -1    0    0  502    0  0.00000000000E+00  0.00000000000E+00  0.36601499515E+03  0.36601499515E+03  0.00000000000E+00 0. -1.
          1   -1    0    0  501    0 -0.00000000000E+00 -0.00000000000E+00 -0.18463152506E+03  0.18463152506E+03  0.00000000000E+00 0. -1.
         25    2    1    2    0    0 -0.70531041577E+02  0.14616799800E+03 -0.11378601587E+02  0.20516980114E+03  0.12500185303E+03 0.  0.
          2    1    1    2  501    0 -0.28524567337E+02 -0.50204331059E+01 -0.43938503794E+02  0.52625543284E+02  0.00000000000E+00 0. -1.
          1    1    1    2  502    0  0.99055608915E+02 -0.14114756490E+03  0.23670057546E+03  0.29285117579E+03  0.00000000000E+00 0. -1.
         22    1    3    3    0    0  0.25868421123E+02 -0.23025909742E+01 -0.10855610223E+02  0.28148204382E+02  0.00000000000E+00 0.  1.
         22    1    3    3    0    0 -0.96399462701E+02  0.14847058898E+03 -0.52299136456E+00  0.17702159676E+03  0.00000000000E+00 0.  1.
</event>
<event>
 7    1  0.5593520E-006  0.1077215E+03  0.7818608E-02  0.1437338E+00
          2   -1    0    0  502    0  0.00000000000E+00  0.00000000000E+00  0.71785809146E+03  0.71785809146E+03  0.00000000000E+00 0. -1.
          1   -1    0    0  501    0 -0.00000000000E+00 -0.00000000000E+00 -0.12977138657E+04  0.12977138657E+04  0.00000000000E+00 0. -1.
         25    2    1    2    0    0  0.11057595592E+03 -0.44852591535E+02 -0.35616976371E+03  0.39587765909E+03  0.12499369341E+03 0.  0.
          2    1    1    2  501    0 -0.20376453070E+02 -0.13845895451E+02 -0.91737574479E+03  0.91770647039E+03  0.00000000000E+00 0. -1.
          1    1    1    2  502    0 -0.90199502854E+02  0.58698486986E+02  0.69368973430E+03  0.70198782764E+03  0.00000000000E+00 0. -1.
         22    1    3    3    0    0  0.99338069129E+02  0.14904401590E+02 -0.28546927282E+03  0.30262666586E+03  0.00000000000E+00 0. -1.
         22    1    3    3    0    0  0.11237886795E+02 -0.59756993125E+02 -0.70700490884E+02  0.93250993229E+02  0.00000000000E+00 0. -1.
</event>
<event>
 7    1  0.5593520E-006  0.5236225E+02  0.7818608E-02  0.1545131E+00
          2   -1    0    0  502    0  0.00000000000E+00  0.00000000000E+00  0.15721859259E+03  0.15721859259E+03  0.00000000000E+00 0. -1.
          1   -1    0    0  501    0 -0.00000000000E+00 -0.00000000000E+00 -0.67582638047E+03  0.67582638047E+03  0.00000000000E+00 0. -1.
         25    2    1    2    0    0 -0.41454124465E+02 -0.59839825745E+02 -0.19309782962E+03  0.24126980751E+03  0.12500039613E+03 0.  0.
          2    1    1    2  501    0  0.43552889075E+01  0.23524413293E+02 -0.45325406849E+03  0.45388502637E+03  0.00000000000E+00 0. -1.
          1    1    1    2  502    0  0.37098835557E+02  0.36315412452E+02  0.12774411024E+03  0.13789013917E+03  0.00000000000E+00 0. -1.
         22    1    3    3    0    0 -0.27502615121E+01 -0.58457384080E+02 -0.19389383758E+03  0.20253308358E+03  0.00000000000E+00 0. -1.
         22    1    3    3    0    0 -0.38703862953E+02 -0.13824416652E+01  0.79600796217E+00  0.38736723934E+02  0.00000000000E+00 0. -1.
</event>
<event>
 7    1  0.5593520E-006  0.1455752E+03  0.7818608E-02  0.1231350E+00
          2   -1    0    0  502    0  0.00000000000E+00  0.00000000000E+00  0.25796521258E+03  0.25796521258E+03  0.00000000000E+00 0. -1.
          1   -1    0    0  501    0 -0.00000000000E+00 -0.00000000000E+00 -0.68997987894E+03  0.68997987894E+03  0.00000000000E+00 0. -1.
         25    2    1    2    0    0 -0.10102424722E+02  0.97553265701E+02 -0.63765429625E+02  0.17119454791E+03  0.12499137804E+03 0.  0.
          2    1    1    2  501    0 -0.11034728999E+03  0.16076857413E+02 -0.53218231294E+03  0.54373983113E+03  0.00000000000E+00 0. -1.
          1    1    1    2  502    0  0.12044971472E+03 -0.11363012311E+03  0.16393307620E+03  0.23301071247E+03  0.00000000000E+00 0. -1.
         22    1    3    3    0    0 -0.20733521662E+02  0.21057278735E+02  0.35007073342E+02  0.45812477473E+02  0.00000000000E+00 0. -1.
         22    1    3    3    0    0  0.10631096940E+02  0.76495986966E+02 -0.98772502967E+02  0.12538207043E+03  0.00000000000E+00 0. -1.
</event>
<event>
 7    1  0.5593520E-006  0.8250564E+02  0.7818608E-02  0.1348034E+00
          2   -1    0    0  502    0  0.00000000000E+00  0.00000000000E+00  0.75635554676E+03  0.75635554676E+03  0.00000000000E+00 0. -1.
          1   -1    0    0  501    0 -0.00000000000E+00 -0.00000000000E+00 -0.16212173734E+03  0.16212173734E+03  0.00000000000E+00 0. -1.
         25    2    1    2    0    0  0.16103024525E+02 -0.19045304252E+01  0.37655746170E+03  0.39709408120E+03  0.12500101092E+03 0.  0.
          2    1    1    2  501    0  0.82500954130E+02 -0.87925235010E+00 -0.13332244270E+03  0.15678665199E+03  0.00000000000E+00 0. -1.
          1    1    1    2  502    0 -0.98603978655E+02  0.27837827753E+01  0.35099879042E+03  0.36459655090E+03  0.00000000000E+00 0. -1.
         22    1    3    3    0    0  0.65121382643E+02 -0.13800118444E+02  0.28386677242E+03  0.29156745742E+03  0.00000000000E+00 0. -1.
         22    1    3    3    0    0 -0.49018358118E+02  0.11895588019E+02  0.92690689281E+02  0.10552662378E+03  0.00000000000E+00 0. -1.
</event>
<event>
 7    1  0.5593520E-006  0.6351133E+02  0.7818608E-02  0.1474164E+00
          2   -1    0    0  502    0  0.00000000000E+00  0.00000000000E+00  0.71126144114E+02  0.71126144114E+02  0.00000000000E+00 0. -1.
          1   -1    0    0  501    0 -0.00000000000E+00 -0.00000000000E+00 -0.37693059641E+03  0.37693059641E+03  0.00000000000E+00 0. -1.
         25    2    1    2    0    0 -0.44719366609E+02  0.76270197714E+02 -0.93197608448E+02  0.17924220181E+03  0.12500003152E+03 0.  0.
          2    1    1    2  501    0  0.42282737572E+02 -0.44438813915E+02 -0.22601326516E+03  0.23418931253E+03  0.00000000000E+00 0. -1.
          1    1    1    2  502    0  0.24366290377E+01 -0.31831383799E+02  0.13406421307E+02  0.34625226178E+02  0.00000000000E+00 0. -1.
         22    1    3    3    0    0 -0.67401495798E+02  0.47193018498E+01 -0.77024028054E+02  0.10245942779E+03  0.00000000000E+00 0. -1.
         22    1    3    3    0    0  0.22682129189E+02  0.71550895864E+02 -0.16173580394E+02  0.76782774021E+02  0.00000000000E+00 0. -1.
</event>
<event>
 7    1  0.5593520E-006  0.5936605E+02  0.7818608E-02  0.1468617E+00
          2   -1    0    0  502    0  0.00000000000E+00  0.00000000000E+00  0.24361482392E+03  0.24361482392E+03  0.00000000000E+00 0. -1.
          1   -1    0    0  501    0 -0.00000000000E+00 -0.00000000000E+00 -0.15672892200E+03  0.15672892200E+03  0.00000000000E+00 0. -1.
         25    2    1    2    0    0 -0.26478501026E+02  0.18062997076E+02  0.12311782472E+03  0.17835516719E+03  0.12500073607E+03 0.  0.
          2    1    1    2  501    0  0.29030068623E+02 -0.53506366647E+02 -0.11803098820E+03  0.13280433100E+03  0.00000000000E+00 0. -1.
          1    1    1    2  502    0 -0.25515675966E+01  0.35443369571E+02  0.81799065406E+02  0.89184247740E+02  0.00000000000E+00 0. -1.
         22    1    3    3    0    0  0.36493219894E+02  0.44423427560E+02  0.76480645819E+02  0.95679073988E+02  0.00000000000E+00 0. -1.
         22    1    3    3    0    0 -0.62971720920E+02 -0.26360430484E+02  0.46637178900E+02  0.82676093199E+02  0.00000000000E+00 0. -1.
</event>
<event>
 7    1  0.5593520E-006  0.8003688E+02  0.7818608E-02  0.1490504E+00
          2   -1    0    0  502    0  0.00000000000E+00  0.00000000000E+00  0.19309237693E+04  0.19309237693E+04  0.00000000000E+00 0. -1.
          1   -1    0    0  501    0 -0.00000000000E+00 -0.00000000000E+00 -0.26810533808E+03  0.26810533808E+03  0.00000000000E+00 0. -1.
         25    2    1    2    0    0  0.60048659184E+02 -0.94592426023E+01  0.95330664825E+03  0.96338685011E+03  0.12500135452E+03 0.  0.
          2    1    1    2  501    0 -0.80160884201E+02 -0.80454643946E+00 -0.25682304531E+03  0.26904366049E+03  0.00000000000E+00 0. -1.
          1    1    1    2  502    0  0.20112225017E+02  0.10263789042E+02  0.96633482825E+03  0.96659859675E+03  0.00000000000E+00 0. -1.
         22    1    3    3    0    0 -0.83374724817E+00  0.64561990367E+01 -0.13584091559E+01  0.66500312714E+01  0.00000000000E+00 0.  1.
         22    1    3    3    0    0  0.60882406432E+02 -0.15915441639E+02  0.95466505740E+03  0.95673681884E+03  0.00000000000E+00 0.  1.
</event>
<event>
 7    1  0.5593520E-006  0.1536811E+03  0.7818608E-02  0.1244449E+00
          2   -1    0    0  502    0  0.00000000000E+00  0.00000000000E+00  0.20899519206E+03  0.20899519206E+03  0.00000000000E+00 0. -1.
          1   -1    0    0  501    0 -0.00000000000E+00 -0.00000000000E+00 -0.17217842887E+04  0.17217842887E+04  0.00000000000E+00 0. -1.
         25    2    1    2    0    0 -0.17511568312E+02  0.64487994144E+02  0.52362896767E+02  0.15110290556E+03  0.12499943479E+03 0.  0.
          2    1    1    2  501    0  0.98620758213E+01 -0.15660157294E+03 -0.16480586586E+04  0.16555115993E+04  0.00000000000E+00 0. -1.
          1    1    1    2  502    0  0.76494924909E+01  0.92113578798E+02  0.82906665134E+02  0.12416497597E+03  0.00000000000E+00 0. -1.
         22    1    3    3    0    0  0.48594185317E+02  0.25173869100E+02  0.50038500441E+02  0.74155040682E+02  0.00000000000E+00 0. -1.
         22    1    3    3    0    0 -0.66105753629E+02  0.39314125044E+02  0.23243963252E+01  0.76947864877E+02  0.00000000000E+00 0. -1.
</event>
<event>
 7    1  0.5593520E-006  0.7505821E+02  0.7818608E-02  0.1445938E+00
          2   -1    0    0  502    0  0.00000000000E+00  0.00000000000E+00  0.83930428600E+03  0.83930428600E+03  0.00000000000E+00 0. -1.
          1   -1    0    0  501    0 -0.00000000000E+00 -0.00000000000E+00 -0.21127275611E+03  0.21127275611E+03  0.00000000000E+00 0. -1.
         25    2    1    2    0    0  0.46126952935E+02 -0.68061830103E+02  0.21551341436E+02  0.15115526675E+03  0.12499338320E+03 0.  0.
          2    1    1    2  501    0 -0.32655234638E+02 -0.57662033869E+01 -0.14269488081E+03  0.14649724387E+03  0.00000000000E+00 0. -1.
          1    1    1    2  502    0 -0.13471718297E+02  0.73828033490E+02  0.74917506926E+03  0.75292453149E+03  0.00000000000E+00 0. -1.
         22    1    3    3    0    0  0.38972284397E+01 -0.33045228557E+02 -0.50573421580E+02  0.60537975604E+02  0.00000000000E+00 0.  1.
         22    1    3    3    0    0  0.42229724495E+02 -0.35016601546E+02  0.72124763016E+02  0.90617291147E+02  0.00000000000E+00 0.  1.
</event>
<event>
 7    1  0.5593520E-006  0.6466095E+02  0.7818608E-02  0.1436508E+00
          2   -1    0    0  502    0  0.00000000000E+00  0.00000000000E+00  0.12371763876E+04  0.12371763876E+04  0.00000000000E+00 0. -1.
          1   -1    0    0  501    0 -0.00000000000E+00 -0.00000000000E+00 -0.69957283277E+03  0.69957283277E+03  0.00000000000E+00 0. -1.
         25    2    1    2    0    0 -0.38013224691E+02  0.14871174870E+02  0.14857254241E+03  0.19840449090E+03  0.12499753821E+03 0.  0.
          2    1    1    2  501    0  0.62241448456E+02  0.18573042447E+02 -0.67269111510E+03  0.67581971868E+03  0.00000000000E+00 0. -1.
          1    1    1    2  502    0 -0.24228223766E+02 -0.33444217316E+02  0.10617221276E+04  0.10625250108E+04  0.00000000000E+00 0. -1.
         22    1    3    3    0    0 -0.67659824269E+02  0.49889008287E+02  0.81083034693E+02  0.11679564839E+03  0.00000000000E+00 0. -1.
         22    1    3    3    0    0  0.29646599578E+02 -0.35017833417E+02  0.67489507719E+02  0.81608842510E+02  0.00000000000E+00 0. -1.
</event>
<event>
 7    1  0.5593520E-006  0.8681352E+02  0.7818608E-02  0.1326807E+00
          2   -1    0    0  502    0  0.00000000000E+00  0.00000000000E+00  0.18095807152E+04  0.18095807152E+04  0.00000000000E+00 0. -1.
          1   -1    0    0  501    0 -0.00000000000E+00 -0.00000000000E+00 -0.95106323192E+02  0.95106323192E+02  0.00000000000E+00 0. -1.
         25    2    1    2    0    0 -0.59971252102E+01 -0.16152347221E+02  0.78988672934E+02  0.14886944170E+03  0.12500414549E+03 0.  0.
          2    1    1    2  501    0  0.90244281616E+02  0.37104783746E+02 -0.18704290417E+02  0.99351123905E+02  0.00000000000E+00 0. -1.
          1    1    1    2  502    0 -0.84247156406E+02 -0.20952436525E+02  0.16541900095E+04  0.16564664728E+04  0.00000000000E+00 0. -1.
         22    1    3    3    0    0 -0.44032510527E+01  0.24488871102E+02 -0.26175355623E+02  0.36114300072E+02  0.00000000000E+00 0. -1.
         22    1    3    3    0    0 -0.15938741575E+01 -0.40641218323E+02  0.10516402856E+03  0.11275514163E+03  0.00000000000E+00 0. -1.
</event>
<event>
 7    1  0.5593520E-006  0.3784491E+02  0.7818608E-02  0.1544267E+00
          2   -1    0    0  502    0  0.00000000000E+00  0.00000000000E+00  0.91685277397E+03  0.91685277397E+03  0.00000000000E+00 0. -1.
          1   -1    0    0  501    0 -0.00000000000E+00 -0.00000000000E+00 -0.23367743043E+03  0.23367743043E+03  0.00000000000E+00 0. -1.
         25    2    1    2    0    0  0.34176506421E+02 -0.28211717671E+02  0.31276257921E+03  0.33971866981E+03  0.12499763621E+03 0.  0.
          2    1    1    2  501    0  0.36744447575E+01  0.33083499088E+02 -0.21832006200E+03  0.22084308667E+03  0.00000000000E+00 0. -1.
          1    1    1    2  502    0 -0.37850951178E+02 -0.48717814177E+01  0.58873282632E+03  0.58996844793E+03  0.00000000000E+00 0. -1.
         22    1    3    3    0    0 -0.46974774405E+02 -0.12866889181E+02  0.13999621956E+03  0.14822660948E+03  0.00000000000E+00 0.  1.
         22    1    3    3    0    0  0.81151280826E+02 -0.15344828489E+02  0.17276635966E+03  0.19149206033E+03  0.00000000000E+00 0.  1.
</event>
<event>
 7    1  0.5593520E-006  0.3882875E+02  0.7818608E-02  0.1527128E+00
          2   -1    0    0  502    0  0.00000000000E+00  0.00000000000E+00  0.10936094306E+04  0.10936094306E+04  0.00000000000E+00 0. -1.
          1   -1    0    0  501    0 -0.00000000000E+00 -0.00000000000E+00 -0.14775190684E+04  0.14775190684E+04  0.00000000000E+00 0. -1.
         25    2    1    2    0    0  0.64115282979E+01  0.67955635181E+02  0.24623578131E+03  0.28445752087E+03  0.12499978053E+03 0.  0.
          2    1    1    2  501    0 -0.18917582566E+02 -0.33882314888E+02 -0.14577522283E+04  0.14582686465E+04  0.00000000000E+00 0. -1.
          1    1    1    2  502    0  0.12506054269E+02 -0.34073320293E+02  0.82760680919E+03  0.82840233170E+03  0.00000000000E+00 0. -1.
         22    1    3    3    0    0 -0.48294622553E+01  0.65704709588E+02  0.38299673928E+02  0.76205627028E+02  0.00000000000E+00 0.  1.
         22    1    3    3    0    0  0.11240990553E+02  0.22509255930E+01  0.20793610738E+03  0.20825189384E+03  0.00000000000E+00 0.  1.
</event>
<event>
 7    1  0.5593520E-006  0.9977884E+02  0.7818608E-02  0.1281845E+00
          2   -1    0    0  502    0  0.00000000000E+00  0.00000000000E+00  0.17992472629E+03  0.17992472629E+03  0.00000000000E+00 0. -1.
          1   -1    0    0  501    0 -0.00000000000E+00 -0.00000000000E+00 -0.24424622768E+04  0.24424622768E+04  0.00000000000E+00 0. -1.
         25    2    1    2    0    0 -0.79110323509E+02  0.60557070428E+02 -0.10055404117E+04  0.10181676171E+04  0.12501269843E+03 0.  0.
          2    1    1    2  501    0  0.10634497118E+03  0.34371107838E+02 -0.14141785087E+04  0.14185878473E+04  0.00000000000E+00 0. -1.
          1    1    1    2  502    0 -0.27234647670E+02 -0.94928178266E+02  0.15718137002E+03  0.18563153865E+03  0.00000000000E+00 0. -1.
         22    1    3    3    0    0 -0.88043876735E+02 -0.19420375657E+01 -0.74016151872E+03  0.74538216341E+03  0.00000000000E+00 0.  1.
         22    1    3    3    0    0  0.89335532258E+01  0.62499107994E+02 -0.26537889302E+03  0.27278545367E+03  0.00000000000E+00 0.  1.
</event>
<event>
 7    1  0.5593520E-006  0.7430246E+02  0.7818608E-02  0.1415702E+00
          2   -1    0    0  502    0  0.00000000000E+00  0.00000000000E+00  0.21656684281E+03  0.21656684281E+03  0.00000000000E+00 0. -1.
          1   -1    0    0  501    0 -0.00000000000E+00 -0.00000000000E+00 -0.86928022749E+03  0.86928022749E+03  0.00000000000E+00 0. -1.
         25    2    1    2    0    0  0.32788304242E+02  0.58002690899E+02 -0.12856997253E+03  0.19130822266E+03  0.12501685157E+03 0.  0.
          2    1    1    2  501    0  0.56251782336E+01 -0.75271060041E+02 -0.70490547788E+03  0.70893519299E+03  0.00000000000E+00 0. -1.
          1    1    1    2  502    0 -0.38413482475E+02  0.17268369142E+02  0.18076206574E+03  0.18560365465E+03  0.00000000000E+00 0. -1.
         22    1    3    3    0    0 -0.65018114231E+01  0.89540380959E+02 -0.68611321196E+02  0.11299233058E+03  0.00000000000E+00 0.  1.
         22    1    3    3    0    0  0.39290115665E+02 -0.31537690060E+02 -0.59958651331E+02  0.78315892083E+02  0.00000000000E+00 0.  1.
</event>
<event>
 7    1  0.5593520E-006  0.3928400E+02  0.7818608E-02  0.1539338E+00
          2   -1    0    0  502    0  0.00000000000E+00  0.00000000000E+00  0.33140471261E+03  0.33140471261E+03  0.00000000000E+00 0. -1.
          1   -1    0    0  501    0 -0.00000000000E+00 -0.00000000000E+00 -0.68693577865E+03  0.68693577865E+03  0.00000000000E+00 0. -1.
         25    2    1    2    0    0  0.24621055531E+02  0.12029614787E+02 -0.30670320046E+03  0.33232897384E+03  0.12499914270E+03 0.  0.
          2    1    1    2  501    0 -0.19205072080E+02  0.26971566460E+02 -0.36545177382E+03  0.36694863289E+03  0.00000000000E+00 0. -1.
          1    1    1    2  502    0 -0.54159834517E+01 -0.39001181246E+02  0.31662390823E+03  0.31906288452E+03  0.00000000000E+00 0. -1.
         22    1    3    3    0    0  0.59165085773E+02 -0.52781914359E+01 -0.27779340828E+03  0.28407313207E+03  0.00000000000E+00 0.  1.
         22    1    3    3    0    0 -0.34544030242E+02  0.17307806223E+02 -0.28909792179E+02  0.48255841775E+02  0.00000000000E+00 0.  1.
</event>
<event>
 7    1  0.5593520E-006  0.5865153E+02  0.7818608E-02  0.1543010E+00
          2   -1    0    0  502    0  0.00000000000E+00  0.00000000000E+00  0.17199477198E+03  0.17199477198E+03  0.00000000000E+00 0. -1.
          1   -1    0    0  501    0 -0.00000000000E+00 -0.00000000000E+00 -0.24932838539E+03  0.24932838539E+03  0.00000000000E+00 0. -1.
         25    2    1    2    0    0  0.33236765677E+02 -0.51984571020E+02 -0.98318060699E+02  0.17058806320E+03  0.12500707192E+03 0.  0.
          2    1    1    2  501    0 -0.20969102741E+02 -0.54030043643E+01 -0.10740688557E+03  0.10956794602E+03  0.00000000000E+00 0. -1.
          1    1    1    2  502    0 -0.12267662936E+02  0.57387575385E+02  0.12839133286E+03  0.14116714815E+03  0.00000000000E+00 0. -1.
         22    1    3    3    0    0  0.40354723740E+02  0.30113137666E+02 -0.13066913986E+02  0.52019698474E+02  0.00000000000E+00 0. -1.
         22    1    3    3    0    0 -0.71179580624E+01 -0.82097708687E+02 -0.85251146713E+02  0.11856836473E+03  0.00000000000E+00 0. -1.
</event>
<event>
 7    1  0.5593520E-006  0.9448337E+02  0.7818608E-02  0.1340624E+00
          2   -1    0    0  502    0  0.00000000000E+00  0.00000000000E+00  0.12323106398E+04  0.12323106398E+04  0.00000000000E+00 0. -1.
          1   -1    0    0  501    0 -0.00000000000E+00 -0.00000000000E+00 -0.37734858239E+03  0.37734858239E+03  0.00000000000E+00 0. -1.
         25    2    1    2    0    0  0.84178587266E+02 -0.63910880594E+02  0.28089947141E+03  0.32511336454E+03  0.12499420606E+03 0.  0.
          2    1    1    2  501    0 -0.94573490517E+02  0.35730340619E+01 -0.34790479441E+03  0.36054771897E+03  0.00000000000E+00 0. -1.
          1    1    1    2  502    0  0.10394903251E+02  0.60337846532E+02  0.92196738037E+03  0.92399813864E+03  0.00000000000E+00 0. -1.
         22    1    3    3    0    0 -0.25814037131E+02 -0.16020245410E+02  0.12364848904E+03  0.12732620162E+03  0.00000000000E+00 0. -1.
         22    1    3    3    0    0  0.10999262440E+03 -0.47890635184E+02  0.15725098237E+03  0.19778716292E+03  0.00000000000E+00 0. -1.
</event>
<event>
 7    1  0.5593520E-006  0.2984047E+02  0.7818608E-02  0.1605577E+00
          2   -1    0    0  502    0  0.00000000000E+00  0.00000000000E+00  0.22234944526E+03  0.22234944526E+03  0.00000000000E+00 0. -1.
          1   -1    0    0  501    0 -0.00000000000E+00 -0.00000000000E+00 -0.60391121412E+03  0.60391121412E+03  0.00000000000E+00 0. -1.
         25    2    1    2    0    0  0.31896575217E+02  0.48203291171E+02 -0.42200580011E+03  0.44390833689E+03  0.12499906977E+03 0.  0.
          2    1    1    2  501    0 -0.19728939573E+02 -0.21028781978E+02 -0.16867623056E+03  0.17112308870E+03  0.00000000000E+00 0. -1.
          1    1    1    2  502    0 -0.12167635644E+02 -0.27174509193E+02  0.20912026181E+03  0.21122923379E+03  0.00000000000E+00 0. -1.
         22    1    3    3    0    0  0.20500084765E+02 -0.39047269101E+02 -0.87000285072E+02  0.97539696033E+02  0.00000000000E+00 0. -1.
         22    1    3    3    0    0  0.11396490452E+02  0.87250560272E+02 -0.33500551504E+03  0.34636864085E+03  0.00000000000E+00 0. -1.
</event>
<event>
 7    1  0.5593520E-006  0.1436955E+03  0.7818608E-02  0.1337967E+00
          2   -1    0    0  502    0  0.00000000000E+00  0.00000000000E+00  0.10667113653E+03  0.10667113653E+03  0.00000000000E+00 0. -1.
          1   -1    0    0  501    0 -0.00000000000E+00 -0.00000000000E+00 -0.59436270508E+03  0.59436270508E+03  0.00000000000E+00 0. -1.
         25    2    1    2    0    0 -0.64833691075E+02  0.10429838855E+03 -0.16270853741E+03  0.23912477455E+03  0.12500011323E+03 0.  0.
          2    1    1    2  501    0 -0.40500976146E+02  0.75376194578E+01 -0.30408464270E+03  0.30686253389E+03  0.00000000000E+00 0. -1.
          1    1    1    2  502    0  0.10533466722E+03 -0.11183600801E+03 -0.20898388440E+02  0.15504653316E+03  0.00000000000E+00 0. -1.
         22    1    3    3    0    0 -0.29011245447E+02 -0.10101705117E+02  0.68455148577E+01  0.31473129528E+02  0.00000000000E+00 0.  1.
         22    1    3    3    0    0 -0.35822445628E+02  0.11440009367E+03 -0.16955405226E+03  0.20765164502E+03  0.00000000000E+00 0.  1.
</event>
<event>
 7    1  0.5593520E-006  0.4923156E+02  0.7818608E-02  0.1481706E+00
          2   -1    0    0  502    0  0.00000000000E+00  0.00000000000E+00  0.64853938700E+03  0.64853938700E+03  0.00000000000E+00 0. -1.
          1   -1    0    0  501    0 -0.00000000000E+00 -0.00000000000E+00 -0.68857700313E+03  0.68857700313E+03  0.00000000000E+00 0. -1.
         25    2    1    2    0    0  0.15360419883E+02 -0.67484926970E+01 -0.24612128565E+02  0.12850124641E+03  0.12500131521E+03 0.  0.
          2    1    1    2  501    0 -0.20818748411E+02  0.45406699705E+02 -0.61036018289E+03  0.61240080137E+03  0.00000000000E+00 0. -1.
          1    1    1    2  502    0  0.54583285273E+01 -0.38658207008E+02  0.59493469532E+03  0.59621434234E+03  0.00000000000E+00 0. -1.
         22    1    3    3    0    0 -0.23901901932E+01  0.50132640184E+02  0.20038192751E+02  0.54041870709E+02  0.00000000000E+00 0.  1.
         22    1    3    3    0    0  0.17750610076E+02 -0.56881132881E+02 -0.44650321317E+02  0.74459375700E+02  0.00000000000E+00 0.  1.
</event>
<event>
 7    1  0.5593520E-006  0.1412672E+03  0.7818608E-02  0.1253638E+00
          2   -1    0    0  502    0  0.00000000000E+00  0.00000000000E+00  0.90518943504E+03  0.90518943504E+03  0.00000000000E+00 0. -1.
          1   -1    0    0  501    0 -0.00000000000E+00 -0.00000000000E+00 -0.20494748464E+04  0.20494748464E+04  0.00000000000E+00 0. -1.
         25    2    1    2    0    0  0.94173581502E+02 -0.43842037893E+02  0.20862859909E+03  0.26446504055E+03  0.12500031030E+03 0.  0.
          2    1    1    2  501    0  0.62819119794E+02  0.66832430175E+02 -0.20110837990E+04  0.20131743249E+04  0.00000000000E+00 0. -1.
          1    1    1    2  502    0 -0.15699270130E+03 -0.22990392282E+02  0.65816978856E+03  0.67702491606E+03  0.00000000000E+00 0. -1.
         22    1    3    3    0    0  0.12117752674E+02 -0.62991789448E+02  0.14602482157E+03  0.15949311578E+03  0.00000000000E+00 0.  1.
         22    1    3    3    0    0  0.82055828828E+02  0.19149751555E+02  0.62603777525E+02  0.10497192477E+03  0.00000000000E+00 0.  1.
</event>
<event>
 7    1  0.5593520E-006  0.7129822E+02  0.7818608E-02  0.1444106E+00
          2   -1    0    0  502    0  0.00000000000E+00  0.00000000000E+00  0.32081723746E+02  0.32081723746E+02  0.00000000000E+00 0. -1.
          1   -1    0    0  501    0 -0.00000000000E+00 -0.00000000000E+00 -0.18804119640E+04  0.18804119640E+04  0.00000000000E+00 0. -1.
         25    2    1    2    0    0  0.52652665019E+02 -0.79456070541E+02 -0.65074845075E+03  0.66946523994E+03  0.12499836421E+03 0.  0.
          2    1    1    2  501    0 -0.33059627243E+02  0.12621757774E+02 -0.11660316544E+04  0.11665685007E+04  0.00000000000E+00 0. -1.
          1    1    1    2  502    0 -0.19593037776E+02  0.66834312767E+02 -0.31550135142E+02  0.76459947161E+02  0.00000000000E+00 0. -1.
         22    1    3    3    0    0  0.88117567753E+02 -0.42359637927E+02 -0.51790651374E+03  0.52705426822E+03  0.00000000000E+00 0.  1.
         22    1    3    3    0    0 -0.35464902734E+02 -0.37096432614E+02 -0.13284193701E+03  0.14241097172E+03  0.00000000000E+00 0.  1.
</event>
<event>
 7    1  0.5593520E-006  0.9058199E+02  0.7818608E-02  0.1356752E+00
          2   -1    0    0  502    0  0.00000000000E+00  0.00000000000E+00  0.48612655477E+03  0.48612655477E+03  0.00000000000E+00 0. -1.
          1   -1    0    0  501    0 -0.00000000000E+00 -0.00000000000E+00 -0.10399781431E+04  0.10399781431E+04  0.00000000000E+00 0. -1.
         25    2    1    2    0    0 -0.50576122339E+02  0.33855282297E+02 -0.37910657668E+03  0.40379582876E+03  0.12500060221E+03 0.  0.
          2    1    1    2  501    0  0.10152083413E+03 -0.11488290223E+02 -0.64284527597E+03  0.65091359597E+03  0.00000000000E+00 0. -1.
          1    1    1    2  502    0 -0.50944711794E+02 -0.22366992075E+02  0.46810026437E+03  0.47139527309E+03  0.00000000000E+00 0. -1.
         22    1    3    3    0    0  0.35213288088E+02  0.38504907110E+02 -0.16655390926E+03  0.17453597972E+03  0.00000000000E+00 0.  1.
         22    1    3    3    0    0 -0.85789410427E+02 -0.46496248127E+01 -0.21255266742E+03  0.22925984904E+03  0.00000000000E+00 0.  1.
</event>
<event>
 7    1  0.5593520E-006  0.1318918E+03  0.7818608E-02  0.1289869E+00
          2   -1    0    0  502    0  0.00000000000E+00  0.00000000000E+00  0.24104866247E+03  0.24104866247E+03  0.00000000000E+00 0. -1.
          1   -1    0    0  501    0 -0.00000000000E+00 -0.00000000000E+00 -0.70946987616E+03  0.70946987616E+03  0.00000000000E+00 0. -1.
         25    2    1    2    0    0 -0.18511308987E+02 -0.81082743486E+02  0.54140303067E+02  0.15960674650E+03  0.12500424496E+03 0.  0.
          2    1    1    2  501    0  0.82486981915E+02  0.10764185787E+03 -0.64019364615E+03  0.65439955403E+03  0.00000000000E+00 0. -1.
          1    1    1    2  502    0 -0.63975672928E+02 -0.26559114384E+02  0.11763212940E+03  0.13651223809E+03  0.00000000000E+00 0. -1.
         22    1    3    3    0    0 -0.40694141015E+02 -0.86290884999E+02 -0.56997924026E+01  0.95575193331E+02  0.00000000000E+00 0.  1.
         22    1    3    3    0    0  0.22182832028E+02  0.52081415137E+01  0.59840095469E+02  0.64031553164E+02  0.00000000000E+00 0.  1.
</event>
<event>
 7    1  0.5593520E-006  0.9111375E+02  0.7818608E-02  0.1316018E+00
          2   -1    0    0  502    0  0.00000000000E+00  0.00000000000E+00  0.42493168581E+03  0.42493168581E+03  0.00000000000E+00 0. -1.
          1   -1    0    0  501    0 -0.00000000000E+00 -0.00000000000E+00 -0.28245670335E+03  0.28245670335E+03  0.00000000000E+00 0. -1.
         25    2    1    2    0    0  0.11090468177E+03  0.10157434099E+03 -0.73696020170E+02  0.20898142157E+03  0.12499974396E+03 0.  0.
          2    1    1    2  501    0 -0.25875307770E+02 -0.74515508705E+02 -0.12386998123E+03  0.14685320847E+03  0.00000000000E+00 0. -1.
          1    1    1    2  502    0 -0.85029373997E+02 -0.27058832284E+02  0.34004098385E+03  0.35155375911E+03  0.00000000000E+00 0. -1.
         22    1    3    3    0    0  0.50346014219E+02  0.10137250557E+03  0.52732190736E+00  0.11318738490E+03  0.00000000000E+00 0.  1.
         22    1    3    3    0    0  0.60558667549E+02  0.20183542305E+00 -0.74223342078E+02  0.95794036672E+02  0.00000000000E+00 0.  1.
</event>
<event>
 7    1  0.5593520E-006  0.9910652E+02  0.7818608E-02  0.1420457E+00
          2   -1    0    0  502    0  0.00000000000E+00  0.00000000000E+00  0.10581684272E+04  0.10581684272E+04  0.00000000000E+00 0. -1.
          1   -1    0    0  501    0 -0.00000000000E+00 -0.00000000000E+00 -0.13545559878E+04  0.13545559878E+04  0.00000000000E+00 0. -1.
         25    2    1    2    0    0 -0.10771331984E+03 -0.33041051341E+02 -0.12534583086E+03  0.20983501576E+03  0.12500114472E+03 0.  0.
          2    1    1    2  501    0  0.83841314197E+02  0.51926044964E+02 -0.11846882776E+04  0.11887859333E+04  0.00000000000E+00 0. -1.
          1    1    1    2  502    0  0.23872005642E+02 -0.18884993623E+02  0.10136465479E+04  0.10141034660E+04  0.00000000000E+00 0. -1.
         22    1    3    3    0    0 -0.49971394418E+02 -0.34187112097E+02  0.11203565950E+02  0.61574497834E+02  0.00000000000E+00 0.  1.
         22    1    3    3    0    0 -0.57741925421E+02  0.11460607559E+01 -0.13654939681E+03  0.14826051793E+03  0.00000000000E+00 0.  1.
</event>
<event>
 7    1  0.5593520E-006  0.5360420E+02  0.7818608E-02  0.1485239E+00
          2   -1    0    0  502    0  0.00000000000E+00  0.00000000000E+00  0.14766592993E+04  0.14766592993E+04  0.00000000000E+00 0. -1.
          1   -1    0    0  501    0 -0.00000000000E+00 -0.00000000000E+00 -0.93603382192E+01  0.93603382192E+01  0.00000000000E+00 0. -1.
         25    2    1    2    0    0  0.70665181362E+01 -0.48391470788E+02  0.93815946124E+03  0.94771296573E+03  0.12500008229E+03 0.  0.
          2    1    1    2  501    0  0.34347642583E+02  0.66073415770E+01  0.12117516420E+03  0.12612231338E+03  0.00000000000E+00 0. -1.
          1    1    1    2  502    0 -0.41414160719E+02  0.41784129211E+02  0.40796433562E+03  0.41218435839E+03  0.00000000000E+00 0. -1.
         22    1    3    3    0    0 -0.34194322802E+02  0.23680973028E+02  0.50181047440E+03  0.50353132218E+03  0.00000000000E+00 0.  1.
         22    1    3    3    0    0  0.41260840938E+02 -0.72072443817E+02  0.43634898684E+03  0.44418164355E+03  0.00000000000E+00 0.  1.
</event>
<event>
 7    1  0.5593520E-006  0.1042005E+03  0.7818608E-02  0.1332219E+00
          2   -1    0    0  502    0  0.00000000000E+00  0.00000000000E+00  0.56657362710E+03  0.56657362710E+03  0.00000000000E+00 0. -1.
          1   -1    0    0  501    0 -0.00000000000E+00 -0.00000000000E+00 -0.12283028997E+04  0.12283028997E+04  0.00000000000E+00 0. -1.
         25    2    1    2    0    0  0.58021242405E+02 -0.13121399313E+03 -0.12605182767E+03  0.22824888193E+03  0.12499964912E+03 0.  0.
          2    1    1    2  501    0  0.14758734427E+02  0.57881816675E+02 -0.10451141000E+04  0.10468197586E+04  0.00000000000E+00 0. -1.
          1    1    1    2  502    0 -0.72779976832E+02  0.73332176455E+02  0.50943665506E+03  0.51980788629E+03  0.00000000000E+00 0. -1.
         22    1    3    3    0    0 -0.38236630563E+02 -0.46814201583E+02 -0.26133969410E+02  0.65852818799E+02  0.00000000000E+00 0.  1.
         22    1    3    3    0    0  0.96257872968E+02 -0.84399791547E+02 -0.99917858262E+02  0.16239606313E+03  0.00000000000E+00 0.  1.
</event>
<event>
 7    1  0.5593520E-006  0.8935361E+02  0.7818608E-02  0.1356415E+00
          2   -1    0    0  502    0  0.00000000000E+00  0.00000000000E+00  0.35702745205E+02  0.35702745205E+02  0.00000000000E+00 0. -1.
          1   -1    0    0  501    0 -0.00000000000E+00 -0.00000000000E+00 -0.13318847354E+04  0.13318847354E+04  0.00000000000E+00 0. -1.
         25    2    1    2    0    0  0.29340069906E+02 -0.72549067411E+02 -0.22903723823E+03  0.27240908103E+03  0.12499777617E+03 0.  0.
          2    1    1    2  501    0 -0.79407913126E+02  0.46229021161E+02 -0.10120635969E+04  0.10162260886E+04  0.00000000000E+00 0. -1.
          1    1    1    2  502    0  0.50067843221E+02  0.26320046251E+02 -0.55081155094E+02  0.78952310960E+02  0.00000000000E+00 0. -1.
         22    1    3    3    0    0  0.62080792294E+02 -0.85505023629E+02 -0.13139036939E+03  0.16860771930E+03  0.00000000000E+00 0. -1.
         22    1    3    3    0    0 -0.32740722388E+02  0.12955956218E+02 -0.97646868838E+02  0.10380136173E+03  0.00000000000E+00 0. -1.
</event>
<event>
 7    1  0.5593520E-006  0.9974321E+02  0.7818608E-02  0.1402616E+00
          2   -1    0    0  502    0  0.00000000000E+00  0.00000000000E+00  0.12106897825E+04  0.12106897825E+04  0.00000000000E+00 0. -1.
          1   -1    0    0  501    0 -0.00000000000E+00 -0.00000000000E+00 -0.15936115193E+04  0.15936115193E+04  0.00000000000E+00 0. -1.
         25    2    1    2    0    0  0.14866898673E+02  0.11392895380E+03 -0.37036108862E+03  0.40742242444E+03  0.12499945912E+03 0.  0.
          2    1    1    2  501    0  0.15650880464E+02 -0.97305860872E+02 -0.12024499652E+04  0.12064822002E+04  0.00000000000E+00 0. -1.
          1    1    1    2  502    0 -0.30517779137E+02 -0.16623092928E+02  0.11898893170E+04  0.11903966771E+04  0.00000000000E+00 0. -1.
         22    1    3    3    0    0 -0.13575990122E+02  0.69482039646E+02 -0.33840675345E+03  0.34573283345E+03  0.00000000000E+00 0.  1.
         22    1    3    3    0    0  0.28442888795E+02  0.44446914154E+02 -0.31954335172E+02  0.61689590994E+02  0.00000000000E+00 0.  1.
</event>
<event>
 7    1  0.5593520E-006  0.6821400E+02  0.7818608E-02  0.1470147E+00
          2   -1    0    0  502    0  0.00000000000E+00  0.00000000000E+00  0.83382967295E+03  0.83382967295E+03  0.00000000000E+00 0. -1.
          1   -1    0    0  501    0 -0.00000000000E+00 -0.00000000000E+00 -0.64258491164E+03  0.64258491164E+03  0.00000000000E+00 0. -1.
         25    2    1    2    0    0  0.28328342110E+02 -0.25238990050E+02 -0.11036028699E+03  0.17100262048E+03  0.12499200647E+03 0.  0.
          2    1    1    2  501    0  0.23024914665E+02 -0.20137357639E+02 -0.49997404514E+03  0.50090887962E+03  0.00000000000E+00 0. -1.
          1    1    1    2  502    0 -0.51353256775E+02  0.45376347689E+02  0.80157909344E+03  0.80450308449E+03  0.00000000000E+00 0. -1.
         22    1    3    3    0    0  0.75293223619E+02 -0.42502600131E+01 -0.85058781749E+02  0.11367554964E+03  0.00000000000E+00 0. -1.
         22    1    3    3    0    0 -0.46964881509E+02 -0.20988730037E+02 -0.25301505237E+02  0.57327070839E+02  0.00000000000E+00 0. -1.
</event>
<event>
 7    1  0.5593520E-006  0.5222272E+02  0.7818608E-02  0.1433810E+00
          2   -1    0    0  502    0  0.00000000000E+00  0.00000000000E+00  0.16124098633E+04  0.16124098633E+04  0.00000000000E+00 0. -1.
          1   -1    0    0  501    0 -0.00000000000E+00 -0.00000000000E+00 -0.77099233397E+03  0.77099233397E+03  0.00000000000E+00 0. -1.
         25    2    1    2    0    0  0.11202883507E+01  0.47088736471E+01  0.13026630668E+03  0.18059199019E+03  0.12498290974E+03 0.  0.
          2    1    1    2  501    0  0.52071435661E+02 -0.34098275390E+01 -0.74443005664E+03  0.74625677254E+03  0.00000000000E+00 0. -1.
          1    1    1    2  502    0 -0.53191724012E+02 -0.12990461081E+01  0.14555812793E+04  0.14565534345E+04  0.00000000000E+00 0. -1.
         22    1    3    3    0    0 -0.30312954008E+02 -0.47777714567E+01  0.14233886528E+03  0.14560925400E+03  0.00000000000E+00 0. -1.
         22    1    3    3    0    0  0.31433242359E+02  0.94866451039E+01 -0.12072558599E+02  0.34982736194E+02  0.00000000000E+00 0. -1.
</event>
<event>
 7    1  0.5593520E-006  0.4986263E+02  0.7818608E-02  0.1483430E+00
          2   -1    0    0  502    0  0.00000000000E+00  0.00000000000E+00  0.10816942846E+04  0.10816942846E+04  0.00000000000E+00 0. -1.
          1   -1    0    0  501    0 -0.00000000000E+00 -0.00000000000E+00 -0.30630786658E+04  0.30630786658E+04  0.00000000000E+00 0. -1.
         25    2    1    2    0    0 -0.15228491489E+02 -0.27412724352E+02 -0.24939224836E+03  0.28072174585E+03  0.12499936256E+03 0.  0.
          2    1    1    2  501    0 -0.33738283379E+02  0.17663694130E+02 -0.27973073934E+04  0.27975666088E+04  0.00000000000E+00 0. -1.
          1    1    1    2  502    0  0.48966774868E+02  0.97490302220E+01  0.10653152605E+04  0.10664845957E+04  0.00000000000E+00 0. -1.
         22    1    3    3    0    0  0.23213223904E+02 -0.58156732067E+02 -0.20530195328E+03  0.21463911869E+03  0.00000000000E+00 0.  1.
         22    1    3    3    0    0 -0.38441715393E+02  0.30744007714E+02 -0.44090295075E+02  0.66082627161E+02  0.00000000000E+00 0.  1.
</event>
<event>
 7    1  0.5593520E-006  0.1157205E+03  0.7818608E-02  0.1395672E+00
          2   -1    0    0  502    0  0.00000000000E+00  0.00000000000E+00  0.10122580067E+03  0.10122580067E+03  0.00000000000E+00 0. -1.
          1   -1    0    0  501    0 -0.00000000000E+00 -0.00000000000E+00 -0.18007888912E+04  0.18007888912E+04  0.00000000000E+00 0. -1.
         25    2    1    2    0    0  0.23545217207E+02 -0.13015103217E+03 -0.42648461880E+03  0.46368839442E+03  0.12499651443E+03 0.  0.
          2    1    1    2  501    0 -0.27461370130E+02  0.15732316521E+02 -0.13157620004E+04  0.13161425737E+04  0.00000000000E+00 0. -1.
          1    1    1    2  502    0  0.39161529228E+01  0.11441871565E+03  0.42683528616E+02  0.12218372379E+03  0.00000000000E+00 0. -1.
         22    1    3    3    0    0 -0.29811263633E+02 -0.37563915320E+02 -0.39221903810E+02  0.61952537575E+02  0.00000000000E+00 0. -1.
         22    1    3    3    0    0  0.53356480840E+02 -0.92587116848E+02 -0.38726271499E+03  0.40173585684E+03  0.00000000000E+00 0. -1.
</event>
<event>
 7    1  0.5593520E-006  0.7375018E+02  0.7818608E-02  0.1424700E+00
          2   -1    0    0  502    0  0.00000000000E+00  0.00000000000E+00  0.27919019047E+03  0.27919019047E+03  0.00000000000E+00 0. -1.
          1   -1    0    0  501    0 -0.00000000000E+00 -0.00000000000E+00 -0.11966769246E+03  0.11966769246E+03  0.00000000000E+00 0. -1.
         25    2    1    2    0    0  0.40419957340E+02 -0.59703600267E+02  0.36260240066E+02  0.14878275667E+03  0.12499284314E+03 0.  0.
          2    1    1    2  501    0 -0.36452180795E+02 -0.15461811624E+02 -0.48460746218E+02  0.62580132849E+02  0.00000000000E+00 0. -1.
          1    1    1    2  502    0 -0.39677765449E+01  0.75165411891E+02  0.17172300417E+03  0.18749499341E+03  0.00000000000E+00 0. -1.
         22    1    3    3    0    0  0.34081104597E+02 -0.90762085494E+02  0.55490390736E+02  0.11170703343E+03  0.00000000000E+00 0.  1.
         22    1    3    3    0    0  0.63388527432E+01  0.31058485226E+02 -0.19230150670E+02  0.37075723236E+02  0.00000000000E+00 0.  1.
</event>
<event>
 7    1  0.5593520E-006  0.8258935E+02  0.7818608E-02  0.1402093E+00
          2   -1    0    0  502    0  0.00000000000E+00  0.00000000000E+00  0.78731471033E+03  0.78731471033E+03  0.00000000000E+00 0. -1.
          1   -1    0    0  501    0 -0.00000000000E+00 -0.00000000000E+00 -0.17708753473E+03  0.17708753473E+03  0.00000000000E+00 0. -1.
         25    2    1    2    0    0 -0.36015814330E+02  0.35859471270E+02  0.45931429509E+02  0.14253911115E+03  0.12499864571E+03 0.  0.
          2    1    1    2  501    0  0.77833158859E+02 -0.41087604088E+02 -0.11301471026E+03  0.14324285868E+03  0.00000000000E+00 0. -1.
          1    1    1    2  502    0 -0.41817344530E+02  0.52281328182E+01  0.67731045635E+03  0.67862027523E+03  0.00000000000E+00 0. -1.
         22    1    3    3    0    0  0.41851401408E+02  0.24489350587E+02 -0.50854577783E+01  0.48755819887E+02  0.00000000000E+00 0. -1.
         22    1    3    3    0    0 -0.77867215738E+02  0.11370120683E+02  0.51016887287E+02  0.93783291260E+02  0.00000000000E+00 0. -1.
</event>
<event>
 7    1  0.5593520E-006  0.1238413E+03  0.7818608E-02  0.1344029E+00
          2   -1    0    0  502    0  0.00000000000E+00  0.00000000000E+00  0.77591676561E+03  0.77591676561E+03  0.00000000000E+00 0. -1.
          1   -1    0    0  501    0 -0.00000000000E+00 -0.00000000000E+00 -0.57985096897E+03  0.57985096897E+03  0.00000000000E+00 0. -1.
         25    2    1    2    0    0 -0.83752359047E+02 -0.38226273077E+02  0.17692193108E+03  0.23537283194E+03  0.12499317868E+03 0.  0.
          2    1    1    2  501    0  0.12389319591E+03  0.17103541545E+02 -0.54259758779E+03  0.55682510486E+03  0.00000000000E+00 0. -1.
          1    1    1    2  502    0 -0.40140836864E+02  0.21122731533E+02  0.56174145335E+03  0.56356979779E+03  0.00000000000E+00 0. -1.
         22    1    3    3    0    0 -0.18123051767E+02  0.17484958383E+02 -0.11899806159E+02  0.27852722697E+02  0.00000000000E+00 0.  1.
         22    1    3    3    0    0 -0.65629307280E+02 -0.55711231460E+02  0.18882173724E+03  0.20752010924E+03  0.00000000000E+00 0.  1.
</event>
<event>
 7    1  0.5593520E-006  0.5985224E+02  0.7818608E-02  0.1482862E+00
          2   -1    0    0  502    0  0.00000000000E+00  0.00000000000E+00  0.11620462800E+04  0.11620462800E+04  0.00000000000E+00 0. -1.
          1   -1    0    0  501    0 -0.00000000000E+00 -0.00000000000E+00 -0.10820996808E+04  0.10820996808E+04  0.00000000000E+00 0. -1.
         25    2    1    2    0    0 -0.52433074110E+02 -0.54488733246E+01  0.39301044760E+02  0.14123673650E+03  0.12499730451E+03 0.  0.
          2    1    1    2  501    0  0.49997820281E+01 -0.31458598133E+02 -0.10300428943E+04  0.10305353004E+04  0.00000000000E+00 0. -1.
          1    1    1    2  502    0  0.47433292082E+02  0.36907471458E+02  0.10706884487E+04  0.10723739239E+04  0.00000000000E+00 0. -1.
         22    1    3    3    0    0  0.28264992692E+02 -0.10392770333E+02  0.51315472756E+02  0.59499556564E+02  0.00000000000E+00 0. -1.
         22    1    3    3    0    0 -0.80698066802E+02  0.49438970086E+01 -0.12014427996E+02  0.81737179933E+02  0.00000000000E+00 0. -1.
</event>
<event>
 7    1  0.5593520E-006  0.8511517E+02  0.7818608E-02  0.1390718E+00
          2   -1    0    0  502    0  0.00000000000E+00  0.00000000000E+00  0.26304412050E+04  0.26304412050E+04  0.00000000000E+00 0. -1.
          1   -1    0    0  501    0 -0.00000000000E+00 -0.00000000000E+00 -0.34142610673E+03  0.34142610673E+03  0.00000000000E+00 0. -1.
         25    2    1    2    0    0  0.36460267158E+02  0.61913383507E+02  0.19150713502E+03  0.23971334668E+03  0.12499955069E+03 0.  0.
          2    1    1    2  501    0 -0.37830745663E+02  0.23936674964E+02 -0.31497654409E+03  0.31814203283E+03  0.00000000000E+00 0. -1.
          1    1    1    2  502    0  0.13704785052E+01 -0.85850058471E+02  0.24124845073E+04  0.24140119322E+04  0.00000000000E+00 0. -1.
         22    1    3    3    0    0  0.33900255018E+02  0.78284334615E+02  0.53461248620E+02  0.10067655854E+03  0.00000000000E+00 0. -1.
         22    1    3    3    0    0  0.25600121395E+01 -0.16370951109E+02  0.13804588640E+03  0.13903678813E+03  0.00000000000E+00 0. -1.
</event>
<event>
 7    1  0.5593520E-006  0.1199589E+03  0.7818608E-02  0.1327002E+00
          2   -1    0    0  502    0  0.00000000000E+00  0.00000000000E+00  0.90687369314E+03  0.90687369314E+03  0.00000000000E+00 0. -1.
          1   -1    0    0  501    0 -0.00000000000E+00 -0.00000000000E+00 -0.22627768946E+04  0.22627768946E+04  0.00000000000E+00 0. -1.
         25    2    1    2    0    0 -0.80933506950E+02  0.61609458420E+01 -0.20157419899E+03  0.25068462401E+03  0.12498973244E+03 0.  0.
          2    1    1    2  501    0  0.11881423888E+03  0.32778520059E+02 -0.20339439909E+04  0.20376750018E+04  0.00000000000E+00 0. -1.
          1    1    1    2  502    0 -0.37880731929E+02 -0.38939465901E+02  0.87961498841E+03  0.88129096199E+03  0.00000000000E+00 0. -1.
         22    1    3    3    0    0 -0.76635485340E+02  0.41869608177E+02 -0.63422950798E+02  0.10792836694E+03  0.00000000000E+00 0.  1.
         22    1    3    3    0    0 -0.42980216102E+01 -0.35708662335E+02 -0.13815124819E+03  0.14275625707E+03  0.00000000000E+00 0.  1.
</event>
<event>
 7    1  0.5593520E-006  0.8553095E+02  0.7818608E-02  0.1495189E+00
          2   -1    0    0  502    0  0.00000000000E+00  0.00000000000E+00  0.90606748727E+02  0.90606748727E+02  0.00000000000E+00 0. -1.
          1   -1    0    0  501    0 -0.00000000000E+00 -0.00000000000E+00 -0.77638428808E+03  0.77638428808E+03  0.00000000000E+00 0. -1.
         25    2    1    2    0    0 -0.65786603889E+02 -0.11174575382E+02 -0.11105599890E+03  0.18003059724E+03  0.12499933067E+03 0.  0.
          2    1    1    2  501    0  0.85866873626E+02  0.15063824924E+02 -0.62585001794E+03  0.63189262044E+03  0.00000000000E+00 0. -1.
          1    1    1    2  502    0 -0.20080269737E+02 -0.38892495420E+01  0.51128477478E+02  0.55067819131E+02  0.00000000000E+00 0. -1.
         22    1    3    3    0    0 -0.52651372116E+02  0.62501673642E+01  0.12572365868E+02  0.54491246649E+02  0.00000000000E+00 0.  1.
         22    1    3    3    0    0 -0.13135231773E+02 -0.17424742746E+02 -0.12362836476E+03  0.12553935059E+03  0.00000000000E+00 0.  1.
</event>
<event>
 7    1  0.5593520E-006  0.4999266E+02  0.7818608E-02  0.1482508E+00
          2   -1    0    0  502    0  0.00000000000E+00  0.00000000000E+00  0.10346236477E+04  0.10346236477E+04  0.00000000000E+00 0. -1.
          1   -1    0    0  501    0 -0.00000000000E+00 -0.00000000000E+00 -0.35783571100E+03  0.35783571100E+03  0.00000000000E+00 0. -1.
         25    2    1    2    0    0 -0.38984924626E+02 -0.36622637041E+01 -0.25973316171E+02  0.13354004305E+03  0.12500037368E+03 0.  0.
          2    1    1    2  501    0  0.30450609768E+02  0.40928133972E+02 -0.27536288166E+03  0.28004833223E+03  0.00000000000E+00 0. -1.
          1    1    1    2  502    0  0.85343148579E+01 -0.37265870268E+02  0.97812413455E+03  0.97887098343E+03  0.00000000000E+00 0. -1.
         22    1    3    3    0    0  0.37670255895E+02 -0.27739171158E+02 -0.25311082044E+02  0.53189854953E+02  0.00000000000E+00 0.  1.
         22    1    3    3    0    0 -0.76655180520E+02  0.24076907454E+02 -0.66223412716E+00  0.80350188097E+02  0.00000000000E+00 0.  1.
</event>
<event>
 7    1  0.5593520E-006  0.9132987E+02  0.7818608E-02  0.1368886E+00
          2   -1    0    0  502    0  0.00000000000E+00  0.00000000000E+00  0.74769570522E+03  0.74769570522E+03  0.00000000000E+00 0. -1.
          1   -1    0    0  501    0 -0.00000000000E+00 -0.00000000000E+00 -0.76434132184E+02  0.76434132184E+02  0.00000000000E+00 0. -1.
         25    2    1    2    0    0 -0.48881297653E+02 -0.41228568061E+02  0.32264327933E+03  0.35187061135E+03  0.12500026140E+03 0.  0.
          2    1    1    2  501    0 -0.49759625160E+02  0.30815365342E+01 -0.43477838545E+02  0.66150121754E+02  0.00000000000E+00 0. -1.
          1    1    1    2  502    0  0.98640922814E+02  0.38147031526E+02  0.39209613225E+03  0.40610910430E+03  0.00000000000E+00 0. -1.
         22    1    3    3    0    0 -0.57000182714E+02  0.23802662549E+02  0.83217796523E+02  0.10363777898E+03  0.00000000000E+00 0. -1.
         22    1    3    3    0    0  0.81188850604E+01 -0.65031230610E+02  0.23942548281E+03  0.24823283237E+03  0.00000000000E+00 0. -1.
</event>
<event>
 7    1  0.5593520E-006  0.1049841E+03  0.7818608E-02  0.1459916E+00
          2   -1    0    0  502    0  0.00000000000E+00  0.00000000000E+00  0.99147775975E+03  0.99147775975E+03  0.00000000000E+00 0. -1.
          1   -1    0    0  501    0 -0.00000000000E+00 -0.00000000000E+00 -0.13231721175E+04  0.13231721175E+04  0.00000000000E+00 0. -1.
         25    2    1    2    0    0  0.10875115269E+03 -0.32945350581E+02  0.26067568240E+03  0.31062597416E+03  0.12499790035E+03 0.  0.
          2    1    1    2  501    0 -0.10424159759E+03  0.12028824843E+02 -0.12959136122E+04  0.13001550268E+04  0.00000000000E+00 0. -1.
          1    1    1    2  502    0 -0.45095551038E+01  0.20916525738E+02  0.70354357211E+03  0.70386887628E+03  0.00000000000E+00 0. -1.
         22    1    3    3    0    0  0.12113372979E+03 -0.18397664032E+02  0.13029718463E+03  0.17885527908E+03  0.00000000000E+00 0. -1.
         22    1    3    3    0    0 -0.12382577095E+02 -0.14547686548E+02  0.13037849777E+03  0.13177069508E+03  0.00000000000E+00 0. -1.
</event>
<event>
 7    1  0.5593520E-006  0.1158836E+03  0.7818608E-02  0.1366554E+00
          2   -1    0    0  502    0  0.00000000000E+00  0.00000000000E+00  0.15463325016E+03  0.15463325016E+03  0.00000000000E+00 0. -1.
          1   -1    0    0  501    0 -0.00000000000E+00 -0.00000000000E+00 -0.11732035785E+04  0.11732035785E+04  0.00000000000E+00 0. -1.
         25    2    1    2    0    0  0.11798340288E+03  0.83191850366E+02 -0.20893194246E+03  0.28305133351E+03  0.12499813398E+03 0.  0.
          2    1    1    2  501    0 -0.10382804618E+03 -0.45715965626E+02 -0.92021204086E+03  0.92717873834E+03  0.00000000000E+00 0. -1.
          1    1    1    2  502    0 -0.14155356697E+02 -0.37475884740E+02  0.11057365500E+03  0.11760675678E+03  0.00000000000E+00 0. -1.
         22    1    3    3    0    0  0.33856265132E+01 -0.10527850310E+02  0.12500415622E+02  0.16690071592E+02  0.00000000000E+00 0. -1.
         22    1    3    3    0    0  0.11459777637E+03  0.93719700675E+02 -0.22143235808E+03  0.26636126191E+03  0.00000000000E+00 0. -1.
</event>
<event>
 7    1  0.5593520E-006  0.1182137E+03  0.7818608E-02  0.1249203E+00
          2   -1    0    0  502    0  0.00000000000E+00  0.00000000000E+00  0.76146594742E+03  0.76146594742E+03  0.00000000000E+00 0. -1.
          1   -1    0    0  501    0 -0.00000000000E+00 -0.00000000000E+00 -0.80085996736E+03  0.80085996736E+03  0.00000000000E+00 0. -1.
         25    2    1    2    0    0  0.39555150362E+02 -0.13446981090E+03  0.31251841853E+03  0.36462412228E+03  0.12504498657E+03 0.  0.
          2    1    1    2  501    0 -0.11008951668E+03  0.44196910249E+02 -0.76237615768E+03  0.77155069462E+03  0.00000000000E+00 0. -1.
          1    1    1    2  502    0  0.70534366319E+02  0.90272900653E+02  0.41046371923E+03  0.42615109788E+03  0.00000000000E+00 0. -1.
         22    1    3    3    0    0 -0.37966046629E+02 -0.25551267750E+02  0.13397812782E+03  0.14157834126E+03  0.00000000000E+00 0. -1.
         22    1    3    3    0    0  0.77521196991E+02 -0.10891854315E+03  0.17854029071E+03  0.22304578102E+03  0.00000000000E+00 0. -1.
</event>
<event>
 7    1  0.5593520E-006  0.8499777E+02  0.7818608E-02  0.1432604E+00
          2   -1    0    0  502    0  0.00000000000E+00  0.00000000000E+00  0.27720992923E+04  0.27720992923E+04  0.00000000000E+00 0. -1.
          1   -1    0    0  501    0 -0.00000000000E+00 -0.00000000000E+00 -0.13780151819E+03  0.13780151819E+03  0.00000000000E+00 0. -1.
         25    2    1    2    0    0  0.45633757135E+02  0.34918660722E+02  0.79997902508E+03  0.81172216004E+03  0.12499868746E+03 0.  0.
          2    1    1    2  501    0  0.25994278828E+02  0.19263900564E+02 -0.12890412226E+03  0.13290249483E+03  0.00000000000E+00 0. -1.
          1    1    1    2  502    0 -0.71628035963E+02 -0.54182561286E+02  0.19632228713E+04  0.19652761556E+04  0.00000000000E+00 0. -1.
         22    1    3    3    0    0  0.72073720822E+02 -0.69557861848E+01  0.27362552667E+03  0.28304404788E+03  0.00000000000E+00 0.  1.
         22    1    3    3    0    0 -0.26439963686E+02  0.41874446907E+02  0.52635349841E+03  0.52867811216E+03  0.00000000000E+00 0.  1.
</event>
<event>
 7    1  0.5593520E-006  0.2376688E+03  0.7818608E-02  0.1255888E+00
          2   -1    0    0  502    0  0.00000000000E+00  0.00000000000E+00  0.23578495617E+04  0.23578495617E+04  0.00000000000E+00 0. -1.
          1   -1    0    0  501    0 -0.00000000000E+00 -0.00000000000E+00 -0.52679714283E+03  0.52679714283E+03  0.00000000000E+00 0. -1.
         25    2    1    2    0    0  0.14644331330E+03  0.13378415888E+03  0.25407890183E+03  0.34572441098E+03  0.12500173923E+03 0.  0.
          2    1    1    2  501    0  0.11930422945E+02  0.51963273419E+02 -0.47223071775E+03  0.47523085712E+03  0.00000000000E+00 0. -1.
          1    1    1    2  502    0 -0.15837373625E+03 -0.18574743230E+03  0.20492042348E+04  0.20636914365E+04  0.00000000000E+00 0. -1.
         22    1    3    3    0    0  0.86410477718E+02  0.14331864839E+03  0.14772596074E+03  0.22322626439E+03  0.00000000000E+00 0. -1.
         22    1    3    3    0    0  0.60032835587E+02 -0.95344895109E+01  0.10635294109E+03  0.12249814659E+03  0.00000000000E+00 0. -1.
</event>
<event>
 7    1  0.5593520E-006  0.4816841E+02  0.7818608E-02  0.1469451E+00
          2   -1    0    0  502    0  0.00000000000E+00  0.00000000000E+00  0.11026562819E+04  0.11026562819E+04  0.00000000000E+00 0. -1.
          1   -1    0    0  501    0 -0.00000000000E+00 -0.00000000000E+00 -0.31127531997E+03  0.31127531997E+03  0.00000000000E+00 0. -1.
         25    2    1    2    0    0 -0.64898447245E+02  0.62028334870E+02 -0.34507297420E+02  0.15771697233E+03  0.12499826800E+03 0.  0.
          2    1    1    2  501    0  0.35780425808E+02 -0.29664418190E+02 -0.21219163800E+03  0.21722225442E+03  0.00000000000E+00 0. -1.
          1    1    1    2  502    0  0.29118021437E+02 -0.32363916680E+02  0.10380798973E+04  0.10389923751E+04  0.00000000000E+00 0. -1.
         22    1    3    3    0    0 -0.92900321181E+02  0.69509096590E+02 -0.46700174930E+01  0.11611973668E+03  0.00000000000E+00 0. -1.
         22    1    3    3    0    0  0.28001873936E+02 -0.74807617203E+01 -0.29837279927E+02  0.41597235645E+02  0.00000000000E+00 0. -1.
</event>
<event>
 7    1  0.5593520E-006  0.1079606E+03  0.7818608E-02  0.1321009E+00
          2   -1    0    0  502    0  0.00000000000E+00  0.00000000000E+00  0.14447585819E+04  0.14447585819E+04  0.00000000000E+00 0. -1.
          1   -1    0    0  501    0 -0.00000000000E+00 -0.00000000000E+00 -0.10889641170E+04  0.10889641170E+04  0.00000000000E+00 0. -1.
         25    2    1    2    0    0 -0.55580439285E+02 -0.14845628631E+03  0.80462607824E+03  0.82956393989E+03  0.12499900166E+03 0.  0.
          2    1    1    2  501    0  0.65572211736E+02  0.85583614923E+02 -0.10721703233E+04  0.10775775945E+04  0.00000000000E+00 0. -1.
          1    1    1    2  502    0 -0.99917724511E+01  0.62872671390E+02  0.62333870992E+03  0.62658116443E+03  0.00000000000E+00 0. -1.
         22    1    3    3    0    0  0.29944442236E+01 -0.10554200541E+03  0.26802283726E+03  0.28806999653E+03  0.00000000000E+00 0. -1.
         22    1    3    3    0    0 -0.58574883509E+02 -0.42914280902E+02  0.53660324097E+03  0.54149394337E+03  0.00000000000E+00 0. -1.
</event>
<event>
 7    1  0.5593520E-006  0.8782255E+02  0.7818608E-02  0.1436705E+00
          2   -1    0    0  502    0  0.00000000000E+00  0.00000000000E+00  0.11126604481E+03  0.11126604481E+03  0.00000000000E+00 0. -1.
          1   -1    0    0  501    0 -0.00000000000E+00 -0.00000000000E+00 -0.15810753774E+04  0.15810753774E+04  0.00000000000E+00 0. -1.
         25    2    1    2    0    0 -0.68847765420E+02  0.31317928979E+02 -0.78189068663E+02  0.16570696167E+03  0.12499775681E+03 0.  0.
          2    1    1    2  501    0  0.87983925275E+02 -0.77463323379E+01 -0.14543046599E+04  0.14569842898E+04  0.00000000000E+00 0. -1.
          1    1    1    2  502    0 -0.19136159855E+02 -0.23571596641E+02  0.62684396011E+02  0.69650170750E+02  0.00000000000E+00 0. -1.
         22    1    3    3    0    0 -0.50412158240E+02  0.22995188584E+02 -0.11276856948E+03  0.12564598943E+03  0.00000000000E+00 0.  1.
         22    1    3    3    0    0 -0.18435607180E+02  0.83227403954E+01  0.34579500820E+02  0.40060972239E+02  0.00000000000E+00 0.  1.
</event>
<event>
 7    1  0.5593520E-006  0.6710646E+02  0.7818608E-02  0.1376832E+00
          2   -1    0    0  502    0  0.00000000000E+00  0.00000000000E+00  0.26516535555E+04  0.26516535555E+04  0.00000000000E+00 0. -1.
          1   -1    0    0  501    0 -0.00000000000E+00 -0.00000000000E+00 -0.13478327759E+03  0.13478327759E+03  0.00000000000E+00 0. -1.
         25    2    1    2    0    0  0.56989256182E+02  0.44055630366E+01  0.12751637783E+04  0.12825501134E+04  0.12499979116E+03 0.  0.
          2    1    1    2  501    0 -0.27691529614E+02  0.61126557879E+02 -0.12149533280E+03  0.13879622755E+03  0.00000000000E+00 0. -1.
          1    1    1    2  502    0 -0.29297726568E+02 -0.65532120916E+02  0.13632018324E+04  0.13650904921E+04  0.00000000000E+00 0. -1.
         22    1    3    3    0    0  0.62410955996E+02 -0.24507598344E+02  0.11994465407E+04  0.12013191723E+04  0.00000000000E+00 0. -1.
         22    1    3    3    0    0 -0.54216998136E+01  0.28913161380E+02  0.75717237537E+02  0.81230941089E+02  0.00000000000E+00 0. -1.
</event>
<event>
 7    1  0.5593520E-006  0.1087374E+03  0.7818608E-02  0.1376367E+00
          2   -1    0    0  502    0  0.00000000000E+00  0.00000000000E+00  0.98808623226E+03  0.98808623226E+03  0.00000000000E+00 0. -1.
          1   -1    0    0  501    0 -0.00000000000E+00 -0.00000000000E+00 -0.14910079093E+04  0.14910079093E+04  0.00000000000E+00 0. -1.
         25    2    1    2    0    0  0.24607091318E+02  0.77046265434E+02 -0.37014225044E+03  0.39896763293E+03  0.12501300174E+03 0.  0.
          2    1    1    2  501    0 -0.56720772814E+02 -0.99819900897E+02 -0.11030744436E+04  0.11090331315E+04  0.00000000000E+00 0. -1.
          1    1    1    2  502    0  0.32113681496E+02  0.22773635464E+02  0.97029501701E+03  0.97109337710E+03  0.00000000000E+00 0. -1.
         22    1    3    3    0    0 -0.33357858441E+02  0.16513433934E+01 -0.27170315749E+02  0.43054613141E+02  0.00000000000E+00 0. -1.
         22    1    3    3    0    0  0.57964949759E+02  0.75394922040E+02 -0.34297193469E+03  0.35591301979E+03  0.00000000000E+00 0. -1.
</event>
<event>
 7    1  0.5593520E-006  0.1712110E+03  0.7818608E-02  0.1311346E+00
          2   -1    0    0  502    0  0.00000000000E+00  0.00000000000E+00  0.33711584236E+03  0.33711584236E+03  0.00000000000E+00 0. -1.
          1   -1    0    0  501    0 -0.00000000000E+00 -0.00000000000E+00 -0.56959480162E+03  0.56959480162E+03  0.00000000000E+00 0. -1.
         25    2    1    2    0    0  0.12485024967E+03  0.11731501920E+03 -0.19385994484E+03  0.28732801352E+03  0.12500124227E+03 0.  0.
          2    1    1    2  501    0 -0.33546046244E+02  0.28138482946E+02 -0.30189091908E+03  0.30504956723E+03  0.00000000000E+00 0. -1.
          1    1    1    2  502    0 -0.91304203422E+02 -0.14545350215E+03  0.26327190466E+03  0.31433306322E+03  0.00000000000E+00 0. -1.
         22    1    3    3    0    0  0.72347154040E+02  0.47886464612E+02 -0.14501522378E+02  0.87963164688E+02  0.00000000000E+00 0. -1.
         22    1    3    3    0    0  0.52503095626E+02  0.69428554593E+02 -0.17935842246E+03  0.19936484884E+03  0.00000000000E+00 0. -1.
</event>
<event>
 7    1  0.5593520E-006  0.4091351E+02  0.7818608E-02  0.1506025E+00
          2   -1    0    0  502    0  0.00000000000E+00  0.00000000000E+00  0.86034612430E+03  0.86034612430E+03  0.00000000000E+00 0. -1.
          1   -1    0    0  501    0 -0.00000000000E+00 -0.00000000000E+00 -0.73079846539E+03  0.73079846539E+03  0.00000000000E+00 0. -1.
         25    2    1    2    0    0  0.18063527616E+01  0.40547084559E+00  0.72352049733E+02  0.14444184867E+03  0.12500080492E+03 0.  0.
          2    1    1    2  501    0  0.37674029922E+02  0.12498563623E+02 -0.69361213866E+03  0.69474696510E+03  0.00000000000E+00 0. -1.
          1    1    1    2  502    0 -0.39480382684E+02 -0.12904034468E+02  0.75080774783E+03  0.75195577591E+03  0.00000000000E+00 0. -1.
         22    1    3    3    0    0  0.18777271568E+02  0.60081023510E+02  0.37905014917E+02  0.73478605522E+02  0.00000000000E+00 0.  1.
         22    1    3    3    0    0 -0.16970918806E+02 -0.59675552665E+02  0.34447034815E+02  0.70963243151E+02  0.00000000000E+00 0.  1.
</event>
<event>
 7    1  0.1188771E-005  0.1191474E+03  0.7818608E-02  0.1316455E+00
          2   -1    0    0  502    0  0.00000000000E+00  0.00000000000E+00  0.23735691803E+04  0.23735691803E+04  0.00000000000E+00 0. -1.
          1   -1    0    0  501    0 -0.00000000000E+00 -0.00000000000E+00 -0.13880402059E+04  0.13880402059E+04  0.00000000000E+00 0. -1.
         25    2    1    2    0    0 -0.27885786627E+02 -0.54586986133E+02 -0.11155154494E+03  0.17839801419E+03  0.12499899255E+03 0.  0.
          2    1    1    2  501    0 -0.87253714568E+01 -0.59447509430E+02 -0.12408055890E+04  0.12422594931E+04  0.00000000000E+00 0. -1.
          1    1    1    2  502    0  0.36611158083E+02  0.11403449556E+03  0.23378861084E+04  0.23409518789E+04  0.00000000000E+00 0. -1.
         22    1    3    3    0    0 -0.13237304768E+02 -0.89537605545E+02 -0.43307997799E+02  0.10033838606E+03  0.00000000000E+00 0. -1.
         22    1    3    3    0    0 -0.14648481859E+02  0.34950619412E+02 -0.68243547138E+02  0.78059628131E+02  0.00000000000E+00 0. -1.
</event>
<event>
 7    1  0.5593520E-006  0.7471894E+02  0.7818608E-02  0.1431521E+00
          2   -1    0    0  502    0  0.00000000000E+00  0.00000000000E+00  0.26327607571E+04  0.26327607571E+04  0.00000000000E+00 0. -1.
          1   -1    0    0  501    0 -0.00000000000E+00 -0.00000000000E+00 -0.49944044444E+02  0.49944044444E+02  0.00000000000E+00 0. -1.
         25    2    1    2    0    0 -0.22070270883E+02 -0.35588154948E+02  0.66808199673E+03  0.68096327826E+03  0.12499527333E+03 0.  0.
          2    1    1    2  501    0  0.23665783834E+02  0.72661348185E+02 -0.96268788359E+01  0.77022189274E+02  0.00000000000E+00 0. -1.
          1    1    1    2  502    0 -0.15955129511E+01 -0.37073193236E+02  0.19243615948E+04  0.19247193340E+04  0.00000000000E+00 0. -1.
         22    1    3    3    0    0  0.17335900061E+02 -0.34985267995E+02  0.60710239695E+03  0.60835665755E+03  0.00000000000E+00 0. -1.
         22    1    3    3    0    0 -0.39406170943E+02 -0.60288695281E+00  0.60979599785E+02  0.72606620711E+02  0.00000000000E+00 0. -1.
</event>
<event>
 7    1  0.5593520E-006  0.4203409E+02  0.7818608E-02  0.1511882E+00
          2   -1    0    0  502    0  0.00000000000E+00  0.00000000000E+00  0.68848537724E+02  0.68848537724E+02  0.00000000000E+00 0. -1.
          1   -1    0    0  501    0 -0.00000000000E+00 -0.00000000000E+00 -0.50252079078E+03  0.50252079078E+03  0.00000000000E+00 0. -1.
         25    2    1    2    0    0 -0.50844986649E+01  0.30004045218E+01 -0.22939218314E+02  0.12722934946E+03  0.12500498020E+03 0.  0.
          2    1    1    2  501    0  0.30369993613E+02 -0.30188798110E+02 -0.40417391596E+03  0.40643603972E+03  0.00000000000E+00 0. -1.
          1    1    1    2  502    0 -0.25285494948E+02  0.27188393588E+02 -0.65591187799E+01  0.37703939315E+02  0.00000000000E+00 0. -1.
         22    1    3    3    0    0  0.56216567342E+02  0.66081764613E+01 -0.32209824547E+02  0.65126363611E+02  0.00000000000E+00 0. -1.
         22    1    3    3    0    0 -0.61301066007E+02 -0.36077719395E+01  0.92706062330E+01  0.62102985853E+02  0.00000000000E+00 0. -1.
</event>
<event>
 7    1  0.5593520E-006  0.7852371E+02  0.7818608E-02  0.1346495E+00
          2   -1    0    0  502    0  0.00000000000E+00  0.00000000000E+00  0.21569277617E+04  0.21569277617E+04  0.00000000000E+00 0. -1.
          1   -1    0    0  501    0 -0.00000000000E+00 -0.00000000000E+00 -0.11451312383E+04  0.11451312383E+04  0.00000000000E+00 0. -1.
         25    2    1    2    0    0 -0.22179266549E+01 -0.14845594399E+03  0.13689690761E+04  0.13826585500E+04  0.12499699206E+03 0.  0.
          2    1    1    2  501    0  0.23731611761E+01  0.78419000480E+02 -0.11353601187E+04  0.11380675598E+04  0.00000000000E+00 0. -1.
          1    1    1    2  502    0 -0.15523452124E+00  0.70036943505E+02  0.77818756601E+03  0.78133289029E+03  0.00000000000E+00 0. -1.
         22    1    3    3    0    0 -0.15145833213E+02 -0.16729842883E+03  0.12714016684E+04  0.12824509203E+04  0.00000000000E+00 0. -1.
         22    1    3    3    0    0  0.12927906558E+02  0.18842484840E+02  0.97567407653E+02  0.10020762965E+03  0.00000000000E+00 0. -1.
</event>
<event>
 7    1  0.5593520E-006  0.1738309E+03  0.7818608E-02  0.1399772E+00
          2   -1    0    0  502    0  0.00000000000E+00  0.00000000000E+00  0.68704968983E+03  0.68704968983E+03  0.00000000000E+00 0. -1.
          1   -1    0    0  501    0 -0.00000000000E+00 -0.00000000000E+00 -0.11701850009E+04  0.11701850009E+04  0.00000000000E+00 0. -1.
         25    2    1    2    0    0  0.14755541355E+03  0.47523745254E+02  0.56333472493E+03  0.59749621709E+03  0.12499844280E+03 0.  0.
          2    1    1    2  501    0 -0.16788416982E+03 -0.45899900254E+02 -0.11454917586E+04  0.11586385391E+04  0.00000000000E+00 0. -1.
          1    1    1    2  502    0  0.20328756269E+02 -0.16238449995E+01  0.99021722623E+02  0.10109993450E+03  0.00000000000E+00 0. -1.
         22    1    3    3    0    0  0.41283824347E+02  0.39692299151E+02  0.59762878450E+02  0.82773391891E+02  0.00000000000E+00 0.  1.
         22    1    3    3    0    0  0.10627158920E+03  0.78314461027E+01  0.50357184648E+03  0.51472282520E+03  0.00000000000E+00 0.  1.
</event>
<event>
 7    1  0.5593520E-006  0.1258309E+03  0.7818608E-02  0.1251720E+00
          2   -1    0    0  502    0  0.00000000000E+00  0.00000000000E+00  0.23435472307E+03  0.23435472307E+03  0.00000000000E+00 0. -1.
          1   -1    0    0  501    0 -0.00000000000E+00 -0.00000000000E+00 -0.46559846444E+03  0.46559846444E+03  0.00000000000E+00 0. -1.
         25    2    1    2    0    0 -0.79893181009E+02 -0.58866374753E+02 -0.32617588925E+03  0.36313079911E+03  0.12500038434E+03 0.  0.
          2    1    1    2  501    0  0.18182978006E+02  0.16852615283E+03 -0.14418166309E+02  0.17011633783E+03  0.00000000000E+00 0. -1.
          1    1    1    2  502    0  0.61710203003E+02 -0.10965977808E+03  0.10935031419E+03  0.16670605057E+03  0.00000000000E+00 0. -1.
         22    1    3    3    0    0 -0.52323588374E+02 -0.52780883274E+02 -0.60152223649E+02  0.95613124357E+02  0.00000000000E+00 0. -1.
         22    1    3    3    0    0 -0.27569592636E+02 -0.60854914795E+01 -0.26602366560E+03  0.26751767475E+03  0.00000000000E+00 0. -1.
</event>
<event>
 7    1  0.5593520E-006  0.1964611E+03  0.7818608E-02  0.1245917E+00
          2   -1    0    0  502    0  0.00000000000E+00  0.00000000000E+00  0.76807670429E+03  0.76807670429E+03  0.00000000000E+00 0. -1.
          1   -1    0    0  501    0 -0.00000000000E+00 -0.00000000000E+00 -0.91306516705E+03  0.91306516705E+03  0.00000000000E+00 0. -1.
         25    2    1    2    0    0  0.14816509603E+03 -0.74496638844E+02 -0.27993280809E+03  0.34855415790E+03  0.12499991626E+03 0.  0.
          2    1    1    2  501    0  0.48738423958E+02  0.51963054620E+02 -0.58323186775E+03  0.58756702134E+03  0.00000000000E+00 0. -1.
          1    1    1    2  502    0 -0.19690351999E+03  0.22533584225E+02  0.71817621308E+03  0.74502069209E+03  0.00000000000E+00 0. -1.
         22    1    3    3    0    0 -0.19764674604E+01 -0.42952217298E+02 -0.11750847838E+03  0.12512810190E+03  0.00000000000E+00 0. -1.
         22    1    3    3    0    0  0.15014156349E+03 -0.31544421546E+02 -0.16242432971E+03  0.22342605600E+03  0.00000000000E+00 0. -1.
</event>
<event>
 7    1  0.5593520E-006  0.1804334E+03  0.7818608E-02  0.1321571E+00
          2   -1    0    0  502    0  0.00000000000E+00  0.00000000000E+00  0.20553773828E+03  0.20553773828E+03  0.00000000000E+00 0. -1.
          1   -1    0    0  501    0 -0.00000000000E+00 -0.00000000000E+00 -0.59616385096E+03  0.59616385096E+03  0.00000000000E+00 0. -1.
         25    2    1    2    0    0 -0.10102077934E+03  0.13958129423E+03  0.10260310886E+02  0.21311564318E+03  0.12499947131E+03 0.  0.
          2    1    1    2  501    0  0.13483837501E+03 -0.12246850628E+03 -0.47314146883E+03  0.50699385788E+03  0.00000000000E+00 0. -1.
          1    1    1    2  502    0 -0.33817595663E+02 -0.17112787948E+02  0.72255045265E+02  0.81592088183E+02  0.00000000000E+00 0. -1.
         22    1    3    3    0    0 -0.11676551044E+03  0.11259258837E+03  0.43049639751E+02  0.16782296288E+03  0.00000000000E+00 0. -1.
         22    1    3    3    0    0  0.15744731102E+02  0.26988705856E+02 -0.32789328865E+02  0.45292680299E+02  0.00000000000E+00 0. -1.
</event>
<event>
 7    1  0.5593520E-006  0.2937244E+02  0.7818608E-02  0.1608121E+00
          2   -1    0    0  502    0  0.00000000000E+00  0.00000000000E+00  0.80240204053E+03  0.80240204053E+03  0.00000000000E+00 0. -1.
          1   -1    0    0  501    0 -0.00000000000E+00 -0.00000000000E+00 -0.72755842285E+02  0.72755842285E+02  0.00000000000E+00 0. -1.
         25    2    1    2    0    0 -0.46624330508E+02 -0.33201639496E+02  0.27202596794E+03  0.30479555398E+03  0.12500410167E+03 0.  0.
          2    1    1    2  501    0  0.20905508676E+02  0.20123176804E+02 -0.52201816824E+02  0.59724469168E+02  0.00000000000E+00 0. -1.
          1    1    1    2  502    0  0.25718821832E+02  0.13078462692E+02  0.50982204713E+03  0.51063785966E+03  0.00000000000E+00 0. -1.
         22    1    3    3    0    0  0.40488663890E+02 -0.24051540962E+02  0.12600330528E+03  0.13451632417E+03  0.00000000000E+00 0. -1.
         22    1    3    3    0    0 -0.87112994398E+02 -0.91500985342E+01  0.14602266266E+03  0.17027922981E+03  0.00000000000E+00 0. -1.
</event>
<event>
 7    1  0.5593520E-006  0.8729237E+02  0.7818608E-02  0.1342657E+00
          2   -1    0    0  502    0  0.00000000000E+00  0.00000000000E+00  0.57756552815E+03  0.57756552815E+03  0.00000000000E+00 0. -1.
          1   -1    0    0  501    0 -0.00000000000E+00 -0.00000000000E+00 -0.16757211761E+04  0.16757211761E+04  0.00000000000E+00 0. -1.
         25    2    1    2    0    0 -0.11611539541E+03  0.75399693872E+02 -0.67769547173E+03  0.70289634687E+03  0.12499689256E+03 0.  0.
          2    1    1    2  501    0  0.52404204569E+02 -0.61945382892E+02 -0.98187001507E+03  0.98521680742E+03  0.00000000000E+00 0. -1.
          1    1    1    2  502    0  0.63711190838E+02 -0.13454310980E+02  0.56140983889E+03  0.56517354992E+03  0.00000000000E+00 0. -1.
         22    1    3    3    0    0 -0.21287039922E+02  0.75981821230E+00 -0.85446798028E+01  0.22950532571E+02  0.00000000000E+00 0.  1.
         22    1    3    3    0    0 -0.94828355485E+02  0.74639875659E+02 -0.66915079193E+03  0.67994581430E+03  0.00000000000E+00 0.  1.
</event>
<event>
 7    1  0.5593520E-006  0.8782094E+02  0.7818608E-02  0.1325844E+00
          2   -1    0    0  502    0  0.00000000000E+00  0.00000000000E+00  0.57757303951E+03  0.57757303951E+03  0.00000000000E+00 0. -1.
          1   -1    0    0  501    0 -0.00000000000E+00 -0.00000000000E+00 -0.17448492711E+03  0.17448492711E+03  0.00000000000E+00 0. -1.
         25    2    1    2    0    0 -0.59573936177E+02  0.12411034577E+02  0.12053473236E+03  0.18400403809E+03  0.12500310667E+03 0.  0.
          2    1    1    2  501    0  0.69324127781E+02  0.61921764277E+02 -0.12381754818E+03  0.15482546567E+03  0.00000000000E+00 0. -1.
          1    1    1    2  502    0 -0.97501916036E+01 -0.74332798853E+02  0.40637092821E+03  0.41322846286E+03  0.00000000000E+00 0. -1.
         22    1    3    3    0    0 -0.33157323788E+02 -0.29729467379E+02 -0.88364229160E+01  0.45401891165E+02  0.00000000000E+00 0. -1.
         22    1    3    3    0    0 -0.26416612389E+02  0.42140501955E+02  0.12937115528E+03  0.13860214693E+03  0.00000000000E+00 0. -1.
</event>
<event>
 7    1  0.5593520E-006  0.4575381E+02  0.7818608E-02  0.1559131E+00
          2   -1    0    0  502    0  0.00000000000E+00  0.00000000000E+00  0.68930595842E+03  0.68930595842E+03  0.00000000000E+00 0. -1.
          1   -1    0    0  501    0 -0.00000000000E+00 -0.00000000000E+00 -0.18288612202E+03  0.18288612202E+03  0.00000000000E+00 0. -1.
         25    2    1    2    0    0 -0.25163215895E+01 -0.23393583785E+02 -0.63660591951E+02  0.14223778254E+03  0.12500129671E+03 0.  0.
          2    1    1    2  501    0  0.13149790677E+02 -0.21299081860E+02 -0.77143010206E+02  0.81102477807E+02  0.00000000000E+00 0. -1.
          1    1    1    2  502    0 -0.10633469087E+02  0.44692665645E+02  0.64722343856E+03  0.64885182010E+03  0.00000000000E+00 0. -1.
         22    1    3    3    0    0 -0.10442435590E+02 -0.58404164908E+02  0.10120854616E+02  0.60187396004E+02  0.00000000000E+00 0.  1.
         22    1    3    3    0    0  0.79261140002E+01  0.35010581123E+02 -0.73781446567E+02  0.82050386539E+02  0.00000000000E+00 0.  1.
</event>
<event>
 7    1  0.5593520E-006  0.1440755E+03  0.7818608E-02  0.1284351E+00
          2   -1    0    0  502    0  0.00000000000E+00  0.00000000000E+00  0.98204654285E+03  0.98204654285E+03  0.00000000000E+00 0. -1.
          1   -1    0    0  501    0 -0.00000000000E+00 -0.00000000000E+00 -0.17210627437E+04  0.17210627437E+04  0.00000000000E+00 0. -1.
         25    2    1    2    0    0 -0.18828259661E+03 -0.89901830365E+02  0.61694769553E+02  0.25092529028E+03  0.12499832568E+03 0.  0.
          2    1    1    2  501    0  0.12461928057E+03  0.69703147547E+02 -0.16219552054E+04  0.16282282340E+04  0.00000000000E+00 0. -1.
          1    1    1    2  502    0  0.63663316036E+02  0.20198682818E+02  0.82124423499E+03  0.82395576222E+03  0.00000000000E+00 0. -1.
         22    1    3    3    0    0 -0.18722767273E+03 -0.10734436916E+03  0.34437151647E+02  0.21854732311E+03  0.00000000000E+00 0.  1.
         22    1    3    3    0    0 -0.10549238819E+01  0.17442538798E+02  0.27257617906E+02  0.32377967169E+02  0.00000000000E+00 0.  1.
</event>
<event>
 7    1  0.5593520E-006  0.4078947E+02  0.7818608E-02  0.1519254E+00
          2   -1    0    0  502    0  0.00000000000E+00  0.00000000000E+00  0.20090262528E+03  0.20090262528E+03  0.00000000000E+00 0. -1.
          1   -1    0    0  501    0 -0.00000000000E+00 -0.00000000000E+00 -0.25304513916E+03  0.25304513916E+03  0.00000000000E+00 0. -1.
         25    2    1    2    0    0  0.55759092681E+02  0.11736194408E+02 -0.32754451234E+02  0.14122783242E+03  0.12500252757E+03 0.  0.
          2    1    1    2  501    0 -0.19730775197E+02 -0.30601508463E+02 -0.16116424483E+03  0.16522611665E+03  0.00000000000E+00 0. -1.
          1    1    1    2  502    0 -0.36028317484E+02  0.18865314054E+02  0.14177618219E+03  0.14749381536E+03  0.00000000000E+00 0. -1.
         22    1    3    3    0    0  0.66224039035E+02 -0.44681898968E+02 -0.16289628609E+02  0.81531879911E+02  0.00000000000E+00 0. -1.
         22    1    3    3    0    0 -0.10464946355E+02  0.56418093376E+02 -0.16464822625E+02  0.59695952514E+02  0.00000000000E+00 0. -1.
</event>
<event>
 7    1  0.5593520E-006  0.8316998E+02  0.7818608E-02  0.1322331E+00
          2   -1    0    0  502    0  0.00000000000E+00  0.00000000000E+00  0.35781640550E+03  0.35781640550E+03  0.00000000000E+00 0. -1.
          1   -1    0    0  501    0 -0.00000000000E+00 -0.00000000000E+00 -0.79830441499E+03  0.79830441499E+03  0.00000000000E+00 0. -1.
         25    2    1    2    0    0  0.42793708594E+02  0.27371664741E+02 -0.16966193708E+03  0.21677279775E+03  0.12499905370E+03 0.  0.
          2    1    1    2  501    0 -0.79774335901E+02  0.45445144515E+02 -0.59653366887E+03  0.60355747358E+03  0.00000000000E+00 0. -1.
          1    1    1    2  502    0  0.36980627307E+02 -0.72816809255E+02  0.32570759646E+03  0.33579054915E+03  0.00000000000E+00 0. -1.
         22    1    3    3    0    0  0.61251627154E+02  0.63117805884E+02 -0.14498613667E+03  0.16957770807E+03  0.00000000000E+00 0. -1.
         22    1    3    3    0    0 -0.18457918560E+02 -0.35746141143E+02 -0.24675800415E+02  0.47195089684E+02  0.00000000000E+00 0. -1.
</event>
<event>
 7    1  0.5593520E-006  0.2435259E+03  0.7818608E-02  0.1262128E+00
          2   -1    0    0  502    0  0.00000000000E+00  0.00000000000E+00  0.46424003102E+03  0.46424003102E+03  0.00000000000E+00 0. -1.
          1   -1    0    0  501    0 -0.00000000000E+00 -0.00000000000E+00 -0.25398607759E+04  0.25398607759E+04  0.00000000000E+00 0. -1.
         25    2    1    2    0    0 -0.18201892857E+02 -0.28514264447E+03 -0.62817105603E+03  0.70132768492E+03  0.12499603754E+03 0.  0.
          2    1    1    2  501    0  0.21886670484E+02  0.43765940597E+02 -0.18406935115E+04  0.18413438264E+04  0.00000000000E+00 0. -1.
          1    1    1    2  502    0 -0.36847776273E+01  0.24137670387E+03  0.39324382264E+03  0.46142929556E+03  0.00000000000E+00 0. -1.
         22    1    3    3    0    0  0.42217202716E+02 -0.12052202475E+03 -0.18566839112E+03  0.22534551719E+03  0.00000000000E+00 0.  1.
         22    1    3    3    0    0 -0.60419095572E+02 -0.16462061971E+03 -0.44250266491E+03  0.47598216773E+03  0.00000000000E+00 0.  1.
</event>
<event>
 7    1  0.5593520E-006  0.3709606E+02  0.7818608E-02  0.1536879E+00
          2   -1    0    0  502    0  0.00000000000E+00  0.00000000000E+00  0.14167061548E+02  0.14167061548E+02  0.00000000000E+00 0. -1.
          1   -1    0    0  501    0 -0.00000000000E+00 -0.00000000000E+00 -0.95245734812E+03  0.95245734812E+03  0.00000000000E+00 0. -1.
         25    2    1    2    0    0 -0.47585438246E+01  0.14248965153E+02 -0.43779102917E+03  0.45554221066E+03  0.12502817172E+03 0.  0.
          2    1    1    2  501    0 -0.35580521322E+02  0.18873740114E+01 -0.40012724768E+03  0.40171053013E+03  0.00000000000E+00 0. -1.
          1    1    1    2  502    0  0.40339065146E+02 -0.16136339164E+02 -0.10037200972E+03  0.10937166888E+03  0.00000000000E+00 0. -1.
         22    1    3    3    0    0 -0.39839017817E+02  0.51178007628E+02 -0.15216550891E+03  0.16541063420E+03  0.00000000000E+00 0. -1.
         22    1    3    3    0    0  0.35080473992E+02 -0.36929042476E+02 -0.28562552025E+03  0.29013157645E+03  0.00000000000E+00 0. -1.
</event>
<event>
 7    1  0.5593520E-006  0.1279145E+03  0.7818608E-02  0.1438384E+00
          2   -1    0    0  502    0  0.00000000000E+00  0.00000000000E+00  0.14336445991E+04  0.14336445991E+04  0.00000000000E+00 0. -1.
          1   -1    0    0  501    0 -0.00000000000E+00 -0.00000000000E+00 -0.71597716631E+03  0.71597716631E+03  0.00000000000E+00 0. -1.
         25    2    1    2    0    0 -0.10669865830E+03  0.44226770749E+02  0.46049350912E+03  0.49093820173E+03  0.12500174014E+03 0.  0.
          2    1    1    2  501    0 -0.92135579850E+01  0.18407321517E+02 -0.69607168966E+03  0.69637598773E+03  0.00000000000E+00 0. -1.
          1    1    1    2  502    0  0.11591221629E+03 -0.62634092266E+02  0.95324561330E+03  0.96230757592E+03  0.00000000000E+00 0. -1.
         22    1    3    3    0    0 -0.13037801132E+03  0.56197840237E+02  0.35954135664E+03  0.38655738283E+03  0.00000000000E+00 0.  1.
         22    1    3    3    0    0  0.23679353017E+02 -0.11971069489E+02  0.10095215248E+03  0.10438081890E+03  0.00000000000E+00 0.  1.
</event>
<event>
 7    1  0.5998986E-006  0.2058538E+03  0.7818608E-02  0.1237640E+00
          2   -1    0    0  502    0  0.00000000000E+00  0.00000000000E+00  0.15987641108E+04  0.15987641108E+04  0.00000000000E+00 0. -1.
          1   -1    0    0  501    0 -0.00000000000E+00 -0.00000000000E+00 -0.22575770052E+04  0.22575770052E+04  0.00000000000E+00 0. -1.
         25    2    1    2    0    0 -0.17038735920E+03  0.20166056233E+02 -0.35213392688E+03  0.41117113470E+03  0.12499951021E+03 0.  0.
          2    1    1    2  501    0 -0.30834263531E+02 -0.67199528801E+02 -0.18683871422E+04  0.18698494704E+04  0.00000000000E+00 0. -1.
          1    1    1    2  502    0  0.20122162273E+03  0.47033472568E+02  0.15617081748E+04  0.15753205109E+04  0.00000000000E+00 0. -1.
         22    1    3    3    0    0 -0.12779565492E+02  0.44893179644E+02 -0.43799470936E+02  0.64008659781E+02  0.00000000000E+00 0. -1.
         22    1    3    3    0    0 -0.15760779371E+03 -0.24727123411E+02 -0.30833445594E+03  0.34716247492E+03  0.00000000000E+00 0. -1.
</event>
<event>
 7    1  0.6046354E-006  0.8867969E+02  0.7818608E-02  0.1309098E+00
          2   -1    0    0  502    0  0.00000000000E+00  0.00000000000E+00  0.63866330876E+03  0.63866330876E+03  0.00000000000E+00 0. -1.
          1   -1    0    0  501    0 -0.00000000000E+00 -0.00000000000E+00 -0.73119253903E+03  0.73119253903E+03  0.00000000000E+00 0. -1.
         25    2    1    2    0    0 -0.35917394984E+02 -0.18247883313E+01 -0.24003336575E+03  0.27302461121E+03  0.12503212602E+03 0.  0.
          2    1    1    2  501    0  0.79514217727E+02 -0.75398291327E+02 -0.46510392823E+03  0.47783791940E+03  0.00000000000E+00 0. -1.
          1    1    1    2  502    0 -0.43596822743E+02  0.77223079659E+02  0.61260806372E+03  0.61899331718E+03  0.00000000000E+00 0. -1.
         22    1    3    3    0    0 -0.78036590044E+02 -0.12153006645E+02 -0.10624782357E+03  0.13238581861E+03  0.00000000000E+00 0. -1.
         22    1    3    3    0    0  0.42119195060E+02  0.10328218314E+02 -0.13378554219E+03  0.14063879260E+03  0.00000000000E+00 0. -1.
</event>
<event>
 7    1  0.5593520E-006  0.8728681E+02  0.7818608E-02  0.1326442E+00
          2   -1    0    0  502    0  0.00000000000E+00  0.00000000000E+00  0.10716195712E+04  0.10716195712E+04  0.00000000000E+00 0. -1.
          1   -1    0    0  501    0 -0.00000000000E+00 -0.00000000000E+00 -0.83211653166E+03  0.83211653166E+03  0.00000000000E+00 0. -1.
         25    2    1    2    0    0  0.63737814873E+02 -0.13072666541E+03  0.15496057998E+03  0.24655553862E+03  0.12499952872E+03 0.  0.
          2    1    1    2  501    0 -0.29912986179E+01  0.86688405123E+02 -0.78230147354E+03  0.78709556152E+03  0.00000000000E+00 0. -1.
          1    1    1    2  502    0 -0.60746516255E+02  0.44038260288E+02  0.86684393311E+03  0.87008500273E+03  0.00000000000E+00 0. -1.
         22    1    3    3    0    0 -0.25735227235E+02 -0.82371236784E+02  0.95627377019E+02  0.12880961845E+03  0.00000000000E+00 0. -1.
         22    1    3    3    0    0  0.89473042108E+02 -0.48355428627E+02  0.59333202964E+02  0.11774592017E+03  0.00000000000E+00 0. -1.
</event>
<event>
 7    1  0.5593520E-006  0.1044049E+03  0.7818608E-02  0.1419396E+00
          2   -1    0    0  502    0  0.00000000000E+00  0.00000000000E+00  0.55461322650E+03  0.55461322650E+03  0.00000000000E+00 0. -1.
          1   -1    0    0  501    0 -0.00000000000E+00 -0.00000000000E+00 -0.16887519515E+03  0.16887519515E+03  0.00000000000E+00 0. -1.
         25    2    1    2    0    0 -0.86298914534E+02  0.40250686489E+02  0.25514973800E+03  0.29965668952E+03  0.12500048944E+03 0.  0.
          2    1    1    2  501    0  0.10387768594E+03 -0.17021636575E+02 -0.12680095612E+03  0.16479924824E+03  0.00000000000E+00 0. -1.
          1    1    1    2  502    0 -0.17578771401E+02 -0.23229049914E+02  0.25738924948E+03  0.25903248389E+03  0.00000000000E+00 0. -1.
         22    1    3    3    0    0 -0.47323393167E+02  0.25672231255E+02  0.25226272939E+03  0.25794389242E+03  0.00000000000E+00 0. -1.
         22    1    3    3    0    0 -0.38975521367E+02  0.14578455235E+02  0.28870086055E+01  0.41712797095E+02  0.00000000000E+00 0. -1.
</event>
<event>
 7    1  0.5593520E-006  0.8302659E+02  0.7818608E-02  0.1476619E+00
          2   -1    0    0  502    0  0.00000000000E+00  0.00000000000E+00  0.49675378158E+03  0.49675378158E+03  0.00000000000E+00 0. -1.
          1   -1    0    0  501    0 -0.00000000000E+00 -0.00000000000E+00 -0.97848717620E+03  0.97848717620E+03  0.00000000000E+00 0. -1.
         25    2    1    2    0    0 -0.78384384350E+02  0.36964767577E+02  0.26916705110E+03  0.30917166998E+03  0.12500285744E+03 0.  0.
          2    1    1    2  501    0  0.62351662157E+02 -0.54821582978E+02 -0.95598597396E+03  0.95958445076E+03  0.00000000000E+00 0. -1.
          1    1    1    2  502    0  0.16032722193E+02  0.17856815401E+02  0.20508552824E+03  0.20648483705E+03  0.00000000000E+00 0. -1.
         22    1    3    3    0    0 -0.40500859883E+02 -0.10094571677E+02  0.98177859531E+01  0.42879003599E+02  0.00000000000E+00 0. -1.
         22    1    3    3    0    0 -0.37883524468E+02  0.47059339255E+02  0.25934926515E+03  0.26629266638E+03  0.00000000000E+00 0. -1.
</event>
<event>
 7    1  0.5593520E-006  0.1689215E+03  0.7818608E-02  0.1273776E+00
          2   -1    0    0  502    0  0.00000000000E+00  0.00000000000E+00  0.32123282547E+03  0.32123282547E+03  0.00000000000E+00 0. -1.
          1   -1    0    0  501    0 -0.00000000000E+00 -0.00000000000E+00 -0.19777059387E+03  0.19777059387E+03  0.00000000000E+00 0. -1.
         25    2    1    2    0    0 -0.83679330163E+01  0.12225260330E+03 -0.44001069465E+02  0.18049214798E+03  0.12500240019E+03 0.  0.
          2    1    1    2  501    0 -0.20586743217E+02  0.59548498125E+02 -0.28926267644E+02  0.69329406351E+02  0.00000000000E+00 0. -1.
          1    1    1    2  502    0  0.28954676233E+02 -0.18180110142E+03  0.19638956871E+03  0.26918186501E+03  0.00000000000E+00 0. -1.
         22    1    3    3    0    0  0.68964457763E+01 -0.18588267853E+02  0.17128230553E+02  0.26200399768E+02  0.00000000000E+00 0.  1.
         22    1    3    3    0    0 -0.15264378793E+02  0.14084087115E+03 -0.61129300019E+02  0.15429174821E+03  0.00000000000E+00 0.  1.
</event>
<event>
 7    1  0.5593520E-006  0.8971556E+02  0.7818608E-02  0.1460706E+00
          2   -1    0    0  502    0  0.00000000000E+00  0.00000000000E+00  0.75874170527E+03  0.75874170527E+03  0.00000000000E+00 0. -1.
          1   -1    0    0  501    0 -0.00000000000E+00 -0.00000000000E+00 -0.74051919257E+03  0.74051919257E+03  0.00000000000E+00 0. -1.
         25    2    1    2    0    0  0.74719489166E+01  0.93113608795E+02  0.12415742308E+03  0.19941705417E+03  0.12500448641E+03 0.  0.
          2    1    1    2  501    0 -0.24375942692E+02 -0.50599267479E+01 -0.69929986824E+03  0.69974287789E+03  0.00000000000E+00 0. -1.
          1    1    1    2  502    0  0.16903993775E+02 -0.88053682048E+02  0.59336495785E+03  0.60010096579E+03  0.00000000000E+00 0. -1.
         22    1    3    3    0    0 -0.18825253455E+02  0.29416852491E+02 -0.19562207092E+02  0.40030255113E+02  0.00000000000E+00 0.  1.
         22    1    3    3    0    0  0.26297202371E+02  0.63696756305E+02  0.14371963017E+03  0.15938679905E+03  0.00000000000E+00 0.  1.
</event>
<event>
 7    1  0.5593520E-006  0.2412252E+03  0.7818608E-02  0.1303591E+00
          2   -1    0    0  502    0  0.00000000000E+00  0.00000000000E+00  0.10215794803E+04  0.10215794803E+04  0.00000000000E+00 0. -1.
          1   -1    0    0  501    0 -0.00000000000E+00 -0.00000000000E+00 -0.49082237906E+03  0.49082237906E+03  0.00000000000E+00 0. -1.
         25    2    1    2    0    0 -0.15026452918E+03  0.21008283449E+03  0.14104674601E+03  0.31973914834E+03  0.12499884935E+03 0.  0.
          2    1    1    2  501    0  0.11696685243E+03 -0.20818734020E+03 -0.36556712767E+03  0.43664921622E+03  0.00000000000E+00 0. -1.
          1    1    1    2  502    0  0.33297676748E+02 -0.18954942888E+01  0.75527748288E+03  0.75601349480E+03  0.00000000000E+00 0. -1.
         22    1    3    3    0    0 -0.54570230208E+02  0.17758128511E+03  0.95520561201E+02  0.20889519012E+03  0.00000000000E+00 0. -1.
         22    1    3    3    0    0 -0.95694298974E+02  0.32501549387E+02  0.45526184810E+02  0.11084395821E+03  0.00000000000E+00 0. -1.
</event>
<event>
 7    1  0.5593520E-006  0.1035405E+03  0.7818608E-02  0.1277433E+00
          2   -1    0    0  502    0  0.00000000000E+00  0.00000000000E+00  0.51080877819E+03  0.51080877819E+03  0.00000000000E+00 0. -1.
          1   -1    0    0  501    0 -0.00000000000E+00 -0.00000000000E+00 -0.15640273483E+04  0.15640273483E+04  0.00000000000E+00 0. -1.
         25    2    1    2    0    0 -0.81703291254E+02  0.60128533525E+02 -0.69079716824E+03  0.70930704048E+03  0.12499952673E+03 0.  0.
          2    1    1    2  501    0 -0.15028702365E+02 -0.98108653143E+02 -0.85569271344E+03  0.86142973570E+03  0.00000000000E+00 0. -1.
          1    1    1    2  502    0  0.96731993619E+02  0.37980119618E+02  0.49327131161E+03  0.50409935026E+03  0.00000000000E+00 0. -1.
         22    1    3    3    0    0  0.33748286531E+02  0.16127930537E+02 -0.16614584393E+03  0.17030413513E+03  0.00000000000E+00 0.  1.
         22    1    3    3    0    0 -0.11545157778E+03  0.44000602988E+02 -0.52465132431E+03  0.53900290535E+03  0.00000000000E+00 0.  1.
</event>
<event>
 7    1  0.5593520E-006  0.1085069E+03  0.7818608E-02  0.1361859E+00
          2   -1    0    0  502    0  0.00000000000E+00  0.00000000000E+00  0.27762244137E+04  0.27762244137E+04  0.00000000000E+00 0. -1.
          1   -1    0    0  501    0 -0.00000000000E+00 -0.00000000000E+00 -0.66592777653E+02  0.66592777653E+02  0.00000000000E+00 0. -1.
         25    2    1    2    0    0 -0.83552036001E+02  0.20823388228E+01  0.35708481554E+03  0.38745459967E+03  0.12500488975E+03 0.  0.
          2    1    1    2  501    0  0.10783741389E+03  0.35199509299E+02  0.11639451017E+02  0.11403240815E+03  0.00000000000E+00 0. -1.
          1    1    1    2  502    0 -0.24285377886E+02 -0.37281848122E+02  0.23409073695E+04  0.23413301836E+04  0.00000000000E+00 0. -1.
         22    1    3    3    0    0 -0.71300214377E+02  0.27612803955E+01  0.36561348582E+03  0.37251116259E+03  0.00000000000E+00 0.  1.
         22    1    3    3    0    0 -0.12251821624E+02 -0.67894157269E+00 -0.85286702870E+01  0.14943437076E+02  0.00000000000E+00 0.  1.
</event>
<event>
 7    1  0.5593520E-006  0.8646260E+02  0.7818608E-02  0.1435810E+00
          2   -1    0    0  502    0  0.00000000000E+00  0.00000000000E+00  0.72753973145E+03  0.72753973145E+03  0.00000000000E+00 0. -1.
          1   -1    0    0  501    0 -0.00000000000E+00 -0.00000000000E+00 -0.90857842766E+03  0.90857842766E+03  0.00000000000E+00 0. -1.
         25    2    1    2    0    0  0.23897972430E+02 -0.69297260114E+02 -0.38000306065E+02  0.14980791881E+03  0.12500066373E+03 0.  0.
          2    1    1    2  501    0 -0.54905567092E+02  0.67731601479E+02 -0.81198034345E+03  0.81664819187E+03  0.00000000000E+00 0. -1.
          1    1    1    2  502    0  0.31007594662E+02  0.15656586357E+01  0.66894195330E+03  0.66966204842E+03  0.00000000000E+00 0. -1.
         22    1    3    3    0    0  0.15024794406E+01 -0.87670312013E+02  0.15429785850E+02  0.89030440549E+02  0.00000000000E+00 0.  1.
         22    1    3    3    0    0  0.22395492990E+02  0.18373051899E+02 -0.53430091915E+02  0.60777478266E+02  0.00000000000E+00 0.  1.
</event>
<event>
 7    1  0.5593520E-006  0.6653878E+02  0.7818608E-02  0.1481905E+00
          2   -1    0    0  502    0  0.00000000000E+00  0.00000000000E+00  0.51764001473E+03  0.51764001473E+03  0.00000000000E+00 0. -1.
          1   -1    0    0  501    0 -0.00000000000E+00 -0.00000000000E+00 -0.24787923702E+03  0.24787923702E+03  0.00000000000E+00 0. -1.
         25    2    1    2    0    0 -0.65036080151E+02  0.35438237782E+02  0.31955681009E+02  0.14876809451E+03  0.12500087991E+03 0.  0.
          2    1    1    2  501    0  0.23633740281E+02  0.16539278015E+02 -0.18576945841E+03  0.18799572622E+03  0.00000000000E+00 0. -1.
          1    1    1    2  502    0  0.41402339870E+02 -0.51977515797E+02  0.42357455511E+03  0.42875543103E+03  0.00000000000E+00 0. -1.
         22    1    3    3    0    0 -0.92118685363E+02 -0.84495248524E-01  0.44594779960E+02  0.10234526727E+03  0.00000000000E+00 0.  1.
         22    1    3    3    0    0  0.27082605212E+02  0.35522733031E+02 -0.12639098951E+02  0.46422827244E+02  0.00000000000E+00 0.  1.
</event>
<event>
 7    1  0.5593520E-006  0.5887900E+02  0.7818608E-02  0.1410661E+00
          2   -1    0    0  502    0  0.00000000000E+00  0.00000000000E+00  0.15733074705E+04  0.15733074705E+04  0.00000000000E+00 0. -1.
          1   -1    0    0  501    0 -0.00000000000E+00 -0.00000000000E+00 -0.77141466092E+02  0.77141466092E+02  0.00000000000E+00 0. -1.
         25    2    1    2    0    0 -0.21337619400E+02 -0.11083143441E+02  0.48605656182E+03  0.50244803484E+03  0.12499966544E+03 0.  0.
          2    1    1    2  501    0 -0.34196876162E+02  0.43422215084E+02 -0.56744028052E+02  0.79213634064E+02  0.00000000000E+00 0. -1.
          1    1    1    2  502    0  0.55534495562E+02 -0.32339071643E+02  0.10668534706E+04  0.10687872677E+04  0.00000000000E+00 0. -1.
         22    1    3    3    0    0 -0.40722162026E+02  0.48801336495E+02  0.21629550326E+03  0.22544092276E+03  0.00000000000E+00 0.  1.
         22    1    3    3    0    0  0.19384542626E+02 -0.59884479936E+02  0.26976105856E+03  0.27700711208E+03  0.00000000000E+00 0.  1.
</event>
<event>
 7    1  0.5593520E-006  0.7421674E+02  0.7818608E-02  0.1364470E+00
          2   -1    0    0  502    0  0.00000000000E+00  0.00000000000E+00  0.27481365316E+03  0.27481365316E+03  0.00000000000E+00 0. -1.
          1   -1    0    0  501    0 -0.00000000000E+00 -0.00000000000E+00 -0.43759137085E+03  0.43759137085E+03  0.00000000000E+00 0. -1.
         25    2    1    2    0    0 -0.20128011754E+02  0.22984584969E+02 -0.52411911305E+02  0.13893876329E+03  0.12499417385E+03 0.  0.
          2    1    1    2  501    0 -0.90325925012E+01 -0.79558152712E+02 -0.33270111020E+03  0.34220040345E+03  0.00000000000E+00 0. -1.
          1    1    1    2  502    0  0.29160604255E+02  0.56573567743E+02  0.22233530382E+03  0.23126585726E+03  0.00000000000E+00 0. -1.
         22    1    3    3    0    0 -0.37493073365E+02 -0.25644768054E+02  0.20302361223E+02  0.49755105770E+02  0.00000000000E+00 0.  1.
         22    1    3    3    0    0  0.17365061611E+02  0.48629353023E+02 -0.72714272528E+02  0.89183657525E+02  0.00000000000E+00 0.  1.
</event>
<event>
 7    1  0.5593520E-006  0.1068467E+03  0.7818608E-02  0.1267363E+00
          2   -1    0    0  502    0  0.00000000000E+00  0.00000000000E+00  0.24099311302E+04  0.24099311302E+04  0.00000000000E+00 0. -1.
          1   -1    0    0  501    0 -0.00000000000E+00 -0.00000000000E+00 -0.86412017655E+03  0.86412017655E+03  0.00000000000E+00 0. -1.
         25    2    1    2    0    0  0.81488904264E+01  0.93604650346E+01  0.23181176349E+03  0.26365915814E+03  0.12500174103E+03 0.  0.
          2    1    1    2  501    0  0.10301028265E+03  0.24905436021E+02 -0.84331313144E+03  0.84994613755E+03  0.00000000000E+00 0. -1.
          1    1    1    2  502    0 -0.11115917308E+03 -0.34265901056E+02  0.21573123216E+04  0.21604460111E+04  0.00000000000E+00 0. -1.
         22    1    3    3    0    0  0.40083051002E+02  0.31704267752E+02  0.21538322494E+03  0.22136337809E+03  0.00000000000E+00 0. -1.
         22    1    3    3    0    0 -0.31934160576E+02 -0.22343802718E+02  0.16428538542E+02  0.42295780052E+02  0.00000000000E+00 0. -1.
</event>
<event>
 7    1  0.5593520E-006  0.9825418E+02  0.7818608E-02  0.1320683E+00
          2   -1    0    0  502    0  0.00000000000E+00  0.00000000000E+00  0.34116988003E+03  0.34116988003E+03  0.00000000000E+00 0. -1.
          1   -1    0    0  501    0 -0.00000000000E+00 -0.00000000000E+00 -0.33613054609E+03  0.33613054609E+03  0.00000000000E+00 0. -1.
         25    2    1    2    0    0  0.27116492678E+02  0.41117629867E+02  0.93584219219E+02  0.16373472442E+03  0.12500036094E+03 0.  0.
          2    1    1    2  501    0  0.76806389347E+01 -0.10203344497E+03 -0.28614090232E+03  0.30388555755E+03  0.00000000000E+00 0. -1.
          1    1    1    2  502    0 -0.34797131613E+02  0.60915815102E+02  0.19759601705E+03  0.20968014415E+03  0.00000000000E+00 0. -1.
         22    1    3    3    0    0  0.41784035378E+02  0.79069425934E+02  0.82238149827E+02  0.12149482712E+03  0.00000000000E+00 0.  1.
         22    1    3    3    0    0 -0.14667542700E+02 -0.37951796067E+02  0.11346069392E+02  0.42239897303E+02  0.00000000000E+00 0.  1.
</event>
<event>
 7    1  0.5593520E-006  0.1508100E+03  0.7818608E-02  0.1327011E+00
          2   -1    0    0  502    0  0.00000000000E+00  0.00000000000E+00  0.25653263450E+04  0.25653263450E+04  0.00000000000E+00 0. -1.
          1   -1    0    0  501    0 -0.00000000000E+00 -0.00000000000E+00 -0.28566528446E+03  0.28566528446E+03  0.00000000000E+00 0. -1.
         25    2    1    2    0    0  0.66612710239E+01  0.11700222254E+03  0.20536570316E+03  0.26745793471E+03  0.12499912878E+03 0.  0.
          2    1    1    2  501    0  0.28285115410E+02  0.32663828974E+02 -0.25022995150E+03  0.25393306619E+03  0.00000000000E+00 0. -1.
          1    1    1    2  502    0 -0.34946386434E+02 -0.14966605151E+03  0.23245253089E+04  0.23296006286E+04  0.00000000000E+00 0. -1.
         22    1    3    3    0    0 -0.22682944747E+02  0.19350588843E+02  0.14695139549E+03  0.14994556982E+03  0.00000000000E+00 0. -1.
         22    1    3    3    0    0  0.29344215771E+02  0.97651633695E+02  0.58414307668E+02  0.11751236489E+03  0.00000000000E+00 0. -1.
</event>
<event>
 7    1  0.5593520E-006  0.8769204E+02  0.7818608E-02  0.1416797E+00
          2   -1    0    0  502    0  0.00000000000E+00  0.00000000000E+00  0.13456760471E+04  0.13456760471E+04  0.00000000000E+00 0. -1.
          1   -1    0    0  501    0 -0.00000000000E+00 -0.00000000000E+00 -0.21815409897E+03  0.21815409897E+03  0.00000000000E+00 0. -1.
         25    2    1    2    0    0 -0.54346986695E+02 -0.87645243494E+02 -0.57535898110E+01  0.16215166882E+03  0.12499910494E+03 0.  0.
          2    1    1    2  501    0  0.19192579899E+02  0.83613715354E+02 -0.12021624623E+03  0.14768735347E+03  0.00000000000E+00 0. -1.
          1    1    1    2  502    0  0.35154406795E+02  0.40315281406E+01  0.12534917842E+04  0.12539911238E+04  0.00000000000E+00 0. -1.
         22    1    3    3    0    0 -0.16695257843E+02 -0.55403713005E+02  0.57642949684E+02  0.81676267652E+02  0.00000000000E+00 0.  1.
         22    1    3    3    0    0 -0.37651728852E+02 -0.32241530489E+02 -0.63396539495E+02  0.80475401172E+02  0.00000000000E+00 0.  1.
</event>
<event>
 7    1  0.5593520E-006  0.2824592E+02  0.7818608E-02  0.1633333E+00
          2   -1    0    0  502    0  0.00000000000E+00  0.00000000000E+00  0.40988099952E+03  0.40988099952E+03  0.00000000000E+00 0. -1.
          1   -1    0    0  501    0 -0.00000000000E+00 -0.00000000000E+00 -0.26170813740E+03  0.26170813740E+03  0.00000000000E+00 0. -1.
         25    2    1    2    0    0  0.32197706170E+01  0.29868481150E+02  0.61072329514E+02  0.14232909012E+03  0.12500098949E+03 0.  0.
          2    1    1    2  501    0 -0.24209183607E+02 -0.14722531548E+02 -0.21962456715E+03  0.22144477416E+03  0.00000000000E+00 0. -1.
          1    1    1    2  502    0  0.20989412991E+02 -0.15145949602E+02  0.30672509976E+03  0.30781527264E+03  0.00000000000E+00 0. -1.
         22    1    3    3    0    0  0.27122626279E+02  0.51858831932E+02  0.84139921811E+02  0.10249147159E+03  0.00000000000E+00 0.  1.
         22    1    3    3    0    0 -0.23902855662E+02 -0.21990350782E+02 -0.23067592297E+02  0.39837618537E+02  0.00000000000E+00 0.  1.
</event>
<event>
 7    1  0.5593520E-006  0.6283005E+02  0.7818608E-02  0.1489489E+00
          2   -1    0    0  502    0  0.00000000000E+00  0.00000000000E+00  0.42947245682E+03  0.42947245682E+03  0.00000000000E+00 0. -1.
          1   -1    0    0  501    0 -0.00000000000E+00 -0.00000000000E+00 -0.54978679985E+02  0.54978679985E+02  0.00000000000E+00 0. -1.
         25    2    1    2    0    0 -0.18286081298E+02  0.45945423242E+02  0.69517666916E+02  0.15133753557E+03  0.12499992389E+03 0.  0.
          2    1    1    2  501    0  0.38803891756E+02 -0.66393996691E+02  0.10025168111E+03  0.12634992828E+03  0.00000000000E+00 0. -1.
          1    1    1    2  502    0 -0.20517810457E+02  0.20448573449E+02  0.20472442880E+03  0.20676367295E+03  0.00000000000E+00 0. -1.
         22    1    3    3    0    0 -0.10517868138E+01  0.79683943895E+02  0.93523579189E+01  0.80237795140E+02  0.00000000000E+00 0.  1.
         22    1    3    3    0    0 -0.17234294484E+02 -0.33738520653E+02  0.60165308997E+02  0.71099740428E+02  0.00000000000E+00 0.  1.
</event>
<event>
 7    1  0.5593520E-006  0.6866200E+02  0.7818608E-02  0.1456971E+00
          2   -1    0    0  502    0  0.00000000000E+00  0.00000000000E+00  0.95905479620E+03  0.95905479620E+03  0.00000000000E+00 0. -1.
          1   -1    0    0  501    0 -0.00000000000E+00 -0.00000000000E+00 -0.15606885297E+03  0.15606885297E+03  0.00000000000E+00 0. -1.
         25    2    1    2    0    0 -0.10553338632E+02 -0.47896902624E+02 -0.54062708508E+02  0.14475575895E+03  0.12500386818E+03 0.  0.
          2    1    1    2  501    0  0.79487538508E+01  0.81220504015E+02 -0.26793152470E+02  0.85894272100E+02  0.00000000000E+00 0. -1.
          1    1    1    2  502    0  0.26045847811E+01 -0.33323601391E+02  0.88384180421E+03  0.88447361812E+03  0.00000000000E+00 0. -1.
         22    1    3    3    0    0 -0.23473221855E+02 -0.25214306682E+02  0.36687244231E+02  0.50326010124E+02  0.00000000000E+00 0. -1.
         22    1    3    3    0    0  0.12919883223E+02 -0.22682595942E+02 -0.90749952739E+02  0.94429748826E+02  0.00000000000E+00 0. -1.
</event>
<event>
 7    1  0.5593520E-006  0.4083745E+02  0.7818608E-02  0.1570857E+00
          2   -1    0    0  502    0  0.00000000000E+00  0.00000000000E+00  0.11497609926E+04  0.11497609926E+04  0.00000000000E+00 0. -1.
          1   -1    0    0  501    0 -0.00000000000E+00 -0.00000000000E+00 -0.40477083961E+03  0.40477083961E+03  0.00000000000E+00 0. -1.
         25    2    1    2    0    0 -0.47353360775E+02  0.10929707358E+02  0.61471158278E+02  0.14752974474E+03  0.12499809200E+03 0.  0.
          2    1    1    2  501    0  0.88401447869E+01 -0.24502755301E+02 -0.36087309139E+03  0.36181199713E+03  0.00000000000E+00 0. -1.
          1    1    1    2  502    0  0.38513215988E+02  0.13573047944E+02  0.10443920861E+04  0.10451900904E+04  0.00000000000E+00 0. -1.
         22    1    3    3    0    0  0.42315631085E+02  0.13417764927E+02  0.21477297900E+02  0.49314535128E+02  0.00000000000E+00 0. -1.
         22    1    3    3    0    0 -0.89668991860E+02 -0.24880575698E+01  0.39993860378E+02  0.98215209614E+02  0.00000000000E+00 0. -1.
</event>
<event>
 7    1  0.5593520E-006  0.6500381E+02  0.7818608E-02  0.1428047E+00
          2   -1    0    0  502    0  0.00000000000E+00  0.00000000000E+00  0.13734765278E+02  0.13734765278E+02  0.00000000000E+00 0. -1.
          1   -1    0    0  501    0 -0.00000000000E+00 -0.00000000000E+00 -0.21937191355E+04  0.21937191355E+04  0.00000000000E+00 0. -1.
         25    2    1    2    0    0 -0.23774547093E+02  0.21890725991E+02 -0.97211975894E+03  0.98065602289E+03  0.12499990609E+03 0.  0.
          2    1    1    2  501    0  0.40652250025E+02 -0.62299774484E+02 -0.11581884262E+04  0.11605749859E+04  0.00000000000E+00 0. -1.
          1    1    1    2  502    0 -0.16877702932E+02  0.40409048493E+02 -0.49676185011E+02  0.66222891916E+02  0.00000000000E+00 0. -1.
         22    1    3    3    0    0  0.42905156149E+02  0.25676036285E+02 -0.63616923012E+03  0.63813117822E+03  0.00000000000E+00 0. -1.
         22    1    3    3    0    0 -0.66679703242E+02 -0.37853102936E+01 -0.33595052883E+03  0.34252484467E+03  0.00000000000E+00 0. -1.
</event>
<event>
 7    1  0.5593520E-006  0.4511004E+02  0.7818608E-02  0.1513028E+00
          2   -1    0    0  502    0  0.00000000000E+00  0.00000000000E+00  0.45550718188E+03  0.45550718188E+03  0.00000000000E+00 0. -1.
          1   -1    0    0  501    0 -0.00000000000E+00 -0.00000000000E+00 -0.15303181977E+04  0.15303181977E+04  0.00000000000E+00 0. -1.
         25    2    1    2    0    0 -0.15750266085E+02  0.73125203953E+01 -0.32325147263E+02  0.13027425454E+03  0.12499968966E+03 0.  0.
          2    1    1    2  501    0 -0.31879727514E+01  0.34182288789E+02 -0.14475349301E+04  0.14479419760E+04  0.00000000000E+00 0. -1.
          1    1    1    2  502    0  0.18938238837E+02 -0.41494809184E+02  0.40504906156E+03  0.40760914901E+03  0.00000000000E+00 0. -1.
         22    1    3    3    0    0 -0.29697047707E+02  0.40234339102E+02 -0.64882840186E+02  0.81917639346E+02  0.00000000000E+00 0.  1.
         22    1    3    3    0    0  0.13946781621E+02 -0.32921818707E+02  0.32557692922E+02  0.48356615194E+02  0.00000000000E+00 0.  1.
</event>
<event>
 7    1  0.5593520E-006  0.1347968E+03  0.7818608E-02  0.1294743E+00
          2   -1    0    0  502    0  0.00000000000E+00  0.00000000000E+00  0.47363040521E+03  0.47363040521E+03  0.00000000000E+00 0. -1.
          1   -1    0    0  501    0 -0.00000000000E+00 -0.00000000000E+00 -0.14942317887E+04  0.14942317887E+04  0.00000000000E+00 0. -1.
         25    2    1    2    0    0 -0.18730142334E+03  0.29152145822E+02 -0.32393477922E+02  0.22936721834E+03  0.12501324989E+03 0.  0.
          2    1    1    2  501    0  0.57053538166E+02 -0.30645511680E+02 -0.13512456311E+04  0.13527967361E+04  0.00000000000E+00 0. -1.
          1    1    1    2  502    0  0.13024788517E+03  0.14933658579E+01  0.36303772556E+03  0.38569823945E+03  0.00000000000E+00 0. -1.
         22    1    3    3    0    0 -0.19452804039E+03 -0.11575680704E+00 -0.16341772125E+02  0.19521328186E+03  0.00000000000E+00 0.  1.
         22    1    3    3    0    0  0.72266170524E+01  0.29267902629E+02 -0.16051705796E+02  0.34153936483E+02  0.00000000000E+00 0.  1.
</event>
<event>
 7    1  0.5593520E-006  0.6887478E+02  0.7818608E-02  0.1430803E+00
          2   -1    0    0  502    0  0.00000000000E+00  0.00000000000E+00  0.69895034556E+03  0.69895034556E+03  0.00000000000E+00 0. -1.
          1   -1    0    0  501    0 -0.00000000000E+00 -0.00000000000E+00 -0.55490414755E+03  0.55490414755E+03  0.00000000000E+00 0. -1.
         25    2    1    2    0    0  0.80224767574E+02 -0.69518856352E+02  0.73008616266E+02  0.17950760939E+03  0.12499535616E+03 0.  0.
          2    1    1    2  501    0 -0.35999327637E+02  0.18501770301E+02 -0.49884210959E+03  0.50048148557E+03  0.00000000000E+00 0. -1.
          1    1    1    2  502    0 -0.44225439937E+02  0.51017086052E+02  0.56987969133E+03  0.57386539815E+03  0.00000000000E+00 0. -1.
         22    1    3    3    0    0  0.77338401449E+02 -0.96929335905E+01 -0.84485906257E+01  0.78399999897E+02  0.00000000000E+00 0. -1.
         22    1    3    3    0    0  0.28863661247E+01 -0.59825922762E+02  0.81457206892E+02  0.10110760950E+03  0.00000000000E+00 0. -1.
</event>
<event>
 7    1  0.5593520E-006  0.1353644E+03  0.7818608E-02  0.1320776E+00
          2   -1    0    0  502    0  0.00000000000E+00  0.00000000000E+00  0.14588635402E+03  0.14588635402E+03  0.00000000000E+00 0. -1.
          1   -1    0    0  501    0 -0.00000000000E+00 -0.00000000000E+00 -0.71397005867E+03  0.71397005867E+03  0.00000000000E+00 0. -1.
         25    2    1    2    0    0 -0.10971677021E+03  0.13111399625E+03 -0.26256098898E+03  0.33733099329E+03  0.12500110567E+03 0.  0.
          2    1    1    2  501    0  0.48541152642E+02 -0.15245509450E+02 -0.37209445399E+03  0.37555685555E+03  0.00000000000E+00 0. -1.
          1    1    1    2  502    0  0.61175617570E+02 -0.11586848680E+03  0.66571738324E+02  0.14696856386E+03  0.00000000000E+00 0. -1.
         22    1    3    3    0    0 -0.91721795054E+02  0.20842175991E+02 -0.16035140997E+03  0.18590282049E+03  0.00000000000E+00 0.  1.
         22    1    3    3    0    0 -0.17994975157E+02  0.11027182026E+03 -0.10220957902E+03  0.15142817280E+03  0.00000000000E+00 0.  1.
</event>
<event>
 7    1  0.5593520E-006  0.1015568E+03  0.7818608E-02  0.1370312E+00
          2   -1    0    0  502    0  0.00000000000E+00  0.00000000000E+00  0.17241757270E+04  0.17241757270E+04  0.00000000000E+00 0. -1.
          1   -1    0    0  501    0 -0.00000000000E+00 -0.00000000000E+00 -0.10857629793E+03  0.10857629793E+03  0.00000000000E+00 0. -1.
         25    2    1    2    0    0 -0.12816173968E+03  0.21352921701E+02  0.40516683028E+03  0.44347017432E+03  0.12499702543E+03 0.  0.
          2    1    1    2  501    0  0.89929060607E+02 -0.43746661072E+02 -0.60958203481E+02  0.11711920794E+03  0.00000000000E+00 0. -1.
          1    1    1    2  502    0  0.38232679073E+02  0.22393739370E+02  0.12713908022E+04  0.12721626426E+04  0.00000000000E+00 0. -1.
         22    1    3    3    0    0 -0.11605546922E+03  0.44675433252E+01  0.16153067322E+03  0.19894971543E+03  0.00000000000E+00 0.  1.
         22    1    3    3    0    0 -0.12106270462E+02  0.16885378376E+02  0.24363615706E+03  0.24452045889E+03  0.00000000000E+00 0.  1.
</event>
<event>
 7    1  0.5593520E-006  0.2638824E+03  0.7818608E-02  0.1239567E+00
          2   -1    0    0  502    0  0.00000000000E+00  0.00000000000E+00  0.10082902709E+03  0.10082902709E+03  0.00000000000E+00 0. -1.
          1   -1    0    0  501    0 -0.00000000000E+00 -0.00000000000E+00 -0.17646722425E+04  0.17646722425E+04  0.00000000000E+00 0. -1.
         25    2    1    2    0    0  0.85936138992E+02 -0.21236553242E+03 -0.51884610253E+03  0.58078443840E+03  0.12500058574E+03 0.  0.
          2    1    1    2  501    0 -0.12404772187E+03  0.25415326764E+03 -0.11831586090E+04  0.12164892169E+04  0.00000000000E+00 0. -1.
          1    1    1    2  502    0  0.38111582881E+02 -0.41787735225E+02  0.38161496134E+02  0.68227614293E+02  0.00000000000E+00 0. -1.
         22    1    3    3    0    0  0.24565961356E+01 -0.13207505693E+03 -0.36530854859E+03  0.38845873809E+03  0.00000000000E+00 0.  1.
         22    1    3    3    0    0  0.83479542857E+02 -0.80290475491E+02 -0.15353755394E+03  0.19232570031E+03  0.00000000000E+00 0.  1.
</event>
<event>
 7    1  0.5593520E-006  0.1130031E+03  0.7818608E-02  0.1360805E+00
          2   -1    0    0  502    0  0.00000000000E+00  0.00000000000E+00  0.13581641066E+04  0.13581641066E+04  0.00000000000E+00 0. -1.
          1   -1    0    0  501    0 -0.00000000000E+00 -0.00000000000E+00 -0.16442043730E+03  0.16442043730E+03  0.00000000000E+00 0. -1.
         25    2    1    2    0    0  0.47605003373E+01  0.13292531889E+03  0.59740329960E+03  0.62466530532E+03  0.12499695407E+03 0.  0.
          2    1    1    2  501    0 -0.32658291059E+02 -0.28130402922E+02 -0.14367439524E+03  0.15000071797E+03  0.00000000000E+00 0. -1.
          1    1    1    2  502    0  0.27897790721E+02 -0.10479491597E+03  0.74001476494E+03  0.74791852060E+03  0.00000000000E+00 0. -1.
         22    1    3    3    0    0  0.30640308810E+02  0.33566460284E+01  0.26775504920E+03  0.26952339781E+03  0.00000000000E+00 0. -1.
         22    1    3    3    0    0 -0.25879808473E+02  0.12956867286E+03  0.32964825041E+03  0.35514190751E+03  0.00000000000E+00 0. -1.
</event>
<event>
 7    1  0.5593520E-006  0.5582088E+02  0.7818608E-02  0.1440530E+00
          2   -1    0    0  502    0  0.00000000000E+00  0.00000000000E+00  0.61015559347E+03  0.61015559347E+03  0.00000000000E+00 0. -1.
          1   -1    0    0  501    0 -0.00000000000E+00 -0.00000000000E+00 -0.58567486433E+03  0.58567486433E+03  0.00000000000E+00 0. -1.
         25    2    1    2    0    0  0.68286954817E+02 -0.44602160795E+02  0.37946880867E+03  0.40777054142E+03  0.12501110652E+03 0.  0.
          2    1    1    2  501    0 -0.16140942237E+02  0.43522055634E+02 -0.56742164828E+03  0.56931715790E+03  0.00000000000E+00 0. -1.
          1    1    1    2  502    0 -0.52146012580E+02  0.10801051608E+01  0.21243356875E+03  0.21874275848E+03  0.00000000000E+00 0. -1.
         22    1    3    3    0    0  0.10752063770E+02  0.16247856348E+02  0.26616885314E+03  0.26688098114E+03  0.00000000000E+00 0. -1.
         22    1    3    3    0    0  0.57534891047E+02 -0.60850017143E+02  0.11329995552E+03  0.14088956028E+03  0.00000000000E+00 0. -1.
</event>
<event>
 7    1  0.5593520E-006  0.8577963E+02  0.7818608E-02  0.1315900E+00
          2   -1    0    0  502    0  0.00000000000E+00  0.00000000000E+00  0.13251362028E+03  0.13251362028E+03  0.00000000000E+00 0. -1.
          1   -1    0    0  501    0 -0.00000000000E+00 -0.00000000000E+00 -0.61232683385E+03  0.61232683385E+03  0.00000000000E+00 0. -1.
         25    2    1    2    0    0 -0.78921715896E+01  0.19797587943E+02 -0.85875132525E+02  0.15314603378E+03  0.12499975367E+03 0.  0.
          2    1    1    2  501    0 -0.74432120115E+02  0.38662331157E+02 -0.46224313436E+03  0.46979105102E+03  0.00000000000E+00 0. -1.
          1    1    1    2  502    0  0.82324291704E+02 -0.58459919100E+02  0.68305053315E+02  0.12190336933E+03  0.00000000000E+00 0. -1.
         22    1    3    3    0    0 -0.48541302775E+02 -0.88737293897E+01 -0.90612510109E+02  0.10317765328E+03  0.00000000000E+00 0.  1.
         22    1    3    3    0    0  0.40649131185E+02  0.28671317333E+02  0.47373775843E+01  0.49968380503E+02  0.00000000000E+00 0.  1.
</event>
<event>
 7    1  0.5593520E-006  0.7968661E+02  0.7818608E-02  0.1396317E+00
          2   -1    0    0  502    0  0.00000000000E+00  0.00000000000E+00  0.30922669871E+04  0.30922669871E+04  0.00000000000E+00 0. -1.
          1   -1    0    0  501    0 -0.00000000000E+00 -0.00000000000E+00 -0.10194538795E+03  0.10194538795E+03  0.00000000000E+00 0. -1.
         25    2    1    2    0    0 -0.61542733483E+01 -0.37457486129E+02  0.27906210364E+03  0.30812685528E+03  0.12500225163E+03 0.  0.
          2    1    1    2  501    0 -0.26902898046E+02 -0.36972462639E+02 -0.80798909157E+02  0.92839607054E+02  0.00000000000E+00 0. -1.
          1    1    1    2  502    0  0.33057171394E+02  0.74429948768E+02  0.27920584046E+04  0.27932459127E+04  0.00000000000E+00 0. -1.
         22    1    3    3    0    0  0.49209149341E+02 -0.55904733485E+01  0.20223931071E+03  0.20821511128E+03  0.00000000000E+00 0. -1.
         22    1    3    3    0    0 -0.55363422690E+02 -0.31867012780E+02  0.76822792935E+02  0.99911744003E+02  0.00000000000E+00 0. -1.
</event>
<event>
 7    1  0.5593520E-006  0.1122760E+03  0.7818608E-02  0.1446845E+00
          2   -1    0    0  502    0  0.00000000000E+00  0.00000000000E+00  0.33314704171E+03  0.33314704171E+03  0.00000000000E+00 0. -1.
          1   -1    0    0  501    0 -0.00000000000E+00 -0.00000000000E+00 -0.11913984032E+04  0.11913984032E+04  0.00000000000E+00 0. -1.
         25    2    1    2    0    0 -0.10925449450E+03  0.61014932584E+02 -0.56886822404E+02  0.18580049084E+03  0.12500538095E+03 0.  0.
          2    1    1    2  501    0  0.54044903925E+01 -0.21346411661E+02 -0.10584365710E+04  0.10586656000E+04  0.00000000000E+00 0. -1.
          1    1    1    2  502    0  0.10385000411E+03 -0.39668520923E+02  0.25707203198E+03  0.28007935399E+03  0.00000000000E+00 0. -1.
         22    1    3    3    0    0 -0.18635605561E+02  0.38617130952E+02 -0.78986240205E+02  0.89874327476E+02  0.00000000000E+00 0.  1.
         22    1    3    3    0    0 -0.90618888936E+02  0.22397801632E+02  0.22099417801E+02  0.95926163361E+02  0.00000000000E+00 0.  1.
</event>
<event>
 7    1  0.5593520E-006  0.1292618E+03  0.7818608E-02  0.1283136E+00
          2   -1    0    0  502    0  0.00000000000E+00  0.00000000000E+00  0.30644813132E+04  0.30644813132E+04  0.00000000000E+00 0. -1.
          1   -1    0    0  501    0 -0.00000000000E+00 -0.00000000000E+00 -0.96924492166E+02  0.96924492166E+02  0.00000000000E+00 0. -1.
         25    2    1    2    0    0 -0.75505168503E+02  0.15666223718E+03  0.44534954140E+03  0.49416842979E+03  0.12498854323E+03 0.  0.
          2    1    1    2  501    0 -0.19969481043E+02 -0.72608991037E+02 -0.50960446194E+02  0.90927514146E+02  0.00000000000E+00 0. -1.
          1    1    1    2  502    0  0.95474649546E+02 -0.84053246145E+02  0.25731677258E+04  0.25763098614E+04  0.00000000000E+00 0. -1.
         22    1    3    3    0    0 -0.93152302971E+02  0.53037811689E+02  0.19237046164E+03  0.22021978914E+03  0.00000000000E+00 0.  1.
         22    1    3    3    0    0  0.17647134468E+02  0.10362442549E+03  0.25297907977E+03  0.27394864065E+03  0.00000000000E+00 0.  1.
</event>
<event>
 7    1  0.5593520E-006  0.6942736E+02  0.7818608E-02  0.1391584E+00
          2   -1    0    0  502    0  0.00000000000E+00  0.00000000000E+00  0.11740760306E+04  0.11740760306E+04  0.00000000000E+00 0. -1.
          1   -1    0    0  501    0 -0.00000000000E+00 -0.00000000000E+00 -0.48206729484E+02  0.48206729484E+02  0.00000000000E+00 0. -1.
         25    2    1    2    0    0 -0.85498783347E+02  0.28832744952E+02  0.67841380054E+03  0.69571171387E+03  0.12501253900E+03 0.  0.
          2    1    1    2  501    0  0.65698851878E+02  0.21946829939E+02 -0.63003637625E+01  0.69553555380E+02  0.00000000000E+00 0. -1.
          1    1    1    2  502    0  0.19799931469E+02 -0.50779574890E+02  0.45375586433E+03  0.45701749083E+03  0.00000000000E+00 0. -1.
         22    1    3    3    0    0 -0.98248257604E+02  0.67012840210E+01  0.28622064407E+03  0.30268776721E+03  0.00000000000E+00 0. -1.
         22    1    3    3    0    0  0.12749474257E+02  0.22131460931E+02  0.39219315648E+03  0.39302394666E+03  0.00000000000E+00 0. -1.
</event>
<event>
 7    1  0.5593520E-006  0.3950543E+02  0.7818608E-02  0.1616647E+00
          2   -1    0    0  502    0  0.00000000000E+00  0.00000000000E+00  0.20529026908E+03  0.20529026908E+03  0.00000000000E+00 0. -1.
          1   -1    0    0  501    0 -0.00000000000E+00 -0.00000000000E+00 -0.18375716968E+04  0.18375716968E+04  0.00000000000E+00 0. -1.
         25    2    1    2    0    0 -0.42629613855E+02  0.41701127287E+02 -0.16819529517E+03  0.21787788348E+03  0.12499938719E+03 0.  0.
          2    1    1    2  501    0  0.27079983032E+02 -0.28502101108E+02 -0.16437229512E+04  0.16441930652E+04  0.00000000000E+00 0. -1.
          1    1    1    2  502    0  0.15549630823E+02 -0.13199026179E+02  0.17963681863E+03  0.18079101725E+03  0.00000000000E+00 0. -1.
         22    1    3    3    0    0 -0.42748107224E+02  0.48108714441E+02 -0.17023933738E+02  0.66570739790E+02  0.00000000000E+00 0.  1.
         22    1    3    3    0    0  0.11849336861E+00 -0.64075871538E+01 -0.15117136143E+03  0.15130714369E+03  0.00000000000E+00 0.  1.
</event>
<event>
 7    1  0.5593520E-006  0.1576167E+03  0.7818608E-02  0.1291994E+00
          2   -1    0    0  502    0  0.00000000000E+00  0.00000000000E+00  0.25226434456E+04  0.25226434456E+04  0.00000000000E+00 0. -1.
          1   -1    0    0  501    0 -0.00000000000E+00 -0.00000000000E+00 -0.58040766518E+03  0.58040766518E+03  0.00000000000E+00 0. -1.
         25    2    1    2    0    0 -0.12015380246E+03  0.17710378122E+02  0.14635752003E+04  0.14739157532E+04  0.12499874773E+03 0.  0.
          2    1    1    2  501    0  0.15566300353E+03  0.26651800992E+02 -0.56360930770E+03  0.58531764102E+03  0.00000000000E+00 0. -1.
          1    1    1    2  502    0 -0.35509201065E+02 -0.44362179114E+02  0.10422698878E+04  0.10438177165E+04  0.00000000000E+00 0. -1.
         22    1    3    3    0    0 -0.67414623952E+02  0.58741858232E+02  0.49301176424E+03  0.50105482446E+03  0.00000000000E+00 0. -1.
         22    1    3    3    0    0 -0.52739178509E+02 -0.41031480110E+02  0.97056343606E+03  0.97286092877E+03  0.00000000000E+00 0. -1.
</event>
<event>
 7    1  0.5593520E-006  0.1183069E+03  0.7818608E-02  0.1373291E+00
          2   -1    0    0  502    0  0.00000000000E+00  0.00000000000E+00  0.51961779222E+03  0.51961779222E+03  0.00000000000E+00 0. -1.
          1   -1    0    0  501    0 -0.00000000000E+00 -0.00000000000E+00 -0.56660768652E+03  0.56660768652E+03  0.00000000000E+00 0. -1.
         25    2    1    2    0    0  0.89176526461E+02  0.86035581110E+02  0.49399812431E+02  0.18281049268E+03  0.12499904270E+03 0.  0.
          2    1    1    2  501    0 -0.56625372073E+02 -0.10385810779E+03 -0.49202397830E+03  0.50604400455E+03  0.00000000000E+00 0. -1.
          1    1    1    2  502    0 -0.32551154387E+02  0.17822526675E+02  0.39563427157E+03  0.39737098151E+03  0.00000000000E+00 0. -1.
         22    1    3    3    0    0  0.10762738161E+03  0.10430330754E+03  0.39226939180E+02  0.15492445254E+03  0.00000000000E+00 0.  1.
         22    1    3    3    0    0 -0.18450855145E+02 -0.18267726434E+02  0.10172873251E+02  0.27886040142E+02  0.00000000000E+00 0.  1.
</event>
<event>
 7    1  0.5593520E-006  0.1137623E+03  0.7818608E-02  0.1366595E+00
          2   -1    0    0  502    0  0.00000000000E+00  0.00000000000E+00  0.10850195518E+04  0.10850195518E+04  0.00000000000E+00 0. -1.
          1   -1    0    0  501    0 -0.00000000000E+00 -0.00000000000E+00 -0.48266515643E+02  0.48266515643E+02  0.00000000000E+00 0. -1.
         25    2    1    2    0    0  0.98410577390E+02  0.20406363158E+02  0.36240944242E+03  0.39631888944E+03  0.12500798683E+03 0.  0.
          2    1    1    2  501    0  0.39050542991E+01  0.40605836086E+02 -0.10270448762E+02  0.42066203668E+02  0.00000000000E+00 0. -1.
          1    1    1    2  502    0 -0.10231563169E+03 -0.61012199243E+02  0.68461404247E+03  0.69490097431E+03  0.00000000000E+00 0. -1.
         22    1    3    3    0    0 -0.11467400730E+02 -0.34698286972E+02  0.10218534811E+03  0.10852335125E+03  0.00000000000E+00 0. -1.
         22    1    3    3    0    0  0.10987797812E+03  0.55104650129E+02  0.26022409431E+03  0.28779553819E+03  0.00000000000E+00 0. -1.
</event>
<event>
 7    1  0.5593520E-006  0.1092935E+03  0.7818608E-02  0.1424522E+00
          2   -1    0    0  502    0  0.00000000000E+00  0.00000000000E+00  0.69278474154E+02  0.69278474154E+02  0.00000000000E+00 0. -1.
          1   -1    0    0  501    0 -0.00000000000E+00 -0.00000000000E+00 -0.12611862479E+04  0.12611862479E+04  0.00000000000E+00 0. -1.
         25    2    1    2    0    0  0.11579039619E+03  0.50256708006E+02 -0.16556138001E+03  0.24283403622E+03  0.12499858418E+03 0.  0.
          2    1    1    2  501    0 -0.26754026341E+02  0.24170321186E+00 -0.97080367724E+03  0.97117228960E+03  0.00000000000E+00 0. -1.
          1    1    1    2  502    0 -0.89036369851E+02 -0.50498411218E+02 -0.55542716456E+02  0.11645839619E+03  0.00000000000E+00 0. -1.
         22    1    3    3    0    0  0.60377299012E+01  0.13796618321E+02  0.19481318307E+02  0.24623619199E+02  0.00000000000E+00 0.  1.
         22    1    3    3    0    0  0.10975266629E+03  0.36460089685E+02 -0.18504269832E+03  0.21821041702E+03  0.00000000000E+00 0.  1.
</event>
<event>
 7    1  0.5593520E-006  0.1084207E+03  0.7818608E-02  0.1293066E+00
          2   -1    0    0  502    0  0.00000000000E+00  0.00000000000E+00  0.17890178418E+04  0.17890178418E+04  0.00000000000E+00 0. -1.
          1   -1    0    0  501    0 -0.00000000000E+00 -0.00000000000E+00 -0.94003617829E+03  0.94003617829E+03  0.00000000000E+00 0. -1.
         25    2    1    2    0    0 -0.11582649011E+03  0.19830404865E+02 -0.46824778404E+03  0.49868818562E+03  0.12499959380E+03 0.  0.
          2    1    1    2  501    0  0.96747630663E+02  0.59698448723E+02 -0.44853026596E+03  0.46271309502E+03  0.00000000000E+00 0. -1.
          1    1    1    2  502    0  0.19078859443E+02 -0.79528853588E+02  0.17657597135E+04  0.17676527394E+04  0.00000000000E+00 0. -1.
         22    1    3    3    0    0 -0.12707756626E+02  0.33587778458E+02 -0.25913039506E+02  0.44284439216E+02  0.00000000000E+00 0.  1.
         22    1    3    3    0    0 -0.10311873348E+03 -0.13757373593E+02 -0.44233474453E+03  0.45440374640E+03  0.00000000000E+00 0.  1.
</event>
<event>
 7    1  0.5593520E-006  0.6570673E+02  0.7818608E-02  0.1383707E+00
          2   -1    0    0  502    0  0.00000000000E+00  0.00000000000E+00  0.34303019636E+03  0.34303019636E+03  0.00000000000E+00 0. -1.
          1   -1    0    0  501    0 -0.00000000000E+00 -0.00000000000E+00 -0.59903588983E+02  0.59903588983E+02  0.00000000000E+00 0. -1.
         25    2    1    2    0    0  0.61778866632E+02 -0.39136420237E+02  0.17173029384E+03  0.22464256935E+03  0.12499880955E+03 0.  0.
          2    1    1    2  501    0 -0.67650129666E+02 -0.21948060763E+02  0.86708069297E+02  0.11214520363E+03  0.00000000000E+00 0. -1.
          1    1    1    2  502    0  0.58712630340E+01  0.61084481001E+02  0.24688244239E+02  0.66146012369E+02  0.00000000000E+00 0. -1.
         22    1    3    3    0    0  0.53207461233E+02 -0.76851889274E+02  0.15804095410E+03  0.18361424233E+03  0.00000000000E+00 0. -1.
         22    1    3    3    0    0  0.85714053991E+01  0.37715469036E+02  0.13689339747E+02  0.41028327018E+02  0.00000000000E+00 0. -1.
</event>
<event>
 7    1  0.5593520E-006  0.1362678E+03  0.7818608E-02  0.1219437E+00
          2   -1    0    0  502    0  0.00000000000E+00  0.00000000000E+00  0.24688491744E+04  0.24688491744E+04  0.00000000000E+00 0. -1.
          1   -1    0    0  501    0 -0.00000000000E+00 -0.00000000000E+00 -0.55002833723E+03  0.55002833723E+03  0.00000000000E+00 0. -1.
         25    2    1    2    0    0 -0.17482937923E+02 -0.26802473135E+01  0.14168844466E+03  0.18976821164E+03  0.12499408768E+03 0.  0.
          2    1    1    2  501    0 -0.58530676295E+02 -0.12305716192E+03 -0.51477069252E+03  0.53250142821E+03  0.00000000000E+00 0. -1.
          1    1    1    2  502    0  0.76013614218E+02  0.12573740924E+03  0.22919030850E+04  0.22966078718E+04  0.00000000000E+00 0. -1.
         22    1    3    3    0    0 -0.51934044102E+02 -0.32354833399E+02  0.12866048195E+03  0.14246929423E+03  0.00000000000E+00 0.  1.
         22    1    3    3    0    0  0.34451106179E+02  0.29674586086E+02  0.13027962709E+02  0.47298917415E+02  0.00000000000E+00 0.  1.
</event>
<event>
 7    1  0.5593520E-006  0.3494416E+02  0.7818608E-02  0.1557149E+00
          2   -1    0    0  502    0  0.00000000000E+00  0.00000000000E+00  0.69287858492E+03  0.69287858492E+03  0.00000000000E+00 0. -1.
          1   -1    0    0  501    0 -0.00000000000E+00 -0.00000000000E+00 -0.50999867769E+03  0.50999867769E+03  0.00000000000E+00 0. -1.
         25    2    1    2    0    0  0.51458891299E+01  0.30155195429E+01  0.12037065687E+02  0.12571905772E+03  0.12499926796E+03 0.  0.
          2    1    1    2  501    0  0.23706331507E+02 -0.23229011751E+02 -0.45205159590E+03  0.45326837800E+03  0.00000000000E+00 0. -1.
          1    1    1    2  502    0 -0.28852220637E+02  0.20213492208E+02  0.62289443743E+03  0.62388982688E+03  0.00000000000E+00 0. -1.
         22    1    3    3    0    0  0.27915576820E+02 -0.35440533432E+02  0.49809491248E+02  0.67203394687E+02  0.00000000000E+00 0. -1.
         22    1    3    3    0    0 -0.22769687690E+02  0.38456052975E+02 -0.37772425560E+02  0.58515663036E+02  0.00000000000E+00 0. -1.
</event>
<event>
 7    1  0.5593520E-006  0.4504951E+02  0.7818608E-02  0.1554998E+00
          2   -1    0    0  502    0  0.00000000000E+00  0.00000000000E+00  0.33806819294E+02  0.33806819294E+02  0.00000000000E+00 0. -1.
          1   -1    0    0  501    0 -0.00000000000E+00 -0.00000000000E+00 -0.12522548558E+04  0.12522548558E+04  0.00000000000E+00 0. -1.
         25    2    1    2    0    0 -0.20236019956E+02  0.40629173434E+02 -0.30645488990E+03  0.33406502822E+03  0.12499846917E+03 0.  0.
          2    1    1    2  501    0  0.25685325826E+02  0.46345600903E+01 -0.90558136671E+03  0.90595740895E+03  0.00000000000E+00 0. -1.
          1    1    1    2  502    0 -0.54493058707E+01 -0.45263733524E+02 -0.64117798955E+01  0.46039237922E+02  0.00000000000E+00 0. -1.
         22    1    3    3    0    0 -0.51784022576E+01  0.52981525267E+02 -0.39220550535E+02  0.66121928691E+02  0.00000000000E+00 0. -1.
         22    1    3    3    0    0 -0.15057617698E+02 -0.12352351833E+02 -0.26723433937E+03  0.26794309953E+03  0.00000000000E+00 0. -1.
</event>
<event>
 7    1  0.5593520E-006  0.9238851E+02  0.7818608E-02  0.1416939E+00
          2   -1    0    0  502    0  0.00000000000E+00  0.00000000000E+00  0.82355713991E+03  0.82355713991E+03  0.00000000000E+00 0. -1.
          1   -1    0    0  501    0 -0.00000000000E+00 -0.00000000000E+00 -0.44216238528E+03  0.44216238528E+03  0.00000000000E+00 0. -1.
         25    2    1    2    0    0 -0.11526813450E+03 -0.25978587894E+02 -0.15662329089E+03  0.23263231924E+03  0.12500124337E+03 0.  0.
          2    1    1    2  501    0  0.31363297093E+02 -0.11912228045E+02 -0.24368393764E+03  0.24598255842E+03  0.00000000000E+00 0. -1.
          1    1    1    2  502    0  0.83904837409E+02  0.37890815939E+02  0.78170198317E+03  0.78710464753E+03  0.00000000000E+00 0. -1.
         22    1    3    3    0    0 -0.98603452498E+02 -0.50035583883E+02 -0.48718137800E+02  0.12082904224E+03  0.00000000000E+00 0.  1.
         22    1    3    3    0    0 -0.16664682004E+02  0.24056995989E+02 -0.10790515309E+03  0.11180327699E+03  0.00000000000E+00 0.  1.
</event>
<event>
 7    1  0.5593520E-006  0.7743710E+02  0.7818608E-02  0.1347961E+00
          2   -1    0    0  502    0  0.00000000000E+00  0.00000000000E+00  0.64425977762E+03  0.64425977762E+03  0.00000000000E+00 0. -1.
          1   -1    0    0  501    0 -0.00000000000E+00 -0.00000000000E+00 -0.20597359820E+03  0.20597359820E+03  0.00000000000E+00 0. -1.
         25    2    1    2    0    0 -0.14080890218E+02  0.53478446880E+02  0.23336150436E+03  0.27044791306E+03  0.12500506475E+03 0.  0.
          2    1    1    2  501    0 -0.56012435207E+02 -0.55843467285E+02 -0.17573764522E+03  0.19271638665E+03  0.00000000000E+00 0. -1.
          1    1    1    2  502    0  0.70093325425E+02  0.23650204052E+01  0.38066232029E+03  0.38706907611E+03  0.00000000000E+00 0. -1.
         22    1    3    3    0    0 -0.13253239381E+02  0.17036418871E+02 -0.10411773279E+02  0.23964409962E+02  0.00000000000E+00 0. -1.
         22    1    3    3    0    0 -0.82765083715E+00  0.36442028009E+02  0.24377327764E+03  0.24648350310E+03  0.00000000000E+00 0. -1.
</event>
<event>
 7    1  0.5593520E-006  0.3551460E+02  0.7818608E-02  0.1618351E+00
          2   -1    0    0  502    0  0.00000000000E+00  0.00000000000E+00  0.47282925183E+03  0.47282925183E+03  0.00000000000E+00 0. -1.
          1   -1    0    0  501    0 -0.00000000000E+00 -0.00000000000E+00 -0.20067005017E+04  0.20067005017E+04  0.00000000000E+00 0. -1.
         25    2    1    2    0    0  0.47872919132E+02 -0.32228632593E+02 -0.21531165318E+02  0.13935383705E+03  0.12500159869E+03 0.  0.
          2    1    1    2  501    0 -0.28019977913E+02  0.21721655085E+02 -0.19257899891E+04  0.19261163079E+04  0.00000000000E+00 0. -1.
          1    1    1    2  502    0 -0.19852941219E+02  0.10506977508E+02  0.41344990457E+03  0.41405960856E+03  0.00000000000E+00 0. -1.
         22    1    3    3    0    0  0.51124927153E+02 -0.75563145314E+02 -0.27966308352E+02  0.95423589898E+02  0.00000000000E+00 0. -1.
         22    1    3    3    0    0 -0.32520080211E+01  0.43334512721E+02  0.64351430340E+01  0.43930247152E+02  0.00000000000E+00 0. -1.
</event>
<event>
 7    1  0.5593520E-006  0.1693109E+03  0.7818608E-02  0.1232200E+00
          2   -1    0    0  502    0  0.00000000000E+00  0.00000000000E+00  0.17909815848E+04  0.17909815848E+04  0.00000000000E+00 0. -1.
          1   -1    0    0  501    0 -0.00000000000E+00 -0.00000000000E+00 -0.60357304478E+02  0.60357304478E+02  0.00000000000E+00 0. -1.
         25    2    1    2    0    0 -0.78936949164E+02  0.76467454245E+02  0.79339315260E+03  0.81066457833E+03  0.12500420184E+03 0.  0.
          2    1    1    2  501    0  0.68103942011E+02 -0.17089147829E+03  0.12386952438E+03  0.22177850062E+03  0.00000000000E+00 0. -1.
          1    1    1    2  502    0  0.10833007153E+02  0.94424024044E+02  0.81336160330E+03  0.81889581028E+03  0.00000000000E+00 0. -1.
         22    1    3    3    0    0  0.22569959909E+02  0.61355069950E+01  0.33849580914E+03  0.33930290353E+03  0.00000000000E+00 0. -1.
         22    1    3    3    0    0 -0.10150690907E+03  0.70331947250E+02  0.45489734345E+03  0.47136167480E+03  0.00000000000E+00 0. -1.
</event>
<event>
 7    1  0.5593520E-006  0.4455391E+02  0.7818608E-02  0.1571661E+00
          2   -1    0    0  502    0  0.00000000000E+00  0.00000000000E+00  0.17278229040E+04  0.17278229040E+04  0.00000000000E+00 0. -1.
          1   -1    0    0  501    0 -0.00000000000E+00 -0.00000000000E+00 -0.25354634812E+03  0.25354634812E+03  0.00000000000E+00 0. -1.
         25    2    1    2    0    0 -0.62664370353E+02 -0.21588315377E+02  0.64243898182E+03  0.65783415641E+03  0.12500021320E+03 0.  0.
          2    1    1    2  501    0  0.20325422395E+02  0.12297938633E+02 -0.24483775310E+03  0.24598757577E+03  0.00000000000E+00 0. -1.
          1    1    1    2  502    0  0.42338947958E+02  0.92903767447E+01  0.10766753272E+04  0.10775475199E+04  0.00000000000E+00 0. -1.
         22    1    3    3    0    0  0.35444209536E+02 -0.24331061607E+02  0.21747640944E+03  0.22168509470E+03  0.00000000000E+00 0.  1.
         22    1    3    3    0    0 -0.98108579890E+02  0.27427462300E+01  0.42496257238E+03  0.43614906171E+03  0.00000000000E+00 0.  1.
</event>
<event>
 7    1  0.5593520E-006  0.2485445E+03  0.7818608E-02  0.1210700E+00
          2   -1    0    0  502    0  0.00000000000E+00  0.00000000000E+00  0.20048290032E+04  0.20048290032E+04  0.00000000000E+00 0. -1.
          1   -1    0    0  501    0 -0.00000000000E+00 -0.00000000000E+00 -0.68463117684E+03  0.68463117684E+03  0.00000000000E+00 0. -1.
         25    2    1    2    0    0  0.16070835588E+02 -0.19645646747E+03 -0.30148987691E+03  0.38128134573E+03  0.12500361336E+03 0.  0.
          2    1    1    2  501    0 -0.64884030996E+02 -0.48648582375E+02 -0.33037510515E+03  0.34018279226E+03  0.00000000000E+00 0. -1.
          1    1    1    2  502    0  0.48813195409E+02  0.24510504984E+03  0.19520628084E+04  0.19679960421E+04  0.00000000000E+00 0. -1.
         22    1    3    3    0    0  0.40542874010E+02 -0.84272051199E+01 -0.35010993605E+02  0.54226488844E+02  0.00000000000E+00 0.  1.
         22    1    3    3    0    0 -0.24472038422E+02 -0.18802926235E+03 -0.26647888330E+03  0.32705485688E+03  0.00000000000E+00 0.  1.
</event>
<event>
 7    1  0.5593520E-006  0.6685579E+02  0.7818608E-02  0.1426769E+00
          2   -1    0    0  502    0  0.00000000000E+00  0.00000000000E+00  0.77135021545E+03  0.77135021545E+03  0.00000000000E+00 0. -1.
          1   -1    0    0  501    0 -0.00000000000E+00 -0.00000000000E+00 -0.68553521675E+03  0.68553521675E+03  0.00000000000E+00 0. -1.
         25    2    1    2    0    0  0.74616653448E+02 -0.71368413664E+02  0.23643757062E+02  0.16384503852E+03  0.12500029584E+03 0.  0.
          2    1    1    2  501    0 -0.16628050683E+02  0.39649425913E+02 -0.61306804752E+03  0.61457383603E+03  0.00000000000E+00 0. -1.
          1    1    1    2  502    0 -0.57988602764E+02  0.31718987752E+02  0.67523928915E+03  0.67846655765E+03  0.00000000000E+00 0. -1.
         22    1    3    3    0    0  0.87721190324E+02 -0.10536362893E+01 -0.23056079702E+01  0.87757809962E+02  0.00000000000E+00 0. -1.
         22    1    3    3    0    0 -0.13104536876E+02 -0.70314777375E+02  0.25949365032E+02  0.76087228558E+02  0.00000000000E+00 0. -1.
</event>
<event>
 7    1  0.5593520E-006  0.8515782E+02  0.7818608E-02  0.1489750E+00
          2   -1    0    0  502    0  0.00000000000E+00  0.00000000000E+00  0.37715018993E+02  0.37715018993E+02  0.00000000000E+00 0. -1.
          1   -1    0    0  501    0 -0.00000000000E+00 -0.00000000000E+00 -0.78263608320E+03  0.78263608320E+03  0.00000000000E+00 0. -1.
         25    2    1    2    0    0 -0.40565415149E+02 -0.68599826128E+02 -0.22120730099E+03  0.26630138869E+03  0.12502907885E+03 0.  0.
          2    1    1    2  501    0  0.13884320717E+02 -0.16197374518E+02 -0.40590201661E+03  0.40646226933E+03  0.00000000000E+00 0. -1.
          1    1    1    2  502    0  0.26681094432E+02  0.84797200646E+02 -0.11781174661E+03  0.14758744417E+03  0.00000000000E+00 0. -1.
         22    1    3    3    0    0  0.55545260289E+01 -0.43097172531E+02 -0.20728694102E+03  0.21179257531E+03  0.00000000000E+00 0. -1.
         22    1    3    3    0    0 -0.46119941178E+02 -0.25502653597E+02 -0.13920359972E+02  0.54508813383E+02  0.00000000000E+00 0. -1.
</event>
<event>
 7    1  0.5593520E-006  0.1712115E+03  0.7818608E-02  0.1193775E+00
          2   -1    0    0  502    0  0.00000000000E+00  0.00000000000E+00  0.26093040991E+03  0.26093040991E+03  0.00000000000E+00 0. -1.
          1   -1    0    0  501    0 -0.00000000000E+00 -0.00000000000E+00 -0.82019886596E+03  0.82019886596E+03  0.00000000000E+00 0. -1.
         25    2    1    2    0    0 -0.11161622175E+03 -0.51114963403E+02 -0.11823981235E+03  0.21136229728E+03  0.12498978776E+03 0.  0.
          2    1    1    2  501    0  0.49374082144E+02 -0.13248123420E+03 -0.60163308074E+03  0.61802220126E+03  0.00000000000E+00 0. -1.
          1    1    1    2  502    0  0.62242139608E+02  0.18359619760E+03  0.16060443705E+03  0.25174477734E+03  0.00000000000E+00 0. -1.
         22    1    3    3    0    0 -0.14127057436E+02  0.36318454275E+02 -0.50914184691E+02  0.64115973637E+02  0.00000000000E+00 0.  1.
         22    1    3    3    0    0 -0.97489164316E+02 -0.87433417678E+02 -0.67325627657E+02  0.14724632364E+03  0.00000000000E+00 0.  1.
</event>
<event>
 7    1  0.5593520E-006  0.8815854E+02  0.7818608E-02  0.1315383E+00
          2   -1    0    0  502    0  0.00000000000E+00  0.00000000000E+00  0.65636125814E+03  0.65636125814E+03  0.00000000000E+00 0. -1.
          1   -1    0    0  501    0 -0.00000000000E+00 -0.00000000000E+00 -0.70203392865E+03  0.70203392865E+03  0.00000000000E+00 0. -1.
         25    2    1    2    0    0 -0.38721446522E+02 -0.14143042294E+03 -0.41270415397E+01  0.19272972274E+03  0.12500319436E+03 0.  0.
          2    1    1    2  501    0 -0.20190590065E+02  0.84404456397E+02 -0.59746350696E+03  0.60373372800E+03  0.00000000000E+00 0. -1.
          1    1    1    2  502    0  0.58912036587E+02  0.57025966541E+02  0.55591787799E+03  0.56193173605E+03  0.00000000000E+00 0. -1.
         22    1    3    3    0    0  0.62729584886E+01  0.78800194735E+01 -0.32678010904E+02  0.34194986646E+02  0.00000000000E+00 0.  1.
         22    1    3    3    0    0 -0.44994405011E+02 -0.14931044241E+03  0.28550969364E+02  0.15853473609E+03  0.00000000000E+00 0.  1.
</event>
<event>
 7    1  0.5593520E-006  0.1445775E+03  0.7818608E-02  0.1293975E+00
          2   -1    0    0  502    0  0.00000000000E+00  0.00000000000E+00  0.24078689245E+04  0.24078689245E+04  0.00000000000E+00 0. -1.
          1   -1    0    0  501    0 -0.00000000000E+00 -0.00000000000E+00 -0.17036182790E+04  0.17036182790E+04  0.00000000000E+00 0. -1.
         25    2    1    2    0    0 -0.12114827617E+03  0.15478499157E+03  0.26047909380E+03  0.34944183026E+03  0.12499974399E+03 0.  0.
          2    1    1    2  501    0  0.52589851664E+02 -0.30540420892E+02 -0.16561842478E+04  0.16573004171E+04  0.00000000000E+00 0. -1.
          1    1    1    2  502    0  0.68558424502E+02 -0.12424457068E+03  0.20999557994E+04  0.21047449562E+04  0.00000000000E+00 0. -1.
         22    1    3    3    0    0 -0.84669692635E+02  0.17000174040E+02  0.67908431182E+02  0.10986135715E+03  0.00000000000E+00 0. -1.
         22    1    3    3    0    0 -0.36478583531E+02  0.13778481753E+03  0.19257066262E+03  0.23958047312E+03  0.00000000000E+00 0. -1.
</event>
<event>
 7    1  0.5593520E-006  0.1939394E+03  0.7818608E-02  0.1264232E+00
          2   -1    0    0  502    0  0.00000000000E+00  0.00000000000E+00  0.40548261743E+04  0.40548261743E+04  0.00000000000E+00 0. -1.
          1   -1    0    0  501    0 -0.00000000000E+00 -0.00000000000E+00 -0.52085702285E+02  0.52085702285E+02  0.00000000000E+00 0. -1.
         25    2    1    2    0    0  0.18083019740E+03 -0.13120955349E+03  0.40431783834E+03  0.47855299477E+03  0.12499818873E+03 0.  0.
          2    1    1    2  501    0 -0.13555141709E+03  0.91546844592E+02  0.44091641879E+03  0.47027895955E+03  0.00000000000E+00 0. -1.
          1    1    1    2  502    0 -0.45278780305E+02  0.39662708894E+02  0.31575062149E+04  0.31580799223E+04  0.00000000000E+00 0. -1.
         22    1    3    3    0    0  0.53072616467E+02 -0.67018056689E+02  0.56437301499E+02  0.10243676850E+03  0.00000000000E+00 0.  1.
         22    1    3    3    0    0  0.12775758093E+03 -0.64191496797E+02  0.34788053684E+03  0.37611622627E+03  0.00000000000E+00 0.  1.
</event>
<event>
 7    1  0.5593520E-006  0.1051714E+03  0.7818608E-02  0.1368293E+00
          2   -1    0    0  502    0  0.00000000000E+00  0.00000000000E+00  0.65300159554E+03  0.65300159554E+03  0.00000000000E+00 0. -1.
          1   -1    0    0  501    0 -0.00000000000E+00 -0.00000000000E+00 -0.93240291579E+03  0.93240291579E+03  0.00000000000E+00 0. -1.
         25    2    1    2    0    0 -0.10707661135E+03 -0.94253875200E+02  0.26687133047E+03  0.32740925386E+03  0.12500927485E+03 0.  0.
          2    1    1    2  501    0  0.89571243783E+02  0.54423725588E+02 -0.89774398667E+03  0.90384136618E+03  0.00000000000E+00 0. -1.
          1    1    1    2  502    0  0.17505367564E+02  0.39830149613E+02  0.35147133596E+03  0.35415389129E+03  0.00000000000E+00 0. -1.
         22    1    3    3    0    0 -0.69207577881E+02 -0.60499546495E+02  0.26054756905E+03  0.27628774801E+03  0.00000000000E+00 0.  1.
         22    1    3    3    0    0 -0.37869033466E+02 -0.33754328705E+02  0.63237614216E+01  0.51121505851E+02  0.00000000000E+00 0.  1.
</event>
<event>
 7    1  0.5593520E-006  0.8428440E+02  0.7818608E-02  0.1408067E+00
          2   -1    0    0  502    0  0.00000000000E+00  0.00000000000E+00  0.65551342902E+03  0.65551342902E+03  0.00000000000E+00 0. -1.
          1   -1    0    0  501    0 -0.00000000000E+00 -0.00000000000E+00 -0.15036763520E+04  0.15036763520E+04  0.00000000000E+00 0. -1.
         25    2    1    2    0    0  0.50519655890E+02  0.28063006360E+02 -0.48551403481E+02  0.14602148811E+03  0.12500107300E+03 0.  0.
          2    1    1    2  501    0  0.16262202195E+01  0.39367826233E+02 -0.14031182603E+04  0.14036713727E+04  0.00000000000E+00 0. -1.
          1    1    1    2  502    0 -0.52145876110E+02 -0.67430832593E+02  0.60350674076E+03  0.60949692019E+03  0.00000000000E+00 0. -1.
         22    1    3    3    0    0  0.71265188960E+02  0.61797199065E+02 -0.49254558936E+02  0.10641255821E+03  0.00000000000E+00 0.  1.
         22    1    3    3    0    0 -0.20745533069E+02 -0.33734192705E+02  0.70315545516E+00  0.39608929894E+02  0.00000000000E+00 0.  1.
</event>
<event>
 7    1  0.5593520E-006  0.5092561E+02  0.7818608E-02  0.1459745E+00
          2   -1    0    0  502    0  0.00000000000E+00  0.00000000000E+00  0.45034115554E+03  0.45034115554E+03  0.00000000000E+00 0. -1.
          1   -1    0    0  501    0 -0.00000000000E+00 -0.00000000000E+00 -0.87734110146E+03  0.87734110146E+03  0.00000000000E+00 0. -1.
         25    2    1    2    0    0  0.32455213367E+02 -0.41434726944E+02  0.17437468089E+03  0.22091118181E+03  0.12500017376E+03 0.  0.
          2    1    1    2  501    0 -0.50974908004E+02  0.13395483523E+01 -0.85137437602E+03  0.85290009015E+03  0.00000000000E+00 0. -1.
          1    1    1    2  502    0  0.18519694636E+02  0.40095178592E+02  0.24999974922E+03  0.25387098504E+03  0.00000000000E+00 0. -1.
         22    1    3    3    0    0  0.60242653458E+02 -0.48896825446E+02  0.17574114149E+03  0.19210680791E+03  0.00000000000E+00 0.  1.
         22    1    3    3    0    0 -0.27787440091E+02  0.74620985015E+01 -0.13664606017E+01  0.28804373894E+02  0.00000000000E+00 0.  1.
</event>
<event>
 7    1  0.5593520E-006  0.9856536E+02  0.7818608E-02  0.1349312E+00
          2   -1    0    0  502    0  0.00000000000E+00  0.00000000000E+00  0.64217739861E+03  0.64217739861E+03  0.00000000000E+00 0. -1.
          1   -1    0    0  501    0 -0.00000000000E+00 -0.00000000000E+00 -0.10829209468E+03  0.10829209468E+03  0.00000000000E+00 0. -1.
         25    2    1    2    0    0 -0.47223871420E+02 -0.36358101375E+02  0.20633594813E+03  0.24850271546E+03  0.12500828186E+03 0.  0.
          2    1    1    2  501    0 -0.34433825567E+02 -0.42201661294E+02 -0.69937181397E+02  0.88644672152E+02  0.00000000000E+00 0. -1.
          1    1    1    2  502    0  0.81657696987E+02  0.78559762669E+02  0.39748653720E+03  0.41332210568E+03  0.00000000000E+00 0. -1.
         22    1    3    3    0    0  0.19101246211E+02  0.27795536674E+02  0.11021111982E+03  0.11525597771E+03  0.00000000000E+00 0. -1.
         22    1    3    3    0    0 -0.66325117630E+02 -0.64153638049E+02  0.96124828309E+02  0.13324673775E+03  0.00000000000E+00 0. -1.
</event>
<event>
 7    1  0.5593520E-006  0.3969773E+02  0.7818608E-02  0.1536755E+00
          2   -1    0    0  502    0  0.00000000000E+00  0.00000000000E+00  0.65001121766E+03  0.65001121766E+03  0.00000000000E+00 0. -1.
          1   -1    0    0  501    0 -0.00000000000E+00 -0.00000000000E+00 -0.17823762183E+04  0.17823762183E+04  0.00000000000E+00 0. -1.
         25    2    1    2    0    0  0.42034795423E+01 -0.70374997290E+01 -0.36459889637E+02  0.13047276904E+03  0.12500649690E+03 0.  0.
          2    1    1    2  501    0 -0.35896190984E+02  0.17331391222E+02 -0.16982154753E+04  0.16986832295E+04  0.00000000000E+00 0. -1.
          1    1    1    2  502    0  0.31692711441E+02 -0.10293891493E+02  0.60231036429E+03  0.60323143742E+03  0.00000000000E+00 0. -1.
         22    1    3    3    0    0  0.25854324957E+02 -0.61436663367E+02 -0.21591879235E+02  0.70065105249E+02  0.00000000000E+00 0.  1.
         22    1    3    3    0    0 -0.21650845415E+02  0.54399163638E+02 -0.14868010401E+02  0.60407663793E+02  0.00000000000E+00 0.  1.
</event>
<event>
 7    1  0.5593520E-006  0.8391124E+02  0.7818608E-02  0.1444592E+00
          2   -1    0    0  502    0  0.00000000000E+00  0.00000000000E+00  0.10193233780E+03  0.10193233780E+03  0.00000000000E+00 0. -1.
          1   -1    0    0  501    0 -0.00000000000E+00 -0.00000000000E+00 -0.35708584628E+03  0.35708584628E+03  0.00000000000E+00 0. -1.
         25    2    1    2    0    0  0.11977773399E+02 -0.76567011266E+02 -0.11948616202E+03  0.18949394503E+03  0.12500015206E+03 0.  0.
          2    1    1    2  501    0 -0.41928682229E+02  0.75851087108E+02 -0.18924070784E+03  0.20814285314E+03  0.00000000000E+00 0. -1.
          1    1    1    2  502    0  0.29950908830E+02  0.71592415862E+00  0.53573361387E+02  0.61381385920E+02  0.00000000000E+00 0. -1.
         22    1    3    3    0    0 -0.43813056786E+02 -0.68628896565E+02 -0.36610000860E+02  0.89273745030E+02  0.00000000000E+00 0.  1.
         22    1    3    3    0    0  0.55790830185E+02 -0.79381147010E+01 -0.82876161164E+02  0.10022019999E+03  0.00000000000E+00 0.  1.
</event>
<event>
 7    1  0.5593520E-006  0.1484225E+03  0.7818608E-02  0.1214867E+00
          2   -1    0    0  502    0  0.00000000000E+00  0.00000000000E+00  0.18450032839E+04  0.18450032839E+04  0.00000000000E+00 0. -1.
          1   -1    0    0  501    0 -0.00000000000E+00 -0.00000000000E+00 -0.65772803944E+02  0.65772803944E+02  0.00000000000E+00 0. -1.
         25    2    1    2    0    0  0.88918207024E+02 -0.22786293278E+02  0.22629414830E+03  0.27431957511E+03  0.12496609551E+03 0.  0.
          2    1    1    2  501    0 -0.15177081428E+03 -0.11167110658E+03  0.19768127564E+03  0.27309833916E+03  0.00000000000E+00 0. -1.
          1    1    1    2  502    0  0.62852607258E+02  0.13445739986E+03  0.13552550560E+04  0.13633581736E+04  0.00000000000E+00 0. -1.
         22    1    3    3    0    0  0.49748596486E+01 -0.30277523049E+02  0.17051951633E+03  0.17325814001E+03  0.00000000000E+00 0. -1.
         22    1    3    3    0    0  0.83943347375E+02  0.74912297707E+01  0.55774631978E+02  0.10106143510E+03  0.00000000000E+00 0. -1.
</event>
<event>
 7    1  0.5593520E-006  0.1262043E+03  0.7818608E-02  0.1336759E+00
          2   -1    0    0  502    0  0.00000000000E+00  0.00000000000E+00  0.21582758410E+03  0.21582758410E+03  0.00000000000E+00 0. -1.
          1   -1    0    0  501    0 -0.00000000000E+00 -0.00000000000E+00 -0.24572966921E+04  0.24572966921E+04  0.00000000000E+00 0. -1.
         25    2    1    2    0    0 -0.16209604281E+03 -0.69036560841E+00 -0.70925139325E+02  0.21663513663E+03  0.12499921333E+03 0.  0.
          2    1    1    2  501    0  0.43347862198E+02  0.19179365294E+02 -0.22879728376E+04  0.22884638059E+04  0.00000000000E+00 0. -1.
          1    1    1    2  502    0  0.11874818061E+03 -0.18488999685E+02  0.11742886892E+03  0.16802533370E+03  0.00000000000E+00 0. -1.
         22    1    3    3    0    0 -0.96709652310E+02  0.61063137338E+02 -0.33108225478E+02  0.11906980384E+03  0.00000000000E+00 0.  1.
         22    1    3    3    0    0 -0.65386390503E+02 -0.61753502946E+02 -0.37816913847E+02  0.97565332788E+02  0.00000000000E+00 0.  1.
</event>
<event>
 7    1  0.5593520E-006  0.1167746E+03  0.7818608E-02  0.1278041E+00
          2   -1    0    0  502    0  0.00000000000E+00  0.00000000000E+00  0.44779554579E+03  0.44779554579E+03  0.00000000000E+00 0. -1.
          1   -1    0    0  501    0 -0.00000000000E+00 -0.00000000000E+00 -0.37088164660E+03  0.37088164660E+03  0.00000000000E+00 0. -1.
         25    2    1    2    0    0 -0.17318499983E+03  0.68195970131E+02 -0.37188330389E+01  0.22425046354E+03  0.12502282260E+03 0.  0.
          2    1    1    2  501    0  0.85692985790E+02 -0.68934655003E+02 -0.23897070608E+03  0.26306324874E+03  0.00000000000E+00 0. -1.
          1    1    1    2  502    0  0.87492014044E+02  0.73868487205E+00  0.31960343830E+03  0.33136348011E+03  0.00000000000E+00 0. -1.
         22    1    3    3    0    0  0.59129436981E+01 -0.23335521480E+00 -0.30137895578E+02  0.30713353899E+02  0.00000000000E+00 0. -1.
         22    1    3    3    0    0 -0.17909794353E+03  0.68429325346E+02  0.26419062539E+02  0.19353710965E+03  0.00000000000E+00 0. -1.
</event>
<event>
 7    1  0.5593520E-006  0.8268892E+02  0.7818608E-02  0.1341105E+00
          2   -1    0    0  502    0  0.00000000000E+00  0.00000000000E+00  0.17930437900E+04  0.17930437900E+04  0.00000000000E+00 0. -1.
          1   -1    0    0  501    0 -0.00000000000E+00 -0.00000000000E+00 -0.82687824882E+03  0.82687824882E+03  0.00000000000E+00 0. -1.
         25    2    1    2    0    0 -0.38534202245E+02 -0.11817153007E+03  0.15110330936E+03  0.23217817794E+03  0.12500040380E+03 0.  0.
          2    1    1    2  501    0 -0.19762988898E+02  0.80024175867E+02 -0.78341981830E+03  0.78774428348E+03  0.00000000000E+00 0. -1.
          1    1    1    2  502    0  0.58297191143E+02  0.38147354204E+02  0.15984820502E+04  0.15999995774E+04  0.00000000000E+00 0. -1.
         22    1    3    3    0    0 -0.45135542385E+02 -0.42471404880E+02  0.14288565986E+03  0.15574771013E+03  0.00000000000E+00 0. -1.
         22    1    3    3    0    0  0.66013401395E+01 -0.75700125191E+02  0.82176494981E+01  0.76430467804E+02  0.00000000000E+00 0. -1.
</event>
<event>
 7    1  0.5593520E-006  0.4324899E+02  0.7818608E-02  0.1577730E+00
          2   -1    0    0  502    0  0.00000000000E+00  0.00000000000E+00  0.74190415427E+03  0.74190415427E+03  0.00000000000E+00 0. -1.
          1   -1    0    0  501    0 -0.00000000000E+00 -0.00000000000E+00 -0.84178460702E+03  0.84178460702E+03  0.00000000000E+00 0. -1.
         25    2    1    2    0    0 -0.12137138843E+02  0.27817003104E+02 -0.21383814176E+02  0.13039750659E+03  0.12500058566E+03 0.  0.
          2    1    1    2  501    0 -0.58452816752E+01 -0.43049390580E+02 -0.76507552831E+03  0.76630801990E+03  0.00000000000E+00 0. -1.
          1    1    1    2  502    0  0.17982420518E+02  0.15232387476E+02  0.68657888973E+03  0.68698323480E+03  0.00000000000E+00 0. -1.
         22    1    3    3    0    0 -0.41901489614E+02 -0.23980980024E+02 -0.45151913833E+02  0.66102326416E+02  0.00000000000E+00 0. -1.
         22    1    3    3    0    0  0.29764350771E+02  0.51797983128E+02  0.23768099656E+02  0.64295180179E+02  0.00000000000E+00 0. -1.
</event>
<event>
 7    1  0.5593520E-006  0.1660846E+03  0.7818608E-02  0.1338386E+00
          2   -1    0    0  502    0  0.00000000000E+00  0.00000000000E+00  0.12291825834E+04  0.12291825834E+04  0.00000000000E+00 0. -1.
          1   -1    0    0  501    0 -0.00000000000E+00 -0.00000000000E+00 -0.78091886727E+03  0.78091886727E+03  0.00000000000E+00 0. -1.
         25    2    1    2    0    0  0.80566241468E+02 -0.12300689047E+03 -0.95286428399E+02  0.21523362794E+03  0.12499758715E+03 0.  0.
          2    1    1    2  501    0 -0.16846384123E+02 -0.31263574161E+02 -0.61919051324E+03  0.62020811298E+03  0.00000000000E+00 0. -1.
          1    1    1    2  502    0 -0.63719857345E+02  0.15427046463E+03  0.11627406578E+04  0.11746597097E+04  0.00000000000E+00 0. -1.
         22    1    3    3    0    0  0.35575891309E+02  0.15122136622E+02  0.46090728552E+01  0.38930278846E+02  0.00000000000E+00 0.  1.
         22    1    3    3    0    0  0.44990350159E+02 -0.13812902709E+03 -0.99895501254E+02  0.17630334910E+03  0.00000000000E+00 0.  1.
</event>
<event>
 7    1  0.5593520E-006  0.2788275E+03  0.7818608E-02  0.1329744E+00
          2   -1    0    0  502    0  0.00000000000E+00  0.00000000000E+00  0.56777091015E+02  0.56777091015E+02  0.00000000000E+00 0. -1.
          1   -1    0    0  501    0 -0.00000000000E+00 -0.00000000000E+00 -0.33287439015E+04  0.33287439015E+04  0.00000000000E+00 0. -1.
         25    2    1    2    0    0  0.25398250637E+03 -0.84570706398E+02 -0.60276216448E+03  0.67126987198E+03  0.12498678397E+03 0.  0.
          2    1    1    2  501    0 -0.26040992996E+03  0.10646022705E+03 -0.26757641874E+04  0.26905131663E+04  0.00000000000E+00 0. -1.
          1    1    1    2  502    0  0.64274235921E+01 -0.21889520654E+02  0.65595413770E+01  0.23737954242E+02  0.00000000000E+00 0. -1.
         22    1    3    3    0    0  0.57596809227E+02  0.10140887001E+02 -0.49580114815E+02  0.76670840659E+02  0.00000000000E+00 0.  1.
         22    1    3    3    0    0  0.19638569714E+03 -0.94711593399E+02 -0.55318204967E+03  0.59459903132E+03  0.00000000000E+00 0.  1.
</event>
<event>
 7    1  0.5593520E-006  0.5116002E+02  0.7818608E-02  0.1465729E+00
          2   -1    0    0  502    0  0.00000000000E+00  0.00000000000E+00  0.12999475670E+03  0.12999475670E+03  0.00000000000E+00 0. -1.
          1   -1    0    0  501    0 -0.00000000000E+00 -0.00000000000E+00 -0.10961925932E+04  0.10961925932E+04  0.00000000000E+00 0. -1.
         25    2    1    2    0    0  0.45484639659E+02 -0.76395563525E+02 -0.19721627942E+03  0.24984681625E+03  0.12499614453E+03 0.  0.
          2    1    1    2  501    0 -0.99889887204E+01  0.40897914351E+02 -0.86604310943E+03  0.86706579143E+03  0.00000000000E+00 0. -1.
          1    1    1    2  502    0 -0.35495650939E+02  0.35497649173E+02  0.97061552374E+02  0.10927474219E+03  0.00000000000E+00 0. -1.
         22    1    3    3    0    0  0.37150806561E+02 -0.10961570917E+02 -0.17651089331E+03  0.18071091257E+03  0.00000000000E+00 0.  1.
         22    1    3    3    0    0  0.83338330982E+01 -0.65433992608E+02 -0.20705386108E+02  0.69135903672E+02  0.00000000000E+00 0.  1.
</event>
<event>
 7    1  0.6145557E-006  0.6828188E+02  0.7818608E-02  0.1412951E+00
          2   -1    0    0  502    0  0.00000000000E+00  0.00000000000E+00  0.64226073824E+03  0.64226073824E+03  0.00000000000E+00 0. -1.
          1   -1    0    0  501    0 -0.00000000000E+00 -0.00000000000E+00 -0.23216256525E+04  0.23216256525E+04  0.00000000000E+00 0. -1.
         25    2    1    2    0    0  0.45335672904E+02  0.89919678653E+01 -0.44584934423E+03  0.46534268720E+03  0.12500400015E+03 0.  0.
          2    1    1    2  501    0 -0.43201035288E+02 -0.55761297343E+02 -0.18644954480E+04  0.18658292867E+04  0.00000000000E+00 0. -1.
          1    1    1    2  502    0 -0.21346376154E+01  0.46769329478E+02  0.63097987795E+03  0.63271441680E+03  0.00000000000E+00 0. -1.
         22    1    3    3    0    0  0.71313949206E+02  0.21978166256E+01 -0.12948399313E+03  0.14783982625E+03  0.00000000000E+00 0.  1.
         22    1    3    3    0    0 -0.25978276303E+02  0.67941512397E+01 -0.31636535110E+03  0.31750286095E+03  0.00000000000E+00 0.  1.
</event>
<event>
 7    1  0.5593520E-006  0.8118669E+02  0.7818608E-02  0.1486116E+00
          2   -1    0    0  502    0  0.00000000000E+00  0.00000000000E+00  0.63242245546E+03  0.63242245546E+03  0.00000000000E+00 0. -1.
          1   -1    0    0  501    0 -0.00000000000E+00 -0.00000000000E+00 -0.79565806569E+02  0.79565806569E+02  0.00000000000E+00 0. -1.
         25    2    1    2    0    0  0.74914253560E+02 -0.42350060613E+02  0.18153160286E+03  0.23661094081E+03  0.12500136580E+03 0.  0.
          2    1    1    2  501    0 -0.57290026537E+02  0.57054145563E+02 -0.20071950775E+02  0.83307898032E+02  0.00000000000E+00 0. -1.
          1    1    1    2  502    0 -0.17624227023E+02 -0.14704084950E+02  0.39139699681E+03  0.39206942319E+03  0.00000000000E+00 0. -1.
         22    1    3    3    0    0  0.19061890784E+02 -0.20105818304E+02  0.17380279000E+03  0.17599718584E+03  0.00000000000E+00 0.  1.
         22    1    3    3    0    0  0.55852362777E+02 -0.22244242308E+02  0.77288128603E+01  0.60613754973E+02  0.00000000000E+00 0.  1.
</event>
<event>
 7    1  0.5593520E-006  0.4096577E+02  0.7818608E-02  0.1503562E+00
          2   -1    0    0  502    0  0.00000000000E+00  0.00000000000E+00  0.28499759487E+04  0.28499759487E+04  0.00000000000E+00 0. -1.
          1   -1    0    0  501    0 -0.00000000000E+00 -0.00000000000E+00 -0.43080569485E+02  0.43080569485E+02  0.00000000000E+00 0. -1.
         25    2    1    2    0    0 -0.69919156003E+01 -0.18794669871E+02  0.45232762386E+03  0.46971000249E+03  0.12500032254E+03 0.  0.
          2    1    1    2  501    0 -0.33659170013E+02  0.23862553054E+02 -0.21773351014E+02  0.46652330902E+02  0.00000000000E+00 0. -1.
          1    1    1    2  502    0  0.40651085613E+02 -0.50678831831E+01  0.23763411063E+04  0.23766941848E+04  0.00000000000E+00 0. -1.
         22    1    3    3    0    0 -0.45668563329E+01 -0.70637770876E+02  0.31615416128E+03  0.32398148797E+03  0.00000000000E+00 0. -1.
         22    1    3    3    0    0 -0.24250592674E+01  0.51843101005E+02  0.13617346258E+03  0.14572851452E+03  0.00000000000E+00 0. -1.
</event>
<event>
 7    1  0.5593520E-006  0.7749883E+02  0.7818608E-02  0.1359783E+00
          2   -1    0    0  502    0  0.00000000000E+00  0.00000000000E+00  0.16590987835E+04  0.16590987835E+04  0.00000000000E+00 0. -1.
          1   -1    0    0  501    0 -0.00000000000E+00 -0.00000000000E+00 -0.68868059656E+03  0.68868059656E+03  0.00000000000E+00 0. -1.
         25    2    1    2    0    0 -0.42247174028E+02 -0.15319029223E+02  0.47775245534E+03  0.49587693599E+03  0.12500812250E+03 0.  0.
          2    1    1    2  501    0  0.63904541953E+02 -0.44258241219E+02 -0.67653414995E+03  0.68098534378E+03  0.00000000000E+00 0. -1.
          1    1    1    2  502    0 -0.21657367925E+02  0.59577270442E+02  0.11691998815E+04  0.11709171003E+04  0.00000000000E+00 0. -1.
         22    1    3    3    0    0 -0.72779943779E+02  0.26573398747E+02  0.33941190641E+03  0.34814294183E+03  0.00000000000E+00 0.  1.
         22    1    3    3    0    0  0.30532769751E+02 -0.41892427970E+02  0.13834054893E+03  0.14773399415E+03  0.00000000000E+00 0.  1.
</event>
<event>
 7    1  0.5593520E-006  0.1407909E+03  0.7818608E-02  0.1308936E+00
          2   -1    0    0  502    0  0.00000000000E+00  0.00000000000E+00  0.87809938277E+03  0.87809938277E+03  0.00000000000E+00 0. -1.
          1   -1    0    0  501    0 -0.00000000000E+00 -0.00000000000E+00 -0.15384710386E+03  0.15384710386E+03  0.00000000000E+00 0. -1.
         25    2    1    2    0    0  0.10712756320E+03  0.34528555269E+02  0.85126335866E+02  0.18851640099E+03  0.12499361767E+03 0.  0.
          2    1    1    2  501    0  0.38363480455E+02 -0.38601326576E+02 -0.87131723485E+02  0.10273147660E+03  0.00000000000E+00 0. -1.
          1    1    1    2  502    0 -0.14549104366E+03  0.40727713070E+01  0.72625766653E+03  0.74069860904E+03  0.00000000000E+00 0. -1.
         22    1    3    3    0    0  0.70525309800E+02  0.76030619918E+02  0.83523573573E+02  0.13315653131E+03  0.00000000000E+00 0.  1.
         22    1    3    3    0    0  0.36602253402E+02 -0.41502064649E+02  0.16027622931E+01  0.55359869682E+02  0.00000000000E+00 0.  1.
</event>
<event>
 7    1  0.1399031E-005  0.8160484E+02  0.7818608E-02  0.1360490E+00
          2   -1    0    0  502    0  0.00000000000E+00  0.00000000000E+00  0.15951821924E+04  0.15951821924E+04  0.00000000000E+00 0. -1.
          1   -1    0    0  501    0 -0.00000000000E+00 -0.00000000000E+00 -0.17167609888E+04  0.17167609888E+04  0.00000000000E+00 0. -1.
         25    2    1    2    0    0 -0.55237556398E+02 -0.54712089344E+02 -0.21768612788E+03  0.26278704965E+03  0.12500073134E+03 0.  0.
          2    1    1    2  501    0  0.24094075718E+01  0.82830643647E+02 -0.14747915376E+04  0.14771177340E+04  0.00000000000E+00 0. -1.
          1    1    1    2  502    0  0.52828148826E+02 -0.28118554303E+02  0.15708988691E+04  0.15720383975E+04  0.00000000000E+00 0. -1.
         22    1    3    3    0    0 -0.56580142697E+02 -0.84603048895E+02 -0.10514702909E+03  0.14633825937E+03  0.00000000000E+00 0.  1.
         22    1    3    3    0    0  0.13425862989E+01  0.29890959551E+02 -0.11253909879E+03  0.11644879028E+03  0.00000000000E+00 0.  1.
</event>
<event>
 7    1  0.5593520E-006  0.4300410E+02  0.7818608E-02  0.1573968E+00
          2   -1    0    0  502    0  0.00000000000E+00  0.00000000000E+00  0.95058925525E+03  0.95058925525E+03  0.00000000000E+00 0. -1.
          1   -1    0    0  501    0 -0.00000000000E+00 -0.00000000000E+00 -0.88957781213E+02  0.88957781213E+02  0.00000000000E+00 0. -1.
         25    2    1    2    0    0 -0.18484410128E+00 -0.20490442891E+02  0.57285617097E+03  0.58669404189E+03  0.12500325499E+03 0.  0.
          2    1    1    2  501    0 -0.11770278343E+02  0.41601452674E+02 -0.75911527599E+02  0.87360061466E+02  0.00000000000E+00 0. -1.
          1    1    1    2  502    0  0.11955122444E+02 -0.21111009783E+02  0.36468683067E+03  0.36549293311E+03  0.00000000000E+00 0. -1.
         22    1    3    3    0    0 -0.26107315556E+02  0.35335329578E+02  0.92418263982E+02  0.10232943350E+03  0.00000000000E+00 0. -1.
         22    1    3    3    0    0  0.25922471455E+02 -0.55825772469E+02  0.48043790698E+03  0.48436460839E+03  0.00000000000E+00 0. -1.
</event>
<event>
 7    1  0.5593520E-006  0.5070349E+02  0.7818608E-02  0.1495989E+00
          2   -1    0    0  502    0  0.00000000000E+00  0.00000000000E+00  0.32477137236E+04  0.32477137236E+04  0.00000000000E+00 0. -1.
          1   -1    0    0  501    0 -0.00000000000E+00 -0.00000000000E+00 -0.77304265636E+01  0.77304265636E+01  0.00000000000E+00 0. -1.
         25    2    1    2    0    0 -0.43420738732E+02 -0.25219296046E+02  0.14953007688E+04  0.15013559928E+04  0.12499621908E+03 0.  0.
          2    1    1    2  501    0  0.51130424127E+02 -0.82157988591E+01  0.14384551302E+03  0.15288345639E+03  0.00000000000E+00 0. -1.
          1    1    1    2  502    0 -0.77096853954E+01  0.33435094905E+02  0.16008370153E+04  0.16012047009E+04  0.00000000000E+00 0. -1.
         22    1    3    3    0    0  0.10880239273E+02 -0.29692927169E+02  0.97635532629E+02  0.10262917111E+03  0.00000000000E+00 0. -1.
         22    1    3    3    0    0 -0.54300978005E+02  0.44736311236E+01  0.13976652361E+04  0.13987268217E+04  0.00000000000E+00 0. -1.
</event>
<event>
 7    1  0.5593520E-006  0.7239931E+02  0.7818608E-02  0.1440036E+00
          2   -1    0    0  502    0  0.00000000000E+00  0.00000000000E+00  0.10097456728E+04  0.10097456728E+04  0.00000000000E+00 0. -1.
          1   -1    0    0  501    0 -0.00000000000E+00 -0.00000000000E+00 -0.92263525622E+03  0.92263525622E+03  0.00000000000E+00 0. -1.
         25    2    1    2    0    0  0.81209811768E+02 -0.31900386790E+02  0.15318528814E+03  0.21610157810E+03  0.12498596461E+03 0.  0.
          2    1    1    2  501    0 -0.30406835934E+02 -0.19125725396E+02 -0.88924289841E+03  0.88996814629E+03  0.00000000000E+00 0. -1.
          1    1    1    2  502    0 -0.50802975834E+02  0.51026112186E+02  0.82316802684E+03  0.82631120462E+03  0.00000000000E+00 0. -1.
         22    1    3    3    0    0  0.97177228823E+02  0.17697801638E+02  0.11442282785E+03  0.15115954987E+03  0.00000000000E+00 0.  1.
         22    1    3    3    0    0 -0.15967417055E+02 -0.49598188428E+02  0.38762460295E+02  0.64942028232E+02  0.00000000000E+00 0.  1.
</event>
<event>
 7    1  0.5593520E-006  0.2679120E+03  0.7818608E-02  0.1296369E+00
          2   -1    0    0  502    0  0.00000000000E+00  0.00000000000E+00  0.23024240856E+03  0.23024240856E+03  0.00000000000E+00 0. -1.
          1   -1    0    0  501    0 -0.00000000000E+00 -0.00000000000E+00 -0.93330914884E+03  0.93330914884E+03  0.00000000000E+00 0. -1.
         25    2    1    2    0    0  0.24109953454E+03 -0.40231091190E+01 -0.31628206458E+02  0.27344214290E+03  0.12500036443E+03 0.  0.
          2    1    1    2  501    0 -0.27318067945E+03  0.50250505756E+01 -0.75375974810E+03  0.80175226387E+03  0.00000000000E+00 0. -1.
          1    1    1    2  502    0  0.32081144913E+02 -0.10019414565E+01  0.82321214280E+02  0.88357150623E+02  0.00000000000E+00 0. -1.
         22    1    3    3    0    0  0.22060169492E+03 -0.45314228778E+02 -0.31061783358E+02  0.22733966111E+03  0.00000000000E+00 0.  1.
         22    1    3    3    0    0  0.20497839624E+02  0.41291119659E+02 -0.56642310022E+00  0.46102481789E+02  0.00000000000E+00 0.  1.
</event>
<event>
 7    1  0.5593520E-006  0.5624623E+02  0.7818608E-02  0.1524201E+00
          2   -1    0    0  502    0  0.00000000000E+00  0.00000000000E+00  0.21808980234E+04  0.21808980234E+04  0.00000000000E+00 0. -1.
          1   -1    0    0  501    0 -0.00000000000E+00 -0.00000000000E+00 -0.41796114008E+02  0.41796114008E+02  0.00000000000E+00 0. -1.
         25    2    1    2    0    0  0.21289031399E+02  0.70263402749E+02  0.29203708213E+03  0.32603928936E+03  0.12500316894E+03 0.  0.
          2    1    1    2  501    0 -0.95815452287E+00 -0.54792484728E+02  0.56818236582E+01  0.55094623720E+02  0.00000000000E+00 0. -1.
          1    1    1    2  502    0 -0.20330876877E+02 -0.15470918021E+02  0.18413830037E+04  0.18415602244E+04  0.00000000000E+00 0. -1.
         22    1    3    3    0    0  0.20911227668E+02  0.99490792147E+02  0.15119907238E+03  0.18220004570E+03  0.00000000000E+00 0. -1.
         22    1    3    3    0    0  0.37780373180E+00 -0.29227389398E+02  0.14083800975E+03  0.14383924366E+03  0.00000000000E+00 0. -1.
</event>
<event>
 7    1  0.5593520E-006  0.4413075E+02  0.7818608E-02  0.1519677E+00
          2   -1    0    0  502    0  0.00000000000E+00  0.00000000000E+00  0.94955326467E+03  0.94955326467E+03  0.00000000000E+00 0. -1.
          1   -1    0    0  501    0 -0.00000000000E+00 -0.00000000000E+00 -0.45107360263E+02  0.45107360263E+02  0.00000000000E+00 0. -1.
         25    2    1    2    0    0  0.74676534423E+02  0.39433781072E+00  0.31071744264E+03  0.34315016543E+03  0.12501986473E+03 0.  0.
          2    1    1    2  501    0 -0.32584828067E+02 -0.80272397846E+01 -0.18140311434E+02  0.38148112635E+02  0.00000000000E+00 0. -1.
          1    1    1    2  502    0 -0.42091706356E+02  0.76329019739E+01  0.61186877320E+03  0.61336234686E+03  0.00000000000E+00 0. -1.
         22    1    3    3    0    0  0.83058762606E+02  0.34548166340E+02  0.28691007843E+03  0.30068210280E+03  0.00000000000E+00 0.  1.
         22    1    3    3    0    0 -0.83822281834E+01 -0.34153828530E+02  0.23807364214E+02  0.42468062628E+02  0.00000000000E+00 0.  1.
</event>
<event>
 7    1  0.5593520E-006  0.2341719E+03  0.7818608E-02  0.1165250E+00
          2   -1    0    0  502    0  0.00000000000E+00  0.00000000000E+00  0.15836372448E+04  0.15836372448E+04  0.00000000000E+00 0. -1.
          1   -1    0    0  501    0 -0.00000000000E+00 -0.00000000000E+00 -0.78759595425E+03  0.78759595425E+03  0.00000000000E+00 0. -1.
         25    2    1    2    0    0  0.13645574029E+03  0.23299148760E+03  0.40627286679E+03  0.50357503371E+03  0.12499987973E+03 0.  0.
          2    1    1    2  501    0  0.60232314404E+01 -0.23421999845E+03 -0.71568468502E+03  0.75306032651E+03  0.00000000000E+00 0. -1.
          1    1    1    2  502    0 -0.14247897173E+03  0.12285108428E+01  0.11054531088E+04  0.11145978389E+04  0.00000000000E+00 0. -1.
         22    1    3    3    0    0  0.34275340479E+02  0.37423096910E+02  0.12611012050E+02  0.52290771387E+02  0.00000000000E+00 0.  1.
         22    1    3    3    0    0  0.10218039981E+03  0.19556839069E+03  0.39366185473E+03  0.45128426232E+03  0.00000000000E+00 0.  1.
</event>
<event>
 7    1  0.5593520E-006  0.8540921E+02  0.7818608E-02  0.1373788E+00
          2   -1    0    0  502    0  0.00000000000E+00  0.00000000000E+00  0.17056148836E+03  0.17056148836E+03  0.00000000000E+00 0. -1.
          1   -1    0    0  501    0 -0.00000000000E+00 -0.00000000000E+00 -0.14031940411E+04  0.14031940411E+04  0.00000000000E+00 0. -1.
         25    2    1    2    0    0 -0.93144756121E+02  0.95430277143E+02 -0.14781220058E+03  0.23508080301E+03  0.12502661282E+03 0.  0.
          2    1    1    2  501    0  0.65492451475E+02 -0.52345374613E+02 -0.12050687682E+04  0.12079818026E+04  0.00000000000E+00 0. -1.
          1    1    1    2  502    0  0.27652304646E+02 -0.43084902530E+02  0.12024841603E+03  0.13069292381E+03  0.00000000000E+00 0. -1.
         22    1    3    3    0    0 -0.44014545294E+02  0.11459265714E+02  0.12846620383E+02  0.47261301541E+02  0.00000000000E+00 0. -1.
         22    1    3    3    0    0 -0.49130210827E+02  0.83971011430E+02 -0.16065882097E+03  0.18781950146E+03  0.00000000000E+00 0. -1.
</event>
<event>
 7    1  0.5593520E-006  0.1181757E+03  0.7818608E-02  0.1439591E+00
          2   -1    0    0  502    0  0.00000000000E+00  0.00000000000E+00  0.55268715917E+03  0.55268715917E+03  0.00000000000E+00 0. -1.
          1   -1    0    0  501    0 -0.00000000000E+00 -0.00000000000E+00 -0.16453222831E+03  0.16453222831E+03  0.00000000000E+00 0. -1.
         25    2    1    2    0    0  0.60453259426E+02 -0.11995249274E+03  0.21645673057E+03  0.28376287018E+03  0.12499861276E+03 0.  0.
          2    1    1    2  501    0 -0.41274523058E+02  0.10901064004E+03 -0.10439754736E+03  0.15647924396E+03  0.00000000000E+00 0. -1.
          1    1    1    2  502    0 -0.19178736368E+02  0.10941852696E+02  0.27609574766E+03  0.27697727333E+03  0.00000000000E+00 0. -1.
         22    1    3    3    0    0  0.18756985391E+02 -0.12038757159E+03  0.92483063132E+02  0.15296440390E+03  0.00000000000E+00 0.  1.
         22    1    3    3    0    0  0.41696274035E+02  0.43507885264E+00  0.12397366744E+03  0.13079846628E+03  0.00000000000E+00 0.  1.
</event>
<event>
 7    1  0.5593520E-006  0.8608285E+02  0.7818608E-02  0.1363570E+00
          2   -1    0    0  502    0  0.00000000000E+00  0.00000000000E+00  0.38688226927E+04  0.38688226927E+04  0.00000000000E+00 0. -1.
          1   -1    0    0  501    0 -0.00000000000E+00 -0.00000000000E+00 -0.49885267952E+03  0.49885267952E+03  0.00000000000E+00 0. -1.
         25    2    1    2    0    0 -0.22714677528E+02  0.60489836428E+02  0.25731371809E+04  0.25769817344E+04  0.12499972233E+03 0.  0.
          2    1    1    2  501    0  0.60066631815E+01  0.54959999337E+02 -0.49275178116E+03  0.49584372474E+03  0.00000000000E+00 0. -1.
          1    1    1    2  502    0  0.16708014347E+02 -0.11544983576E+03  0.12895846134E+04  0.12948499131E+04  0.00000000000E+00 0. -1.
         22    1    3    3    0    0 -0.49679660328E+02 -0.19108480834E+02  0.12881188000E+04  0.12892180752E+04  0.00000000000E+00 0. -1.
         22    1    3    3    0    0  0.26964982800E+02  0.79598317262E+02  0.12850183810E+04  0.12877636592E+04  0.00000000000E+00 0. -1.
</event>
<event>
 7    1  0.6389306E-006  0.1506214E+03  0.7818608E-02  0.1374699E+00
          2   -1    0    0  502    0  0.00000000000E+00  0.00000000000E+00  0.12912163216E+04  0.12912163216E+04  0.00000000000E+00 0. -1.
          1   -1    0    0  501    0 -0.00000000000E+00 -0.00000000000E+00 -0.17147493119E+04  0.17147493119E+04  0.00000000000E+00 0. -1.
         25    2    1    2    0    0 -0.10266105507E+02  0.12598867902E+03 -0.59786355834E+03  0.62373422394E+03  0.12500003022E+03 0.  0.
          2    1    1    2  501    0  0.14756488476E+02  0.24747867996E+02 -0.10993132885E+04  0.10996908280E+04  0.00000000000E+00 0. -1.
          1    1    1    2  502    0 -0.44903829685E+01 -0.15073654702E+03  0.12736438565E+04  0.12825405816E+04  0.00000000000E+00 0. -1.
         22    1    3    3    0    0 -0.34201472306E+02  0.56091440053E+02 -0.95186069467E+02  0.11565629328E+03  0.00000000000E+00 0.  1.
         22    1    3    3    0    0  0.23935366798E+02  0.69897238967E+02 -0.50267748887E+03  0.50807793065E+03  0.00000000000E+00 0.  1.
</event>
<event>
 7    1  0.5593520E-006  0.9398617E+02  0.7818608E-02  0.1336628E+00
          2   -1    0    0  502    0  0.00000000000E+00  0.00000000000E+00  0.12082341803E+04  0.12082341803E+04  0.00000000000E+00 0. -1.
          1   -1    0    0  501    0 -0.00000000000E+00 -0.00000000000E+00 -0.96830580401E+03  0.96830580401E+03  0.00000000000E+00 0. -1.
         25    2    1    2    0    0 -0.51454382863E+02 -0.41533154510E+02  0.11004737415E+03  0.17918774031E+03  0.12500106112E+03 0.  0.
          2    1    1    2  501    0  0.94578335349E+02 -0.53812993934E+01 -0.93037383199E+03  0.93518419959E+03  0.00000000000E+00 0. -1.
          1    1    1    2  502    0 -0.43123952487E+02  0.46914453903E+02  0.10602548341E+04  0.10621680444E+04  0.00000000000E+00 0. -1.
         22    1    3    3    0    0 -0.30333657745E+02 -0.39552838127E+02  0.13647881207E+03  0.14529633147E+03  0.00000000000E+00 0.  1.
         22    1    3    3    0    0 -0.21120725117E+02 -0.19803163828E+01 -0.26431437921E+02  0.33891408838E+02  0.00000000000E+00 0.  1.
</event>
<event>
 7    1  0.5593520E-006  0.1337602E+03  0.7818608E-02  0.1253257E+00
          2   -1    0    0  502    0  0.00000000000E+00  0.00000000000E+00  0.21420758624E+03  0.21420758624E+03  0.00000000000E+00 0. -1.
          1   -1    0    0  501    0 -0.00000000000E+00 -0.00000000000E+00 -0.64963216435E+03  0.64963216435E+03  0.00000000000E+00 0. -1.
         25    2    1    2    0    0  0.16581478265E+03  0.64897275402E+02 -0.19090241996E+03  0.28943873213E+03  0.12499938883E+03 0.  0.
          2    1    1    2  501    0 -0.88095074528E+02  0.41159964944E+02 -0.37605264004E+03  0.38842048473E+03  0.00000000000E+00 0. -1.
          1    1    1    2  502    0 -0.77719708126E+02 -0.10605724035E+03  0.13153048190E+03  0.18598053374E+03  0.00000000000E+00 0. -1.
         22    1    3    3    0    0  0.14138782187E+03  0.98896136566E+02 -0.17157388350E+03  0.24332809024E+03  0.00000000000E+00 0.  1.
         22    1    3    3    0    0  0.24426960782E+02 -0.33998861164E+02 -0.19328536462E+02  0.46110641888E+02  0.00000000000E+00 0.  1.
</event>
<event>
 7    1  0.5593520E-006  0.3852041E+02  0.7818608E-02  0.1522047E+00
          2   -1    0    0  502    0  0.00000000000E+00  0.00000000000E+00  0.17123430175E+03  0.17123430175E+03  0.00000000000E+00 0. -1.
          1   -1    0    0  501    0 -0.00000000000E+00 -0.00000000000E+00 -0.16678215551E+03  0.16678215551E+03  0.00000000000E+00 0. -1.
         25    2    1    2    0    0  0.30047880967E+02  0.29030314693E+02  0.61330452803E+02  0.14536841850E+03  0.12499967334E+03 0.  0.
          2    1    1    2  501    0  0.96224560615E+01 -0.36599117048E+02 -0.11545488570E+03  0.12149863234E+03  0.00000000000E+00 0. -1.
          1    1    1    2  502    0 -0.39670337028E+02  0.75688023540E+01  0.58576579143E+02  0.71149406415E+02  0.00000000000E+00 0. -1.
         22    1    3    3    0    0 -0.73925263969E+01  0.61790553367E+02  0.71291008967E+02  0.94631548077E+02  0.00000000000E+00 0.  1.
         22    1    3    3    0    0  0.37440407364E+02 -0.32760238673E+02 -0.99605561646E+01  0.50736870426E+02  0.00000000000E+00 0.  1.
</event>
<event>
 7    1  0.5593520E-006  0.9453835E+02  0.7818608E-02  0.1460695E+00
          2   -1    0    0  502    0  0.00000000000E+00  0.00000000000E+00  0.90716578238E+03  0.90716578238E+03  0.00000000000E+00 0. -1.
          1   -1    0    0  501    0 -0.00000000000E+00 -0.00000000000E+00 -0.59810858975E+02  0.59810858975E+02  0.00000000000E+00 0. -1.
         25    2    1    2    0    0 -0.10329962614E+03  0.31093171428E+02  0.10053618020E+03  0.19331487665E+03  0.12500207972E+03 0.  0.
          2    1    1    2  501    0  0.99957492754E+01 -0.21408846467E+02  0.28455784074E+01  0.23798130748E+02  0.00000000000E+00 0. -1.
          1    1    1    2  502    0  0.93303876869E+02 -0.96843249609E+01  0.74397316480E+03  0.74986363396E+03  0.00000000000E+00 0. -1.
         22    1    3    3    0    0 -0.10616784902E+03 -0.15465533966E+02  0.34960771921E+02  0.11284081921E+03  0.00000000000E+00 0.  1.
         22    1    3    3    0    0  0.28682228770E+01  0.46558705393E+02  0.65575408280E+02  0.80474057444E+02  0.00000000000E+00 0.  1.
</event>
<event>
 7    1  0.5593520E-006  0.6880607E+02  0.7818608E-02  0.1369119E+00
          2   -1    0    0  502    0  0.00000000000E+00  0.00000000000E+00  0.23069706950E+04  0.23069706950E+04  0.00000000000E+00 0. -1.
          1   -1    0    0  501    0 -0.00000000000E+00 -0.00000000000E+00 -0.19011842071E+03  0.19011842071E+03  0.00000000000E+00 0. -1.
         25    2    1    2    0    0 -0.10967248493E+02  0.10188672172E+03 -0.99985542833E+01  0.16194021494E+03  0.12499390995E+03 0.  0.
          2    1    1    2  501    0 -0.38220234982E+02 -0.53865810262E+02 -0.93091921950E+02  0.11414209482E+03  0.00000000000E+00 0. -1.
          1    1    1    2  502    0  0.49187483475E+02 -0.48020911461E+02  0.22199427505E+04  0.22210068059E+04  0.00000000000E+00 0. -1.
         22    1    3    3    0    0  0.19631205441E+02  0.11791773054E+03  0.13293464409E+02  0.12027756066E+03  0.00000000000E+00 0.  1.
         22    1    3    3    0    0 -0.30598453935E+02 -0.16031008815E+02 -0.23292018693E+02  0.41662654279E+02  0.00000000000E+00 0.  1.
</event>
<event>
 7    1  0.5593520E-006  0.5121448E+02  0.7818608E-02  0.1446013E+00
          2   -1    0    0  502    0  0.00000000000E+00  0.00000000000E+00  0.29916914458E+03  0.29916914458E+03  0.00000000000E+00 0. -1.
          1   -1    0    0  501    0 -0.00000000000E+00 -0.00000000000E+00 -0.10221532880E+04  0.10221532880E+04  0.00000000000E+00 0. -1.
         25    2    1    2    0    0  0.39379876931E+02  0.82442435585E+02 -0.15514741738E+03  0.21918739795E+03  0.12499945763E+03 0.  0.
          2    1    1    2  501    0 -0.37298675818E+02 -0.33915129756E+02 -0.83200883056E+03  0.83353471515E+03  0.00000000000E+00 0. -1.
          1    1    1    2  502    0 -0.20812011127E+01 -0.48527305829E+02  0.26417210453E+03  0.26860031947E+03  0.00000000000E+00 0. -1.
         22    1    3    3    0    0  0.18383320419E+02  0.10879192039E+03 -0.14824146542E+03  0.18479491466E+03  0.00000000000E+00 0.  1.
         22    1    3    3    0    0  0.20996556512E+02 -0.26349484807E+02 -0.69059519624E+01  0.34392483299E+02  0.00000000000E+00 0.  1.
</event>
<event>
 7    1  0.5593520E-006  0.8075661E+02  0.7818608E-02  0.1341408E+00
          2   -1    0    0  502    0  0.00000000000E+00  0.00000000000E+00  0.13592077395E+03  0.13592077395E+03  0.00000000000E+00 0. -1.
          1   -1    0    0  501    0 -0.00000000000E+00 -0.00000000000E+00 -0.63457616964E+03  0.63457616964E+03  0.00000000000E+00 0. -1.
         25    2    1    2    0    0 -0.56125902611E+02  0.78793132268E+02 -0.13024174549E+03  0.20480831556E+03  0.12500023687E+03 0.  0.
          2    1    1    2  501    0  0.71129726284E+02  0.16985090657E+01 -0.44674523504E+03  0.45237553861E+03  0.00000000000E+00 0. -1.
          1    1    1    2  502    0 -0.15003823673E+02 -0.80491641334E+02  0.78331584844E+02  0.11331308942E+03  0.00000000000E+00 0. -1.
         22    1    3    3    0    0 -0.27633167772E+02  0.98422307481E+02 -0.13557781068E+03  0.16979954452E+03  0.00000000000E+00 0.  1.
         22    1    3    3    0    0 -0.28492734838E+02 -0.19629175213E+02  0.53360651877E+01  0.35008771041E+02  0.00000000000E+00 0.  1.
</event>
<event>
 7    1  0.5593520E-006  0.8716356E+02  0.7818608E-02  0.1356884E+00
          2   -1    0    0  502    0  0.00000000000E+00  0.00000000000E+00  0.55146386465E+03  0.55146386465E+03  0.00000000000E+00 0. -1.
          1   -1    0    0  501    0 -0.00000000000E+00 -0.00000000000E+00 -0.27360540085E+03  0.27360540085E+03  0.00000000000E+00 0. -1.
         25    2    1    2    0    0  0.67166501509E+02  0.10784958833E+03 -0.18823142455E+02  0.17922033058E+03  0.12499097397E+03 0.  0.
          2    1    1    2  501    0  0.26107510371E+01 -0.57697309417E+02 -0.16573783664E+03  0.17551303663E+03  0.00000000000E+00 0. -1.
          1    1    1    2  502    0 -0.69777252546E+02 -0.50152278916E+02  0.46241944289E+03  0.47033589829E+03  0.00000000000E+00 0. -1.
         22    1    3    3    0    0  0.59973235200E+02 -0.55764090739E+01 -0.25417472713E+02  0.65375325602E+02  0.00000000000E+00 0.  1.
         22    1    3    3    0    0  0.71932663085E+01  0.11342599741E+03  0.65943302572E+01  0.11384500498E+03  0.00000000000E+00 0.  1.
</event>
<event>
 7    1  0.5593520E-006  0.7854061E+02  0.7818608E-02  0.1392542E+00
          2   -1    0    0  502    0  0.00000000000E+00  0.00000000000E+00  0.12803802081E+03  0.12803802081E+03  0.00000000000E+00 0. -1.
          1   -1    0    0  501    0 -0.00000000000E+00 -0.00000000000E+00 -0.49237882106E+03  0.49237882106E+03  0.00000000000E+00 0. -1.
         25    2    1    2    0    0  0.18922366076E+01 -0.11734581750E+03 -0.77535173650E+02  0.18817562934E+03  0.12499897152E+03 0.  0.
          2    1    1    2  501    0  0.17823023644E+02  0.73789194116E+02 -0.34709282411E+03  0.35529696577E+03  0.00000000000E+00 0. -1.
          1    1    1    2  502    0 -0.19715260252E+02  0.43556623384E+02  0.60287197505E+02  0.76944246766E+02  0.00000000000E+00 0. -1.
         22    1    3    3    0    0 -0.72047473981E+01  0.24341944197E+02  0.19506390987E+01  0.25460628925E+02  0.00000000000E+00 0.  1.
         22    1    3    3    0    0  0.90969840057E+01 -0.14168776170E+03 -0.79485812748E+02  0.16271500042E+03  0.00000000000E+00 0.  1.
</event>
<event>
 7    1  0.5593520E-006  0.1326903E+03  0.7818608E-02  0.1297068E+00
          2   -1    0    0  502    0  0.00000000000E+00  0.00000000000E+00  0.10577114809E+04  0.10577114809E+04  0.00000000000E+00 0. -1.
          1   -1    0    0  501    0 -0.00000000000E+00 -0.00000000000E+00 -0.95348138650E+02  0.95348138650E+02  0.00000000000E+00 0. -1.
         25    2    1    2    0    0  0.10938266467E+03 -0.64915048106E+02  0.80920752578E+02  0.19583667070E+03  0.12500121036E+03 0.  0.
          2    1    1    2  501    0  0.24929323325E+02  0.59365286907E+02 -0.12040585677E+01  0.64398433273E+02  0.00000000000E+00 0. -1.
          1    1    1    2  502    0 -0.13431198800E+03  0.55497611988E+01  0.88264664822E+03  0.89282451556E+03  0.00000000000E+00 0. -1.
         22    1    3    3    0    0  0.25555420766E+02 -0.56849871021E+01  0.89103388050E+02  0.92869867938E+02  0.00000000000E+00 0. -1.
         22    1    3    3    0    0  0.83827243907E+02 -0.59230061003E+02 -0.81826354720E+01  0.10296680276E+03  0.00000000000E+00 0. -1.
</event>
<event>
 7    1  0.5593520E-006  0.5426583E+02  0.7818608E-02  0.1453869E+00
          2   -1    0    0  502    0  0.00000000000E+00  0.00000000000E+00  0.32061369281E+03  0.32061369281E+03  0.00000000000E+00 0. -1.
          1   -1    0    0  501    0 -0.00000000000E+00 -0.00000000000E+00 -0.17172578623E+04  0.17172578623E+04  0.00000000000E+00 0. -1.
         25    2    1    2    0    0  0.91625615909E+02 -0.25845375451E+02  0.38737280725E+02  0.16182968772E+03  0.12500013595E+03 0.  0.
          2    1    1    2  501    0 -0.42475085603E+02  0.82173464235E+01 -0.16523308652E+04  0.16528971370E+04  0.00000000000E+00 0. -1.
          1    1    1    2  502    0 -0.49150530306E+02  0.17628029027E+02  0.21694941494E+03  0.22314473035E+03  0.00000000000E+00 0. -1.
         22    1    3    3    0    0  0.95155145696E+02  0.22230075829E+02 -0.34400664375E+01  0.97777871121E+02  0.00000000000E+00 0. -1.
         22    1    3    3    0    0 -0.35295297866E+01 -0.48075451279E+02  0.42177347163E+02  0.64051816601E+02  0.00000000000E+00 0. -1.
</event>
<event>
 7    1  0.5593520E-006  0.4695453E+02  0.7818608E-02  0.1488509E+00
          2   -1    0    0  502    0  0.00000000000E+00  0.00000000000E+00  0.10375256516E+04  0.10375256516E+04  0.00000000000E+00 0. -1.
          1   -1    0    0  501    0 -0.00000000000E+00 -0.00000000000E+00 -0.27225966644E+03  0.27225966644E+03  0.00000000000E+00 0. -1.
         25    2    1    2    0    0 -0.10745782328E+02 -0.87323517402E+01  0.38428878362E+03  0.40434593937E+03  0.12500417458E+03 0.  0.
          2    1    1    2  501    0 -0.39020160520E+02  0.76366183064E+00 -0.25978393685E+03  0.26269916245E+03  0.00000000000E+00 0. -1.
          1    1    1    2  502    0  0.49765942848E+02  0.79686899096E+01  0.64076113838E+03  0.64274021622E+03  0.00000000000E+00 0. -1.
         22    1    3    3    0    0  0.45051552811E+02  0.21074211167E+02  0.26183897127E+03  0.26652094038E+03  0.00000000000E+00 0.  1.
         22    1    3    3    0    0 -0.55797335139E+02 -0.29806562908E+02  0.12244981235E+03  0.13782499899E+03  0.00000000000E+00 0.  1.
</event>
<event>
 7    1  0.5593520E-006  0.9745477E+02  0.7818608E-02  0.1331892E+00
          2   -1    0    0  502    0  0.00000000000E+00  0.00000000000E+00  0.33831988180E+03  0.33831988180E+03  0.00000000000E+00 0. -1.
          1   -1    0    0  501    0 -0.00000000000E+00 -0.00000000000E+00 -0.32133751101E+03  0.32133751101E+03  0.00000000000E+00 0. -1.
         25    2    1    2    0    0  0.95564080339E-01  0.49572654797E+02  0.57074859871E+02  0.14608662670E+03  0.12500522244E+03 0.  0.
          2    1    1    2  501    0  0.20153118427E+02  0.60798852979E+02 -0.25941673486E+03  0.26720720618E+03  0.00000000000E+00 0. -1.
          1    1    1    2  502    0 -0.20248682508E+02 -0.11037150778E+03  0.21932424578E+03  0.24636355992E+03  0.00000000000E+00 0. -1.
         22    1    3    3    0    0  0.55369793823E+02  0.94301316076E+01  0.53673485798E+02  0.77689024501E+02  0.00000000000E+00 0.  1.
         22    1    3    3    0    0 -0.55274229743E+02  0.40142523189E+02  0.34013740730E+01  0.68397602204E+02  0.00000000000E+00 0.  1.
</event>
<event>
 7    1  0.5593520E-006  0.2996199E+02  0.7818608E-02  0.1642405E+00
          2   -1    0    0  502    0  0.00000000000E+00  0.00000000000E+00  0.62668110005E+02  0.62668110005E+02  0.00000000000E+00 0. -1.
          1   -1    0    0  501    0 -0.00000000000E+00 -0.00000000000E+00 -0.65006264545E+03  0.65006264545E+03  0.00000000000E+00 0. -1.
         25    2    1    2    0    0  0.78078832628E+01  0.36370368739E+02 -0.17720141684E+03  0.22001968715E+03  0.12499821535E+03 0.  0.
          2    1    1    2  501    0 -0.23163983864E+02 -0.19027515574E+02 -0.44765950602E+03  0.44866206640E+03  0.00000000000E+00 0. -1.
          1    1    1    2  502    0  0.15356100601E+02 -0.17342853164E+02  0.37466387424E+02  0.44049001897E+02  0.00000000000E+00 0. -1.
         22    1    3    3    0    0 -0.42245232669E+02  0.61468929356E+01 -0.14920571026E+03  0.15519274452E+03  0.00000000000E+00 0.  1.
         22    1    3    3    0    0  0.50053115932E+02  0.30223475803E+02 -0.27995706579E+02  0.64826942632E+02  0.00000000000E+00 0.  1.
</event>
<event>
 7    1  0.5593520E-006  0.7824212E+02  0.7818608E-02  0.1406120E+00
          2   -1    0    0  502    0  0.00000000000E+00  0.00000000000E+00  0.52737882853E+03  0.52737882853E+03  0.00000000000E+00 0. -1.
          1   -1    0    0  501    0 -0.00000000000E+00 -0.00000000000E+00 -0.73082876256E+02  0.73082876256E+02  0.00000000000E+00 0. -1.
         25    2    1    2    0    0 -0.10975969072E+03 -0.33014176015E+02  0.92268320901E+02  0.19306806777E+03  0.12499884089E+03 0.  0.
          2    1    1    2  501    0  0.34576950304E+02  0.25724743955E+02  0.60846116980E+01  0.43524136331E+02  0.00000000000E+00 0. -1.
          1    1    1    2  502    0  0.75182740418E+02  0.72894320600E+01  0.35594301968E+03  0.36386950069E+03  0.00000000000E+00 0. -1.
         22    1    3    3    0    0 -0.32641777278E+02  0.47542971704E+02  0.25208868178E+02  0.62938913377E+02  0.00000000000E+00 0.  1.
         22    1    3    3    0    0 -0.77117913444E+02 -0.80557147719E+02  0.67059452723E+02  0.13012915439E+03  0.00000000000E+00 0.  1.
</event>
<event>
 7    1  0.5593520E-006  0.8085566E+02  0.7818608E-02  0.1377592E+00
          2   -1    0    0  502    0  0.00000000000E+00  0.00000000000E+00  0.15665781615E+04  0.15665781615E+04  0.00000000000E+00 0. -1.
          1   -1    0    0  501    0 -0.00000000000E+00 -0.00000000000E+00 -0.25469269582E+03  0.25469269582E+03  0.00000000000E+00 0. -1.
         25    2    1    2    0    0  0.79050302569E+02  0.86488986859E+02 -0.14868800855E+03  0.22685204005E+03  0.12499771600E+03 0.  0.
          2    1    1    2  501    0 -0.50119993404E+02 -0.42779781852E+02 -0.50136549347E+02  0.82799740667E+02  0.00000000000E+00 0. -1.
          1    1    1    2  502    0 -0.28930309165E+02 -0.43709205007E+02  0.15107100236E+04  0.15116190766E+04  0.00000000000E+00 0. -1.
         22    1    3    3    0    0  0.19076243854E+02  0.10428131020E+03 -0.11251004109E+03  0.15458655854E+03  0.00000000000E+00 0.  1.
         22    1    3    3    0    0  0.59974058715E+02 -0.17792323337E+02 -0.36177967461E+02  0.72265481511E+02  0.00000000000E+00 0.  1.
</event>
<event>
 7    1  0.5593520E-006  0.1080335E+03  0.7818608E-02  0.1355921E+00
          2   -1    0    0  502    0  0.00000000000E+00  0.00000000000E+00  0.13134047031E+04  0.13134047031E+04  0.00000000000E+00 0. -1.
          1   -1    0    0  501    0 -0.00000000000E+00 -0.00000000000E+00 -0.49028132948E+03  0.49028132948E+03  0.00000000000E+00 0. -1.
         25    2    1    2    0    0  0.15069042103E+03 -0.15562145036E+02 -0.32778342940E+03  0.38212513954E+03  0.12501144882E+03 0.  0.
          2    1    1    2  501    0 -0.45949013687E+02 -0.97855706434E+01 -0.12891584379E+03  0.13720919806E+03  0.00000000000E+00 0. -1.
          1    1    1    2  502    0 -0.10474140734E+03  0.25347715679E+02  0.12798226468E+04  0.12843516950E+04  0.00000000000E+00 0. -1.
         22    1    3    3    0    0 -0.14792982250E+02  0.19030329546E+02 -0.68284841671E+02  0.72414124096E+02  0.00000000000E+00 0. -1.
         22    1    3    3    0    0  0.16548340328E+03 -0.34592474582E+02 -0.25949858772E+03  0.30971101545E+03  0.00000000000E+00 0. -1.
</event>
<event>
 7    1  0.5593520E-006  0.1283143E+03  0.7818608E-02  0.1332434E+00
          2   -1    0    0  502    0  0.00000000000E+00  0.00000000000E+00  0.14276667009E+04  0.14276667009E+04  0.00000000000E+00 0. -1.
          1   -1    0    0  501    0 -0.00000000000E+00 -0.00000000000E+00 -0.50277312640E+02  0.50277312640E+02  0.00000000000E+00 0. -1.
         25    2    1    2    0    0  0.66940632037E+01  0.86759536530E+02  0.69578222612E+03  0.71225652621E+03  0.12499770113E+03 0.  0.
          2    1    1    2  501    0 -0.92015938543E+00 -0.13483099641E+03  0.69543920701E+02  0.15171223152E+03  0.00000000000E+00 0. -1.
          1    1    1    2  502    0 -0.57739038182E+01  0.48071459881E+02  0.61206324139E+03  0.61397525576E+03  0.00000000000E+00 0. -1.
         22    1    3    3    0    0  0.44995616066E+02  0.95441889358E+02  0.39225801546E+03  0.40620205613E+03  0.00000000000E+00 0. -1.
         22    1    3    3    0    0 -0.38301552863E+02 -0.86823528278E+01  0.30352421066E+03  0.30605447009E+03  0.00000000000E+00 0. -1.
</event>
<event>
 7    1  0.5593520E-006  0.3443162E+02  0.7818608E-02  0.1573376E+00
          2   -1    0    0  502    0  0.00000000000E+00  0.00000000000E+00  0.87388288208E+03  0.87388288208E+03  0.00000000000E+00 0. -1.
          1   -1    0    0  501    0 -0.00000000000E+00 -0.00000000000E+00 -0.19823211922E+03  0.19823211922E+03  0.00000000000E+00 0. -1.
         25    2    1    2    0    0 -0.17486179823E+02 -0.16662342137E+02  0.42310720220E+03  0.44184666587E+03  0.12500148580E+03 0.  0.
          2    1    1    2  501    0  0.23883266403E+02 -0.18829584343E+02 -0.18689451106E+03  0.18935290314E+03  0.00000000000E+00 0. -1.
          1    1    1    2  502    0 -0.63970865806E+01  0.35491926480E+02  0.43943807172E+03  0.44091543230E+03  0.00000000000E+00 0. -1.
         22    1    3    3    0    0 -0.58713521520E+02  0.15989420059E+02  0.32385113306E+03  0.32951858149E+03  0.00000000000E+00 0. -1.
         22    1    3    3    0    0  0.41227341698E+02 -0.32651762196E+02  0.99256069144E+02  0.11232808438E+03  0.00000000000E+00 0. -1.
</event>
<event>
 7    1  0.5593520E-006  0.9253362E+02  0.7818608E-02  0.1318702E+00
          2   -1    0    0  502    0  0.00000000000E+00  0.00000000000E+00  0.35135554493E+03  0.35135554493E+03  0.00000000000E+00 0. -1.
          1   -1    0    0  501    0 -0.00000000000E+00 -0.00000000000E+00 -0.76547930716E+03  0.76547930716E+03  0.00000000000E+00 0. -1.
         25    2    1    2    0    0  0.58034770206E+02 -0.22718904771E+02  0.14035505501E+03  0.19801322249E+03  0.12500204649E+03 0.  0.
          2    1    1    2  501    0  0.57392760824E+02  0.49548027955E+02 -0.71515968134E+03  0.71916778702E+03  0.00000000000E+00 0. -1.
          1    1    1    2  502    0 -0.11542753103E+03 -0.26829123184E+02  0.16068086410E+03  0.19965384259E+03  0.00000000000E+00 0. -1.
         22    1    3    3    0    0 -0.39194843882E+00 -0.56904377144E+02  0.10995440761E+03  0.12380724338E+03  0.00000000000E+00 0.  1.
         22    1    3    3    0    0  0.58426718645E+02  0.34185472373E+02  0.30400647405E+02  0.74205979109E+02  0.00000000000E+00 0.  1.
</event>
<event>
 7    1  0.5593520E-006  0.8984114E+02  0.7818608E-02  0.1382802E+00
          2   -1    0    0  502    0  0.00000000000E+00  0.00000000000E+00  0.88612733457E+03  0.88612733457E+03  0.00000000000E+00 0. -1.
          1   -1    0    0  501    0 -0.00000000000E+00 -0.00000000000E+00 -0.13117636949E+03  0.13117636949E+03  0.00000000000E+00 0. -1.
         25    2    1    2    0    0  0.39680610717E+02  0.60575724006E+02  0.43765646311E+03  0.46088137954E+03  0.12499798839E+03 0.  0.
          2    1    1    2  501    0 -0.80751984513E+02 -0.41674119233E+02 -0.10090159283E+03  0.13578934661E+03  0.00000000000E+00 0. -1.
          1    1    1    2  502    0  0.41071373796E+02 -0.18901604773E+02  0.41819609479E+03  0.42063297791E+03  0.00000000000E+00 0. -1.
         22    1    3    3    0    0  0.62173766778E+02  0.33085666192E+02  0.10560552592E+03  0.12693606929E+03  0.00000000000E+00 0. -1.
         22    1    3    3    0    0 -0.22493156061E+02  0.27490057814E+02  0.33205093720E+03  0.33394531026E+03  0.00000000000E+00 0. -1.
</event>
<event>
 7    1  0.5593520E-006  0.1020089E+03  0.7818608E-02  0.1372028E+00
          2   -1    0    0  502    0  0.00000000000E+00  0.00000000000E+00  0.78124401802E+03  0.78124401802E+03  0.00000000000E+00 0. -1.
          1   -1    0    0  501    0 -0.00000000000E+00 -0.00000000000E+00 -0.41541289598E+03  0.41541289598E+03  0.00000000000E+00 0. -1.
         25    2    1    2    0    0  0.64350152940E+02  0.12812479449E+03  0.27486088913E+03  0.33426297982E+03  0.12500530453E+03 0.  0.
          2    1    1    2  501    0 -0.37513248393E+02 -0.93901481326E+02 -0.37806132502E+03  0.39135035132E+03  0.00000000000E+00 0. -1.
          1    1    1    2  502    0 -0.26836904547E+02 -0.34223313165E+02  0.46903155794E+03  0.47104358286E+03  0.00000000000E+00 0. -1.
         22    1    3    3    0    0  0.46285873406E+02  0.15096970758E+03  0.20648446970E+03  0.25994243769E+03  0.00000000000E+00 0. -1.
         22    1    3    3    0    0  0.18064279533E+02 -0.22844913093E+02  0.68376419426E+02  0.74320542132E+02  0.00000000000E+00 0. -1.
</event>
<event>
 7    1  0.5593520E-006  0.8326349E+02  0.7818608E-02  0.1418689E+00
          2   -1    0    0  502    0  0.00000000000E+00  0.00000000000E+00  0.26879585577E+03  0.26879585577E+03  0.00000000000E+00 0. -1.
          1   -1    0    0  501    0 -0.00000000000E+00 -0.00000000000E+00 -0.26105191264E+03  0.26105191264E+03  0.00000000000E+00 0. -1.
         25    2    1    2    0    0  0.10544895615E+02 -0.93828462184E+02 -0.58533230085E+02  0.16722897206E+03  0.12499765970E+03 0.  0.
          2    1    1    2  501    0 -0.39927950185E+02  0.71794203091E+02 -0.13499333235E+03  0.15802483534E+03  0.00000000000E+00 0. -1.
          1    1    1    2  502    0  0.29383054570E+02  0.22034259093E+02  0.20127050557E+03  0.20459396101E+03  0.00000000000E+00 0. -1.
         22    1    3    3    0    0  0.63866820154E+02 -0.66023987387E+02 -0.54830942765E+02  0.10697929665E+03  0.00000000000E+00 0. -1.
         22    1    3    3    0    0 -0.53321924539E+02 -0.27804474797E+02 -0.37022873194E+01  0.60249675407E+02  0.00000000000E+00 0. -1.
</event>
<event>
 7    1  0.5593520E-006  0.1288660E+03  0.7818608E-02  0.1422398E+00
          2   -1    0    0  502    0  0.00000000000E+00  0.00000000000E+00  0.15743127595E+04  0.15743127595E+04  0.00000000000E+00 0. -1.
          1   -1    0    0  501    0 -0.00000000000E+00 -0.00000000000E+00 -0.12055349581E+03  0.12055349581E+03  0.00000000000E+00 0. -1.
         25    2    1    2    0    0 -0.94281723320E+02 -0.54389457365E+02  0.52205061346E+03  0.54773432294E+03  0.12501515544E+03 0.  0.
          2    1    1    2  501    0  0.11718311662E+03  0.57118384980E+02 -0.68085702223E+02  0.14707160015E+03  0.00000000000E+00 0. -1.
          1    1    1    2  502    0 -0.22901393304E+02 -0.27289276154E+01  0.99979435245E+03  0.10000603322E+04  0.00000000000E+00 0. -1.
         22    1    3    3    0    0 -0.11644571958E+03 -0.54697699813E+02  0.50067733986E+03  0.51694220434E+03  0.00000000000E+00 0. -1.
         22    1    3    3    0    0  0.22163996264E+02  0.30824244817E+00  0.21373273595E+02  0.30792118601E+02  0.00000000000E+00 0. -1.
</event>
<event>
 7    1  0.5593520E-006  0.1249215E+03  0.7818608E-02  0.1284028E+00
          2   -1    0    0  502    0  0.00000000000E+00  0.00000000000E+00  0.11361355623E+03  0.11361355623E+03  0.00000000000E+00 0. -1.
          1   -1    0    0  501    0 -0.00000000000E+00 -0.00000000000E+00 -0.94274511422E+03  0.94274511422E+03  0.00000000000E+00 0. -1.
         25    2    1    2    0    0  0.11520265510E+03 -0.12071913377E+03 -0.56515803816E+03  0.60239033232E+03  0.12500297345E+03 0.  0.
          2    1    1    2  501    0 -0.40532324351E+02  0.10085729860E+03 -0.33304207341E+03  0.35033139548E+03  0.00000000000E+00 0. -1.
          1    1    1    2  502    0 -0.74670330750E+02  0.19861835170E+02  0.69068553578E+02  0.10363694266E+03  0.00000000000E+00 0. -1.
         22    1    3    3    0    0 -0.44428861165E+01 -0.36701696966E+02 -0.29966022281E+02  0.47589035382E+02  0.00000000000E+00 0.  1.
         22    1    3    3    0    0  0.11964554122E+03 -0.84017436806E+02 -0.53519201588E+03  0.55480129694E+03  0.00000000000E+00 0.  1.
</event>
<event>
 7    1  0.5593520E-006  0.4483037E+02  0.7818608E-02  0.1487599E+00
          2   -1    0    0  502    0  0.00000000000E+00  0.00000000000E+00  0.59086099960E+03  0.59086099960E+03  0.00000000000E+00 0. -1.
          1   -1    0    0  501    0 -0.00000000000E+00 -0.00000000000E+00 -0.54835847777E+03  0.54835847777E+03  0.00000000000E+00 0. -1.
         25    2    1    2    0    0  0.30921527746E+02 -0.13207616584E+02  0.16129305824E+03  0.20681203534E+03  0.12500074125E+03 0.  0.
          2    1    1    2  501    0 -0.45166997128E+01  0.44752512714E+02 -0.52359229806E+03  0.52552077272E+03  0.00000000000E+00 0. -1.
          1    1    1    2  502    0 -0.26404828033E+02 -0.31544896131E+02  0.40480176166E+03  0.40688666930E+03  0.00000000000E+00 0. -1.
         22    1    3    3    0    0 -0.28808148766E+02  0.32593445232E+01  0.13736970646E+03  0.14039575854E+03  0.00000000000E+00 0. -1.
         22    1    3    3    0    0  0.59729676512E+02 -0.16466961107E+02  0.23923351773E+02  0.66416276803E+02  0.00000000000E+00 0. -1.
</event>
<event>
 7    1  0.5593520E-006  0.4382808E+02  0.7818608E-02  0.1485474E+00
          2   -1    0    0  502    0  0.00000000000E+00  0.00000000000E+00  0.20765626842E+03  0.20765626842E+03  0.00000000000E+00 0. -1.
          1   -1    0    0  501    0 -0.00000000000E+00 -0.00000000000E+00 -0.17561111701E+03  0.17561111701E+03  0.00000000000E+00 0. -1.
         25    2    1    2    0    0 -0.72479770345E+00 -0.34742434764E+02  0.11826189291E+03  0.17554895691E+03  0.12499599535E+03 0.  0.
          2    1    1    2  501    0  0.43353596635E+02  0.64316338500E+01 -0.13198014297E+03  0.13906710033E+03  0.00000000000E+00 0. -1.
          1    1    1    2  502    0 -0.42628798932E+02  0.28310800914E+02  0.45763401475E+02  0.68651328184E+02  0.00000000000E+00 0. -1.
         22    1    3    3    0    0  0.61532091119E+02 -0.26109303045E+02  0.63169928123E+02  0.91969200073E+02  0.00000000000E+00 0. -1.
         22    1    3    3    0    0 -0.62256888822E+02 -0.86331317197E+01  0.55091964783E+02  0.83579756836E+02  0.00000000000E+00 0. -1.
</event>
<event>
 7    1  0.5593520E-006  0.1240875E+03  0.7818608E-02  0.1270976E+00
          2   -1    0    0  502    0  0.00000000000E+00  0.00000000000E+00  0.13958461877E+04  0.13958461877E+04  0.00000000000E+00 0. -1.
          1   -1    0    0  501    0 -0.00000000000E+00 -0.00000000000E+00 -0.13395011293E+03  0.13395011293E+03  0.00000000000E+00 0. -1.
         25    2    1    2    0    0  0.11298152375E+02  0.51674967549E+02  0.40051208780E+02  0.14151768461E+03  0.12500082086E+03 0.  0.
          2    1    1    2  501    0 -0.52661699891E+02  0.70649003773E+02 -0.55686572191E+02  0.10423785633E+03  0.00000000000E+00 0. -1.
          1    1    1    2  502    0  0.41363547517E+02 -0.12232397132E+03  0.12775314382E+04  0.12840407597E+04  0.00000000000E+00 0. -1.
         22    1    3    3    0    0 -0.19153325511E+02 -0.29197487449E+02 -0.16109761691E+02  0.38456047291E+02  0.00000000000E+00 0. -1.
         22    1    3    3    0    0  0.30451477886E+02  0.80872454999E+02  0.56160970471E+02  0.10306163732E+03  0.00000000000E+00 0. -1.
</event>
<event>
 7    1  0.5593520E-006  0.5449624E+02  0.7818608E-02  0.1432333E+00
          2   -1    0    0  502    0  0.00000000000E+00  0.00000000000E+00  0.36968614431E+03  0.36968614431E+03  0.00000000000E+00 0. -1.
          1   -1    0    0  501    0 -0.00000000000E+00 -0.00000000000E+00 -0.54084339994E+02  0.54084339994E+02  0.00000000000E+00 0. -1.
         25    2    1    2    0    0  0.62421080016E+02  0.69506583212E+02  0.11486416547E+03  0.19377093023E+03  0.12500336216E+03 0.  0.
          2    1    1    2  501    0 -0.45876664756E+02 -0.21267382654E+02  0.51013549869E+02  0.71828630813E+02  0.00000000000E+00 0. -1.
          1    1    1    2  502    0 -0.16544415260E+02 -0.48239200557E+02  0.14972408897E+03  0.15817092326E+03  0.00000000000E+00 0. -1.
         22    1    3    3    0    0 -0.16297084425E+02  0.46125395588E+02  0.98585691469E+02  0.11005582966E+03  0.00000000000E+00 0. -1.
         22    1    3    3    0    0  0.78718164442E+02  0.23381187624E+02  0.16278474002E+02  0.83715100571E+02  0.00000000000E+00 0. -1.
</event>
<event>
 7    1  0.5593520E-006  0.8898200E+02  0.7818608E-02  0.1469252E+00
          2   -1    0    0  502    0  0.00000000000E+00  0.00000000000E+00  0.79478627570E+03  0.79478627570E+03  0.00000000000E+00 0. -1.
          1   -1    0    0  501    0 -0.00000000000E+00 -0.00000000000E+00 -0.12565966459E+03  0.12565966459E+03  0.00000000000E+00 0. -1.
         25    2    1    2    0    0 -0.82023098169E+02 -0.73390142510E+02  0.15908726068E+03  0.23032225496E+03  0.12500273186E+03 0.  0.
          2    1    1    2  501    0  0.62524231061E+02  0.60094777762E+02 -0.68864889430E+02  0.11073858758E+03  0.00000000000E+00 0. -1.
          1    1    1    2  502    0  0.19498867108E+02  0.13295364747E+02  0.57890423987E+03  0.57938509774E+03  0.00000000000E+00 0. -1.
         22    1    3    3    0    0 -0.65382809059E+02 -0.17204921868E+02  0.77680374538E+01  0.68053386858E+02  0.00000000000E+00 0. -1.
         22    1    3    3    0    0 -0.16640289110E+02 -0.56185220642E+02  0.15131922322E+03  0.16226886811E+03  0.00000000000E+00 0. -1.
</event>
<event>
 7    1  0.5770177E-006  0.9361675E+02  0.7818608E-02  0.1339518E+00
          2   -1    0    0  502    0  0.00000000000E+00  0.00000000000E+00  0.57612818518E+03  0.57612818518E+03  0.00000000000E+00 0. -1.
          1   -1    0    0  501    0 -0.00000000000E+00 -0.00000000000E+00 -0.17916426099E+04  0.17916426099E+04  0.00000000000E+00 0. -1.
         25    2    1    2    0    0 -0.32193920781E+02  0.22673383846E+01 -0.37738795963E+03  0.39885698174E+03  0.12499452170E+03 0.  0.
          2    1    1    2  501    0 -0.60138806730E+02  0.16601474365E+02 -0.13988929777E+04  0.14002834885E+04  0.00000000000E+00 0. -1.
          1    1    1    2  502    0  0.92332727511E+02 -0.18868812749E+02  0.56076651262E+03  0.56863032485E+03  0.00000000000E+00 0. -1.
         22    1    3    3    0    0  0.34315433622E+02  0.38830074628E+02 -0.12533693532E+03  0.13562695542E+03  0.00000000000E+00 0.  1.
         22    1    3    3    0    0 -0.66509354403E+02 -0.36562736243E+02 -0.25205102431E+03  0.26323002632E+03  0.00000000000E+00 0.  1.
</event>
<event>
 7    1  0.5593520E-006  0.4922979E+02  0.7818608E-02  0.1559373E+00
          2   -1    0    0  502    0  0.00000000000E+00  0.00000000000E+00  0.39984530293E+03  0.39984530293E+03  0.00000000000E+00 0. -1.
          1   -1    0    0  501    0 -0.00000000000E+00 -0.00000000000E+00 -0.11002561553E+03  0.11002561553E+03  0.00000000000E+00 0. -1.
         25    2    1    2    0    0 -0.41126828128E+02  0.91398023587E+01  0.15471876439E+02  0.13281090303E+03  0.12499762008E+03 0.  0.
          2    1    1    2  501    0 -0.67291807821E+01 -0.22232218006E+02 -0.46722957329E+02  0.52178425935E+02  0.00000000000E+00 0. -1.
          1    1    1    2  502    0  0.47856008910E+02  0.13092415648E+02  0.32107076830E+03  0.32488158949E+03  0.00000000000E+00 0. -1.
         22    1    3    3    0    0 -0.35345856098E+02 -0.55712725551E+02  0.40338534459E+00  0.65980300479E+02  0.00000000000E+00 0.  1.
         22    1    3    3    0    0 -0.57809720301E+01  0.64852527909E+02  0.15068491094E+02  0.66830602554E+02  0.00000000000E+00 0.  1.
</event>
<event>
 7    1  0.5593520E-006  0.1076794E+03  0.7818608E-02  0.1382612E+00
          2   -1    0    0  502    0  0.00000000000E+00  0.00000000000E+00  0.29997348288E+04  0.29997348288E+04  0.00000000000E+00 0. -1.
          1   -1    0    0  501    0 -0.00000000000E+00 -0.00000000000E+00 -0.33520339000E+03  0.33520339000E+03  0.00000000000E+00 0. -1.
         25    2    1    2    0    0 -0.69674595439E+02 -0.54560163594E+02  0.95421612096E+03  0.96642880789E+03  0.12499949801E+03 0.  0.
          2    1    1    2  501    0  0.10204135092E+03  0.35073174289E+02 -0.32007226314E+03  0.33777036353E+03  0.00000000000E+00 0. -1.
          1    1    1    2  502    0 -0.32366755478E+02  0.19486989305E+02  0.20303875809E+04  0.20307390474E+04  0.00000000000E+00 0. -1.
         22    1    3    3    0    0  0.17822726008E+02 -0.21140451743E+02  0.48073287614E+02  0.55458175631E+02  0.00000000000E+00 0.  1.
         22    1    3    3    0    0 -0.87497321446E+02 -0.33419711851E+02  0.90614283335E+03  0.91097063226E+03  0.00000000000E+00 0.  1.
</event>
<event>
 7    1  0.5593520E-006  0.1027379E+03  0.7818608E-02  0.1300225E+00
          2   -1    0    0  502    0  0.00000000000E+00  0.00000000000E+00  0.61983087965E+03  0.61983087965E+03  0.00000000000E+00 0. -1.
          1   -1    0    0  501    0 -0.00000000000E+00 -0.00000000000E+00 -0.21530878666E+04  0.21530878666E+04  0.00000000000E+00 0. -1.
         25    2    1    2    0    0 -0.36581400981E+01  0.15606838963E+03 -0.17440702921E+03  0.26535520396E+03  0.12499939280E+03 0.  0.
          2    1    1    2  501    0  0.48873738077E+02 -0.89142092998E+02 -0.19290221274E+04  0.19316990768E+04  0.00000000000E+00 0. -1.
          1    1    1    2  502    0 -0.45215597979E+02 -0.66926296631E+02  0.57017216974E+03  0.57586446550E+03  0.00000000000E+00 0. -1.
         22    1    3    3    0    0  0.24840209157E+02  0.73115253606E+01 -0.86365433001E+02  0.90163642404E+02  0.00000000000E+00 0.  1.
         22    1    3    3    0    0 -0.28498349255E+02  0.14875686427E+03 -0.88041596213E+02  0.17519156156E+03  0.00000000000E+00 0.  1.
</event>
<event>
 7    1  0.5593520E-006  0.8618150E+02  0.7818608E-02  0.1313552E+00
          2   -1    0    0  502    0  0.00000000000E+00  0.00000000000E+00  0.29485319623E+04  0.29485319623E+04  0.00000000000E+00 0. -1.
          1   -1    0    0  501    0 -0.00000000000E+00 -0.00000000000E+00 -0.31811117071E+03  0.31811117071E+03  0.00000000000E+00 0. -1.
         25    2    1    2    0    0 -0.92276515537E+01  0.96814084542E+02  0.54324970204E+03  0.56586288872E+03  0.12498981378E+03 0.  0.
          2    1    1    2  501    0  0.75191239543E+02 -0.42783391933E+02 -0.29992975514E+03  0.31215701041E+03  0.00000000000E+00 0. -1.
          1    1    1    2  502    0 -0.65963587989E+02 -0.54030692609E+02  0.23871008447E+04  0.23886232339E+04  0.00000000000E+00 0. -1.
         22    1    3    3    0    0 -0.44340582692E+02  0.10875301748E+03  0.35277327418E+03  0.37180947952E+03  0.00000000000E+00 0.  1.
         22    1    3    3    0    0  0.35112931138E+02 -0.11938932940E+02  0.19047642786E+03  0.19405340920E+03  0.00000000000E+00 0.  1.
</event>
<event>
 7    1  0.5593520E-006  0.7530681E+02  0.7818608E-02  0.1363423E+00
          2   -1    0    0  502    0  0.00000000000E+00  0.00000000000E+00  0.11722261400E+04  0.11722261400E+04  0.00000000000E+00 0. -1.
          1   -1    0    0  501    0 -0.00000000000E+00 -0.00000000000E+00 -0.13667678877E+04  0.13667678877E+04  0.00000000000E+00 0. -1.
         25    2    1    2    0    0  0.45073779665E+02  0.12883517290E+03  0.91827011688E+02  0.20661019957E+03  0.12500170840E+03 0.  0.
          2    1    1    2  501    0 -0.14431214124E+02 -0.73473531696E+02 -0.13073255337E+04  0.13094680870E+04  0.00000000000E+00 0. -1.
          1    1    1    2  502    0 -0.30642565541E+02 -0.55361641203E+02  0.10209567743E+04  0.10229157410E+04  0.00000000000E+00 0. -1.
         22    1    3    3    0    0  0.70096319181E+02  0.13718587553E+03  0.60137983089E+02  0.16537846117E+03  0.00000000000E+00 0.  1.
         22    1    3    3    0    0 -0.25022539515E+02 -0.83507026358E+01  0.31689028599E+02  0.41231738404E+02  0.00000000000E+00 0.  1.
</event>
<event>
 7    1  0.5593520E-006  0.1145706E+03  0.7818608E-02  0.1256637E+00
          2   -1    0    0  502    0  0.00000000000E+00  0.00000000000E+00  0.55842219470E+03  0.55842219470E+03  0.00000000000E+00 0. -1.
          1   -1    0    0  501    0 -0.00000000000E+00 -0.00000000000E+00 -0.16669650388E+03  0.16669650388E+03  0.00000000000E+00 0. -1.
         25    2    1    2    0    0 -0.30536832089E+02  0.11238369344E+02 -0.78221505281E+02  0.15100717413E+03  0.12500305472E+03 0.  0.
          2    1    1    2  501    0 -0.60998881192E+02 -0.91276932652E+02  0.24656670720E+02  0.11251796902E+03  0.00000000000E+00 0. -1.
          1    1    1    2  502    0  0.91535713281E+02  0.80038563308E+02  0.44529052538E+03  0.46159355543E+03  0.00000000000E+00 0. -1.
         22    1    3    3    0    0 -0.15780424046E+02 -0.32586405964E+02  0.20774809319E+02  0.41743123253E+02  0.00000000000E+00 0. -1.
         22    1    3    3    0    0 -0.14756408043E+02  0.43824775308E+02 -0.98996314600E+02  0.10926405087E+03  0.00000000000E+00 0. -1.
</event>
<event>
 7    1  0.5593520E-006  0.1350388E+03  0.7818608E-02  0.1368835E+00
          2   -1    0    0  502    0  0.00000000000E+00  0.00000000000E+00  0.90526498386E+03  0.90526498386E+03  0.00000000000E+00 0. -1.
          1   -1    0    0  501    0 -0.00000000000E+00 -0.00000000000E+00 -0.86757856691E+02  0.86757856691E+02  0.00000000000E+00 0. -1.
         25    2    1    2    0    0  0.40295990320E+02  0.11513643677E+03  0.21967447577E+03  0.28064782529E+03  0.12500464243E+03 0.  0.
          2    1    1    2  501    0 -0.16866596487E+02 -0.13940453290E+03  0.32622311815E+02  0.14416074742E+03  0.00000000000E+00 0. -1.
          1    1    1    2  502    0 -0.23429393833E+02  0.24268096123E+02  0.56621033958E+03  0.56721426784E+03  0.00000000000E+00 0. -1.
         22    1    3    3    0    0 -0.40244535480E+01  0.12657080199E+03  0.14011430051E+03  0.18886074592E+03  0.00000000000E+00 0. -1.
         22    1    3    3    0    0  0.44320443868E+02 -0.11434365213E+02  0.79560175259E+02  0.91787079372E+02  0.00000000000E+00 0. -1.
</event>
<event>
 7    1  0.5593520E-006  0.2618123E+03  0.7818608E-02  0.1162306E+00
          2   -1    0    0  502    0  0.00000000000E+00  0.00000000000E+00  0.28966453276E+03  0.28966453276E+03  0.00000000000E+00 0. -1.
          1   -1    0    0  501    0 -0.00000000000E+00 -0.00000000000E+00 -0.13218784181E+04  0.13218784181E+04  0.00000000000E+00 0. -1.
         25    2    1    2    0    0  0.36626626155E+02  0.62885253865E+02  0.27688176301E+01  0.14466656172E+03  0.12499873132E+03 0.  0.
          2    1    1    2  501    0 -0.23860530487E+03  0.10776443646E+03 -0.11493448248E+04  0.11787871697E+04  0.00000000000E+00 0. -1.
          1    1    1    2  502    0  0.20197867872E+03 -0.17064969032E+03  0.11436212177E+03  0.28808921944E+03  0.00000000000E+00 0. -1.
         22    1    3    3    0    0  0.71426476464E+02  0.54660546029E+02  0.35013700268E+02  0.96516713779E+02  0.00000000000E+00 0.  1.
         22    1    3    3    0    0 -0.34799850309E+02  0.82247078362E+01 -0.32244882638E+02  0.48149847942E+02  0.00000000000E+00 0.  1.
</event>
<event>
 7    1  0.5593520E-006  0.8454937E+02  0.7818608E-02  0.1327447E+00
          2   -1    0    0  502    0  0.00000000000E+00  0.00000000000E+00  0.23105617127E+04  0.23105617127E+04  0.00000000000E+00 0. -1.
          1   -1    0    0  501    0 -0.00000000000E+00 -0.00000000000E+00 -0.35838159108E+02  0.35838159108E+02  0.00000000000E+00 0. -1.
         25    2    1    2    0    0  0.13206536304E+02  0.12262441037E+02  0.93087306192E+03  0.93940115648E+03  0.12500038130E+03 0.  0.
          2    1    1    2  501    0 -0.89469622344E+02 -0.34151056173E+01  0.35370195355E+02  0.96267995659E+02  0.00000000000E+00 0. -1.
          1    1    1    2  502    0  0.76263086040E+02 -0.88473354197E+01  0.13084802963E+04  0.13107307196E+04  0.00000000000E+00 0. -1.
         22    1    3    3    0    0 -0.49156383786E+02 -0.31548131660E+01  0.62036328200E+03  0.62231575953E+03  0.00000000000E+00 0. -1.
         22    1    3    3    0    0  0.62362920090E+02  0.15417254203E+02  0.31050977993E+03  0.31708539695E+03  0.00000000000E+00 0. -1.
</event>
<event>
 7    1  0.5593520E-006  0.1908115E+03  0.7818608E-02  0.1198785E+00
          2   -1    0    0  502    0  0.00000000000E+00  0.00000000000E+00  0.55828417346E+03  0.55828417346E+03  0.00000000000E+00 0. -1.
          1   -1    0    0  501    0 -0.00000000000E+00 -0.00000000000E+00 -0.16799651339E+04  0.16799651339E+04  0.00000000000E+00 0. -1.
         25    2    1    2    0    0  0.11501985620E+03  0.15478112389E+03  0.32694477068E+03  0.39963082526E+03  0.12500059916E+03 0.  0.
          2    1    1    2  501    0  0.83317951435E+02 -0.86499364969E+02 -0.15842722847E+04  0.15888180176E+04  0.00000000000E+00 0. -1.
          1    1    1    2  502    0 -0.19833780763E+03 -0.68281758924E+02  0.13564655358E+03  0.24980046444E+03  0.00000000000E+00 0. -1.
         22    1    3    3    0    0  0.22433112489E+02  0.13197318041E+03  0.20487478041E+03  0.24473218123E+03  0.00000000000E+00 0.  1.
         22    1    3    3    0    0  0.92586743709E+02  0.22807943481E+02  0.12206999027E+03  0.15489864403E+03  0.00000000000E+00 0.  1.
</event>
<event>
 7    1  0.5593520E-006  0.4122903E+02  0.7818608E-02  0.1611274E+00
          2   -1    0    0  502    0  0.00000000000E+00  0.00000000000E+00  0.50862583007E+03  0.50862583007E+03  0.00000000000E+00 0. -1.
          1   -1    0    0  501    0 -0.00000000000E+00 -0.00000000000E+00 -0.65479059071E+03  0.65479059071E+03  0.00000000000E+00 0. -1.
         25    2    1    2    0    0 -0.79288420984E+01  0.24217074122E+02 -0.80355770653E+02  0.15076687388E+03  0.12499706863E+03 0.  0.
          2    1    1    2  501    0  0.10781972534E+02  0.17051187292E+02 -0.53813625625E+03  0.53851427485E+03  0.00000000000E+00 0. -1.
          1    1    1    2  502    0 -0.28531304355E+01 -0.41268261414E+02  0.47232726626E+03  0.47413527205E+03  0.00000000000E+00 0. -1.
         22    1    3    3    0    0 -0.59379559584E+01  0.75234109086E+02 -0.57250673013E+02  0.94726290180E+02  0.00000000000E+00 0. -1.
         22    1    3    3    0    0 -0.19908861400E+01 -0.51017034963E+02 -0.23105097641E+02  0.56040583697E+02  0.00000000000E+00 0. -1.
</event>
<event>
 7    1  0.5593520E-006  0.1791454E+03  0.7818608E-02  0.1236193E+00
          2   -1    0    0  502    0  0.00000000000E+00  0.00000000000E+00  0.13494050258E+04  0.13494050258E+04  0.00000000000E+00 0. -1.
          1   -1    0    0  501    0 -0.00000000000E+00 -0.00000000000E+00 -0.16618553481E+03  0.16618553481E+03  0.00000000000E+00 0. -1.
         25    2    1    2    0    0  0.86916556999E+02  0.55164783662E+02  0.31329361302E+02  0.16493780722E+03  0.12500124053E+03 0.  0.
          2    1    1    2  501    0  0.82679912015E+02  0.24463031673E+02 -0.72106161691E+02  0.11239976122E+03  0.00000000000E+00 0. -1.
          1    1    1    2  502    0 -0.16959646901E+03 -0.79627815335E+02  0.12239962914E+04  0.12382529921E+04  0.00000000000E+00 0. -1.
         22    1    3    3    0    0  0.48418959648E+02  0.72619352718E+02  0.66677771403E+02  0.10983574665E+03  0.00000000000E+00 0. -1.
         22    1    3    3    0    0  0.38497597351E+02 -0.17454569056E+02 -0.35348410101E+02  0.55102060573E+02  0.00000000000E+00 0. -1.
</event>
<event>
 7    1  0.5593520E-006  0.4420426E+02  0.7818608E-02  0.1556080E+00
          2   -1    0    0  502    0  0.00000000000E+00  0.00000000000E+00  0.40267130128E+03  0.40267130128E+03  0.00000000000E+00 0. -1.
          1   -1    0    0  501    0 -0.00000000000E+00 -0.00000000000E+00 -0.50024695860E+03  0.50024695860E+03  0.00000000000E+00 0. -1.
         25    2    1    2    0    0  0.47311925091E+02 -0.49897774993E+02 -0.60252610801E+02  0.15487508671E+03  0.12501083621E+03 0.  0.
          2    1    1    2  501    0 -0.12334172140E+02  0.23360023087E+02 -0.39087944264E+03  0.39177105707E+03  0.00000000000E+00 0. -1.
          1    1    1    2  502    0 -0.34977752951E+02  0.26537751906E+02  0.35355639612E+03  0.35627211611E+03  0.00000000000E+00 0. -1.
         22    1    3    3    0    0  0.50994669712E+02 -0.58693577052E+02  0.14860173015E+02  0.79159440803E+02  0.00000000000E+00 0.  1.
         22    1    3    3    0    0 -0.36827446212E+01  0.87958020597E+01 -0.75112783816E+02  0.75715645902E+02  0.00000000000E+00 0.  1.
</event>
<event>
 7    1  0.5593520E-006  0.5551050E+02  0.7818608E-02  0.1494507E+00
          2   -1    0    0  502    0  0.00000000000E+00  0.00000000000E+00  0.72135701628E+03  0.72135701628E+03  0.00000000000E+00 0. -1.
          1   -1    0    0  501    0 -0.00000000000E+00 -0.00000000000E+00 -0.18151338989E+04  0.18151338989E+04  0.00000000000E+00 0. -1.
         25    2    1    2    0    0  0.62245665878E+02  0.51725310546E+02  0.38693190473E+03  0.41459752603E+03  0.12499911606E+03 0.  0.
          2    1    1    2  501    0 -0.16749648911E+02 -0.26871048116E+02 -0.17990650396E+04  0.17993436638E+04  0.00000000000E+00 0. -1.
          1    1    1    2  502    0 -0.45496016967E+02 -0.24854262430E+02  0.31835625226E+03  0.32254972528E+03  0.00000000000E+00 0. -1.
         22    1    3    3    0    0  0.30866196042E+02  0.74576965646E+02  0.35579326426E+03  0.36483323965E+03  0.00000000000E+00 0. -1.
         22    1    3    3    0    0  0.31379469836E+02 -0.22851655100E+02  0.31138640476E+02  0.49764286378E+02  0.00000000000E+00 0. -1.
</event>
<event>
 7    1  0.5593520E-006  0.9879074E+02  0.7818608E-02  0.1336500E+00
          2   -1    0    0  502    0  0.00000000000E+00  0.00000000000E+00  0.23627389826E+03  0.23627389826E+03  0.00000000000E+00 0. -1.
          1   -1    0    0  501    0 -0.00000000000E+00 -0.00000000000E+00 -0.58372902481E+03  0.58372902481E+03  0.00000000000E+00 0. -1.
         25    2    1    2    0    0  0.62803240157E+02 -0.31327508116E+02  0.72562579630E+02  0.16067808759E+03  0.12500584038E+03 0.  0.
          2    1    1    2  501    0 -0.98984116891E+02 -0.17400347260E+02 -0.52690746008E+03  0.53640665448E+03  0.00000000000E+00 0. -1.
          1    1    1    2  502    0  0.36180876733E+02  0.48727855376E+02  0.10688975390E+03  0.12291818100E+03  0.00000000000E+00 0. -1.
         22    1    3    3    0    0  0.10078807994E+02 -0.56706988075E+02  0.83213785484E+02  0.10120177351E+03  0.00000000000E+00 0. -1.
         22    1    3    3    0    0  0.52724432164E+02  0.25379479959E+02 -0.10651205854E+02  0.59476314076E+02  0.00000000000E+00 0. -1.
</event>
<event>
 7    1  0.5593520E-006  0.1102589E+03  0.7818608E-02  0.1345554E+00
          2   -1    0    0  502    0  0.00000000000E+00  0.00000000000E+00  0.23595089358E+03  0.23595089358E+03  0.00000000000E+00 0. -1.
          1   -1    0    0  501    0 -0.00000000000E+00 -0.00000000000E+00 -0.46553544014E+03  0.46553544014E+03  0.00000000000E+00 0. -1.
         25    2    1    2    0    0 -0.54262936472E+02  0.11257215556E+03 -0.11208062676E+03  0.20929421971E+03  0.12500018810E+03 0.  0.
          2    1    1    2  501    0  0.50197995456E+02 -0.29238227017E+01 -0.28640195801E+03  0.29078251158E+03  0.00000000000E+00 0. -1.
          1    1    1    2  502    0  0.40649410157E+01 -0.10964833286E+03  0.16889803821E+03  0.20140960244E+03  0.00000000000E+00 0. -1.
         22    1    3    3    0    0 -0.78379256997E+02  0.63230612016E+02 -0.20898770983E+02  0.10285026423E+03  0.00000000000E+00 0.  1.
         22    1    3    3    0    0  0.24116320525E+02  0.49341543548E+02 -0.91181855778E+02  0.10644395548E+03  0.00000000000E+00 0.  1.
</event>
<event>
 7    1  0.5593520E-006  0.1463891E+03  0.7818608E-02  0.1277964E+00
          2   -1    0    0  502    0  0.00000000000E+00  0.00000000000E+00  0.71170846172E+03  0.71170846172E+03  0.00000000000E+00 0. -1.
          1   -1    0    0  501    0 -0.00000000000E+00 -0.00000000000E+00 -0.16385752729E+03  0.16385752729E+03  0.00000000000E+00 0. -1.
         25    2    1    2    0    0 -0.48311913294E+02 -0.17116641665E+03  0.33878247609E+03  0.40253052471E+03  0.12500109626E+03 0.  0.
          2    1    1    2  501    0  0.88368505619E+02  0.11394851479E+03 -0.87287756118E+02  0.16855980890E+03  0.00000000000E+00 0. -1.
          1    1    1    2  502    0 -0.40056592325E+02  0.57217901855E+02  0.29635621446E+03  0.30447565540E+03  0.00000000000E+00 0. -1.
         22    1    3    3    0    0 -0.10441849884E+02 -0.17756215672E+03  0.26191004471E+03  0.31659788889E+03  0.00000000000E+00 0. -1.
         22    1    3    3    0    0 -0.37870063410E+02  0.63957400743E+01  0.76872431371E+02  0.85932635818E+02  0.00000000000E+00 0. -1.
</event>
<event>
 7    1  0.5593520E-006  0.9810140E+02  0.7818608E-02  0.1300244E+00
          2   -1    0    0  502    0  0.00000000000E+00  0.00000000000E+00  0.30097698301E+04  0.30097698301E+04  0.00000000000E+00 0. -1.
          1   -1    0    0  501    0 -0.00000000000E+00 -0.00000000000E+00 -0.15570536931E+03  0.15570536931E+03  0.00000000000E+00 0. -1.
         25    2    1    2    0    0  0.20624805806E+02 -0.43916711196E+01  0.34532819834E+03  0.36785933867E+03  0.12499703631E+03 0.  0.
          2    1    1    2  501    0 -0.97151928957E+02 -0.31607588524E+02 -0.12561039271E+03  0.16191203695E+03  0.00000000000E+00 0. -1.
          1    1    1    2  502    0  0.76527123151E+02  0.35999259643E+02  0.26343466552E+04  0.26357038238E+04  0.00000000000E+00 0. -1.
         22    1    3    3    0    0 -0.52017503022E+02  0.65223662753E+01  0.12286918594E+03  0.13358592267E+03  0.00000000000E+00 0. -1.
         22    1    3    3    0    0  0.72642308827E+02 -0.10914037395E+02  0.22245901240E+03  0.23427341600E+03  0.00000000000E+00 0. -1.
</event>
<event>
 7    1  0.5593520E-006  0.7446200E+02  0.7818608E-02  0.1473574E+00
          2   -1    0    0  502    0  0.00000000000E+00  0.00000000000E+00  0.13592982945E+04  0.13592982945E+04  0.00000000000E+00 0. -1.
          1   -1    0    0  501    0 -0.00000000000E+00 -0.00000000000E+00 -0.94091874571E+03  0.94091874571E+03  0.00000000000E+00 0. -1.
         25    2    1    2    0    0 -0.52860349898E+02  0.63704922889E+02 -0.97061137907E+01  0.15023757476E+03  0.12499834572E+03 0.  0.
          2    1    1    2  501    0  0.26163559848E+02 -0.69619444020E+02 -0.85919524141E+03  0.86240817581E+03  0.00000000000E+00 0. -1.
          1    1    1    2  502    0  0.26696790051E+02  0.59145211314E+01  0.12872809040E+04  0.12875712897E+04  0.00000000000E+00 0. -1.
         22    1    3    3    0    0 -0.34776881529E+02  0.93499225779E+02  0.23074377034E+02  0.10239122807E+03  0.00000000000E+00 0.  1.
         22    1    3    3    0    0 -0.18083468370E+02 -0.29794302890E+02 -0.32780490825E+02  0.47846346691E+02  0.00000000000E+00 0.  1.
</event>
<event>
 7    1  0.5593520E-006  0.1724788E+03  0.7818608E-02  0.1265572E+00
          2   -1    0    0  502    0  0.00000000000E+00  0.00000000000E+00  0.63777449916E+03  0.63777449916E+03  0.00000000000E+00 0. -1.
          1   -1    0    0  501    0 -0.00000000000E+00 -0.00000000000E+00 -0.51327053669E+03  0.51327053669E+03  0.00000000000E+00 0. -1.
         25    2    1    2    0    0 -0.10704324911E+03 -0.17824120806E+02  0.35879171773E+03  0.39513718736E+03  0.12500377459E+03 0.  0.
          2    1    1    2  501    0  0.17159742721E+03  0.35017643183E+02 -0.47491570142E+03  0.50617865997E+03  0.00000000000E+00 0. -1.
          1    1    1    2  502    0 -0.64554178100E+02 -0.17193522377E+02  0.24062794616E+03  0.24972918851E+03  0.00000000000E+00 0. -1.
         22    1    3    3    0    0 -0.98968426478E+01 -0.50325977661E+02  0.58227903872E+02  0.77596007057E+02  0.00000000000E+00 0. -1.
         22    1    3    3    0    0 -0.97146406463E+02  0.32501856855E+02  0.30056381386E+03  0.31754118031E+03  0.00000000000E+00 0. -1.
</event>
<event>
 7    1  0.5593520E-006  0.3688433E+02  0.7818608E-02  0.1576900E+00
          2   -1    0    0  502    0  0.00000000000E+00  0.00000000000E+00  0.58497687843E+02  0.58497687843E+02  0.00000000000E+00 0. -1.
          1   -1    0    0  501    0 -0.00000000000E+00 -0.00000000000E+00 -0.18960510715E+04  0.18960510715E+04  0.00000000000E+00 0. -1.
         25    2    1    2    0    0 -0.14801768443E+02  0.59765543860E+02 -0.84361718341E+02  0.16289124662E+03  0.12500258446E+03 0.  0.
          2    1    1    2  501    0  0.49847270707E+01 -0.27325006162E+02 -0.17572968974E+04  0.17575163980E+04  0.00000000000E+00 0. -1.
          1    1    1    2  502    0  0.98170413724E+01 -0.32440537698E+02  0.41052320812E+01  0.34141114772E+02  0.00000000000E+00 0. -1.
         22    1    3    3    0    0  0.31950130868E+02  0.22510798076E+02 -0.94494698444E+02  0.10225847117E+03  0.00000000000E+00 0.  1.
         22    1    3    3    0    0 -0.46751899311E+02  0.37254745783E+02  0.10132980103E+02  0.60632775446E+02  0.00000000000E+00 0.  1.
</event>
<event>
 7    1  0.5593520E-006  0.2235513E+03  0.7818608E-02  0.1273607E+00
          2   -1    0    0  502    0  0.00000000000E+00  0.00000000000E+00  0.13371782197E+04  0.13371782197E+04  0.00000000000E+00 0. -1.
          1   -1    0    0  501    0 -0.00000000000E+00 -0.00000000000E+00 -0.61637086124E+03  0.61637086124E+03  0.00000000000E+00 0. -1.
         25    2    1    2    0    0 -0.99611874839E+01 -0.20181333347E+03 -0.32813177214E+03  0.40511975570E+03  0.12499483888E+03 0.  0.
          2    1    1    2  501    0 -0.45080946274E+02 -0.15548260302E+02 -0.23768091034E+03  0.24241752259E+03  0.00000000000E+00 0. -1.
          1    1    1    2  502    0  0.55042133758E+02  0.21736159377E+03  0.12866200410E+04  0.13060118027E+04  0.00000000000E+00 0. -1.
         22    1    3    3    0    0  0.31003145346E+02 -0.71226321940E+02 -0.42870079153E+02  0.88725574921E+02  0.00000000000E+00 0.  1.
         22    1    3    3    0    0 -0.40964332830E+02 -0.13058701153E+03 -0.28526169298E+03  0.31639418077E+03  0.00000000000E+00 0.  1.
</event>
<event>
 7    1  0.5593520E-006  0.1311482E+03  0.7818608E-02  0.1347907E+00
          2   -1    0    0  502    0  0.00000000000E+00  0.00000000000E+00  0.72447234980E+03  0.72447234980E+03  0.00000000000E+00 0. -1.
          1   -1    0    0  501    0 -0.00000000000E+00 -0.00000000000E+00 -0.71396358033E+03  0.71396358033E+03  0.00000000000E+00 0. -1.
         25    2    1    2    0    0  0.72703718632E+02 -0.14636585197E+03  0.27791662392E+03  0.34579188546E+03  0.12500233946E+03 0.  0.
          2    1    1    2  501    0 -0.13184244787E+02  0.39275969150E+02 -0.67027739067E+03  0.67155655496E+03  0.00000000000E+00 0. -1.
          1    1    1    2  502    0 -0.59519473844E+02  0.10708988282E+03  0.40286953623E+03  0.42108748971E+03  0.00000000000E+00 0. -1.
         22    1    3    3    0    0  0.27146997966E+02  0.19008172387E+02  0.32897500540E+02  0.46695991882E+02  0.00000000000E+00 0.  1.
         22    1    3    3    0    0  0.45556720665E+02 -0.16537402436E+03  0.24501912338E+03  0.29909589357E+03  0.00000000000E+00 0.  1.
</event>
<event>
 7    1  0.5593520E-006  0.8267863E+02  0.7818608E-02  0.1387651E+00
          2   -1    0    0  502    0  0.00000000000E+00  0.00000000000E+00  0.23420803186E+04  0.23420803186E+04  0.00000000000E+00 0. -1.
          1   -1    0    0  501    0 -0.00000000000E+00 -0.00000000000E+00 -0.44536590716E+03  0.44536590716E+03  0.00000000000E+00 0. -1.
         25    2    1    2    0    0  0.21231194044E+02  0.81508325897E+02  0.44244797900E+03  0.46741844572E+03  0.12500167395E+03 0.  0.
          2    1    1    2  501    0 -0.47188774072E+02 -0.21572829147E+01 -0.43066517022E+03  0.43324810803E+03  0.00000000000E+00 0. -1.
          1    1    1    2  502    0  0.25957580028E+02 -0.79351042982E+02  0.18849316026E+04  0.18867796720E+04  0.00000000000E+00 0. -1.
         22    1    3    3    0    0  0.51867280857E+00  0.71960610095E+02  0.94781831744E+02  0.11900501693E+03  0.00000000000E+00 0.  1.
         22    1    3    3    0    0  0.20712521235E+02  0.95477158023E+01  0.34766614726E+03  0.34841342879E+03  0.00000000000E+00 0.  1.
</event>
<event>
 7    1  0.5593520E-006  0.2737831E+03  0.7818608E-02  0.1205150E+00
          2   -1    0    0  502    0  0.00000000000E+00  0.00000000000E+00  0.61843052370E+03  0.61843052370E+03  0.00000000000E+00 0. -1.
          1   -1    0    0  501    0 -0.00000000000E+00 -0.00000000000E+00 -0.29093564671E+03  0.29093564671E+03  0.00000000000E+00 0. -1.
         25    2    1    2    0    0 -0.30757876525E+03 -0.21091453954E+02  0.16047833335E+02  0.33306091281E+03  0.12498996930E+03 0.  0.
          2    1    1    2  501    0  0.24952533408E+03 -0.31198650777E+02 -0.38239207696E+01  0.25149725750E+03  0.00000000000E+00 0. -1.
          1    1    1    2  502    0  0.58053431172E+02  0.52290104731E+02  0.31527096443E+03  0.32480800011E+03  0.00000000000E+00 0. -1.
         22    1    3    3    0    0 -0.31758657381E+03 -0.10367453616E+02  0.12667735215E+02  0.31800815630E+03  0.00000000000E+00 0.  1.
         22    1    3    3    0    0  0.10007808556E+02 -0.10724000337E+02  0.33800981199E+01  0.15052756513E+02  0.00000000000E+00 0.  1.
</event>
<event>
 7    1  0.5593520E-006  0.1363471E+03  0.7818608E-02  0.1291611E+00
          2   -1    0    0  502    0  0.00000000000E+00  0.00000000000E+00  0.12247157542E+04  0.12247157542E+04  0.00000000000E+00 0. -1.
          1   -1    0    0  501    0 -0.00000000000E+00 -0.00000000000E+00 -0.49199841580E+03  0.49199841580E+03  0.00000000000E+00 0. -1.
         25    2    1    2    0    0 -0.10082019070E+03 -0.13482898730E+03  0.23001988757E+03  0.31125232563E+03  0.12500117944E+03 0.  0.
          2    1    1    2  501    0  0.65677000392E+02  0.56904033323E+01 -0.44424439648E+03  0.44910904342E+03  0.00000000000E+00 0. -1.
          1    1    1    2  502    0  0.35143190311E+02  0.12913858397E+03  0.94694184733E+03  0.95635280097E+03  0.00000000000E+00 0. -1.
         22    1    3    3    0    0 -0.93339369820E+02 -0.65327297844E+02  0.62985961880E+02  0.13018112458E+03  0.00000000000E+00 0.  1.
         22    1    3    3    0    0 -0.74808208832E+01 -0.69501689460E+02  0.16703392569E+03  0.18107120105E+03  0.00000000000E+00 0.  1.
</event>
<event>
 7    1  0.5593520E-006  0.2153292E+03  0.7818608E-02  0.1244808E+00
          2   -1    0    0  502    0  0.00000000000E+00  0.00000000000E+00  0.21933236635E+04  0.21933236635E+04  0.00000000000E+00 0. -1.
          1   -1    0    0  501    0 -0.00000000000E+00 -0.00000000000E+00 -0.14487236084E+04  0.14487236084E+04  0.00000000000E+00 0. -1.
         25    2    1    2    0    0  0.28826088246E+02  0.15483764634E+03  0.22174374847E+03  0.29933543018E+03  0.12500307872E+03 0.  0.
          2    1    1    2  501    0 -0.70881179163E+02 -0.20535287719E+03 -0.14009950208E+04  0.14177379850E+04  0.00000000000E+00 0. -1.
          1    1    1    2  502    0  0.42055090917E+02  0.50515230850E+02  0.19238513274E+04  0.19249738568E+04  0.00000000000E+00 0. -1.
         22    1    3    3    0    0  0.47269529658E+02  0.15108983555E+03  0.12761157206E+03  0.20334025711E+03  0.00000000000E+00 0. -1.
         22    1    3    3    0    0 -0.18443441413E+02  0.37478107986E+01  0.94132176412E+02  0.95995173071E+02  0.00000000000E+00 0. -1.
</event>
<event>
 7    1  0.5593520E-006  0.3734630E+02  0.7818608E-02  0.1590242E+00
          2   -1    0    0  502    0  0.00000000000E+00  0.00000000000E+00  0.15205640148E+03  0.15205640148E+03  0.00000000000E+00 0. -1.
          1   -1    0    0  501    0 -0.00000000000E+00 -0.00000000000E+00 -0.47542072999E+03  0.47542072999E+03  0.00000000000E+00 0. -1.
         25    2    1    2    0    0  0.30028357315E+02 -0.24903449568E+01  0.23480436942E+02  0.13070673200E+03  0.12500005924E+03 0.  0.
          2    1    1    2  501    0 -0.29437082034E+01 -0.25100655829E+02 -0.41641359165E+03  0.41717980254E+03  0.00000000000E+00 0. -1.
          1    1    1    2  502    0 -0.27084649112E+02  0.27591000786E+02  0.69568826195E+02  0.79590596932E+02  0.00000000000E+00 0. -1.
         22    1    3    3    0    0  0.28938702772E+02  0.23935041967E+02  0.68715060648E+02  0.78307689992E+02  0.00000000000E+00 0. -1.
         22    1    3    3    0    0  0.10896545436E+01 -0.26425386924E+02 -0.45234623705E+02  0.52399042003E+02  0.00000000000E+00 0. -1.
</event>
<event>
 7    1  0.5593520E-006  0.2584377E+03  0.7818608E-02  0.1265689E+00
          2   -1    0    0  502    0  0.00000000000E+00  0.00000000000E+00  0.70447406222E+03  0.70447406222E+03  0.00000000000E+00 0. -1.
          1   -1    0    0  501    0 -0.00000000000E+00 -0.00000000000E+00 -0.70051214380E+03  0.70051214380E+03  0.00000000000E+00 0. -1.
         25    2    1    2    0    0 -0.21135573705E+03  0.94889215863E+02 -0.13069063486E+03  0.29390567953E+03  0.12500118218E+03 0.  0.
          2    1    1    2  501    0  0.25563506848E+03 -0.90134129429E+02 -0.44967769427E+03  0.52505569062E+03  0.00000000000E+00 0. -1.
          1    1    1    2  502    0 -0.44279331427E+02 -0.47550864339E+01  0.58433024756E+03  0.58602483587E+03  0.00000000000E+00 0. -1.
         22    1    3    3    0    0 -0.41583746612E+02  0.71701167346E+02 -0.80048787579E+02  0.11523052449E+03  0.00000000000E+00 0. -1.
         22    1    3    3    0    0 -0.16977199044E+03  0.23188048517E+02 -0.50641847284E+02  0.17867515504E+03  0.00000000000E+00 0. -1.
</event>
<event>
 7    1  0.5593520E-006  0.1792279E+03  0.7818608E-02  0.1307313E+00
          2   -1    0    0  502    0  0.00000000000E+00  0.00000000000E+00  0.91578963823E+03  0.91578963823E+03  0.00000000000E+00 0. -1.
          1   -1    0    0  501    0 -0.00000000000E+00 -0.00000000000E+00 -0.88221450998E+03  0.88221450998E+03  0.00000000000E+00 0. -1.
         25    2    1    2    0    0 -0.98084419230E+02 -0.18143919744E+03 -0.39563993052E+03  0.46335399358E+03  0.12500093233E+03 0.  0.
          2    1    1    2  501    0  0.64147042745E+02  0.15440747804E+03 -0.43671770268E+03  0.46763111980E+03  0.00000000000E+00 0. -1.
          1    1    1    2  502    0  0.33937376485E+02  0.27031719396E+02  0.86593276146E+03  0.86701903482E+03  0.00000000000E+00 0. -1.
         22    1    3    3    0    0 -0.98752029144E+02 -0.69610146012E+02 -0.26594265990E+03  0.29210106820E+03  0.00000000000E+00 0. -1.
         22    1    3    3    0    0  0.66760991385E+00 -0.11182905142E+03 -0.12969727062E+03  0.17125292538E+03  0.00000000000E+00 0. -1.
</event>
<event>
 7    1  0.5593520E-006  0.1900672E+03  0.7818608E-02  0.1213669E+00
          2   -1    0    0  502    0  0.00000000000E+00  0.00000000000E+00  0.10307376374E+04  0.10307376374E+04  0.00000000000E+00 0. -1.
          1   -1    0    0  501    0 -0.00000000000E+00 -0.00000000000E+00 -0.59787174248E+03  0.59787174248E+03  0.00000000000E+00 0. -1.
         25    2    1    2    0    0 -0.69105468376E+02  0.93900506486E+02  0.44430173981E+02  0.17661100361E+03  0.12499814142E+03 0.  0.
          2    1    1    2  501    0  0.16999667062E+03 -0.11335770718E+03 -0.50911456161E+03  0.54858588629E+03  0.00000000000E+00 0. -1.
          1    1    1    2  502    0 -0.10089120225E+03  0.19457200692E+02  0.89755028251E+03  0.90341248994E+03  0.00000000000E+00 0. -1.
         22    1    3    3    0    0 -0.95900003031E+02  0.81726941443E+02  0.63945726436E+02  0.14129812266E+03  0.00000000000E+00 0. -1.
         22    1    3    3    0    0  0.26794534656E+02  0.12173565043E+02 -0.19515552454E+02  0.35312880948E+02  0.00000000000E+00 0. -1.
</event>
<event>
 7    1  0.5593520E-006  0.5864486E+02  0.7818608E-02  0.1490174E+00
          2   -1    0    0  502    0  0.00000000000E+00  0.00000000000E+00  0.12690438793E+04  0.12690438793E+04  0.00000000000E+00 0. -1.
          1   -1    0    0  501    0 -0.00000000000E+00 -0.00000000000E+00 -0.13058085512E+04  0.13058085512E+04  0.00000000000E+00 0. -1.
         25    2    1    2    0    0  0.19116735131E+02 -0.28999769891E+02 -0.80145156043E+01  0.12998869726E+03  0.12500557083E+03 0.  0.
          2    1    1    2  501    0 -0.10013051423E+02 -0.29219063035E+02 -0.12358953062E+04  0.12362812070E+04  0.00000000000E+00 0. -1.
          1    1    1    2  502    0 -0.91036837074E+01  0.58218832926E+02  0.12071451499E+04  0.12085825262E+04  0.00000000000E+00 0. -1.
         22    1    3    3    0    0  0.80835663543E+01 -0.57428187742E+02  0.41864845370E+02  0.71526261402E+02  0.00000000000E+00 0.  1.
         22    1    3    3    0    0  0.11033168776E+02  0.28428417851E+02 -0.49879360974E+02  0.58462435854E+02  0.00000000000E+00 0.  1.
</event>
<event>
 7    1  0.5593520E-006  0.6945922E+02  0.7818608E-02  0.1464211E+00
          2   -1    0    0  502    0  0.00000000000E+00  0.00000000000E+00  0.13326389509E+03  0.13326389509E+03  0.00000000000E+00 0. -1.
          1   -1    0    0  501    0 -0.00000000000E+00 -0.00000000000E+00 -0.46093404522E+03  0.46093404522E+03  0.00000000000E+00 0. -1.
         25    2    1    2    0    0 -0.51432758066E+02  0.81201793129E+02 -0.16058177813E+03  0.22505744171E+03  0.12500113915E+03 0.  0.
          2    1    1    2  501    0  0.25327494373E+02 -0.18475871687E+02 -0.25562463611E+03  0.25753988894E+03  0.00000000000E+00 0. -1.
          1    1    1    2  502    0  0.26105263693E+02 -0.62725921442E+02  0.88536264120E+02  0.11160060966E+03  0.00000000000E+00 0. -1.
         22    1    3    3    0    0 -0.28407846378E+02 -0.29343860432E+02 -0.22314296883E+02  0.46540259199E+02  0.00000000000E+00 0. -1.
         22    1    3    3    0    0 -0.23024911688E+02  0.11054565356E+03 -0.13826748125E+03  0.17851718251E+03  0.00000000000E+00 0. -1.
</event>
<event>
 7    1  0.5593520E-006  0.1618948E+03  0.7818608E-02  0.1356145E+00
          2   -1    0    0  502    0  0.00000000000E+00  0.00000000000E+00  0.65060656081E+03  0.65060656081E+03  0.00000000000E+00 0. -1.
          1   -1    0    0  501    0 -0.00000000000E+00 -0.00000000000E+00 -0.12189764086E+04  0.12189764086E+04  0.00000000000E+00 0. -1.
         25    2    1    2    0    0 -0.10261819058E+03  0.12873963847E+03 -0.16461486130E+03  0.26424968241E+03  0.12500181814E+03 0.  0.
          2    1    1    2  501    0  0.75005683837E+02 -0.14345837828E+03 -0.99760766591E+03  0.10106568231E+04  0.00000000000E+00 0. -1.
          1    1    1    2  502    0  0.27612506742E+02  0.14718739811E+02  0.59385267946E+03  0.59467646391E+03  0.00000000000E+00 0. -1.
         22    1    3    3    0    0 -0.11659052894E+03  0.14332008440E+03 -0.15769460131E+03  0.24290241932E+03  0.00000000000E+00 0. -1.
         22    1    3    3    0    0  0.13972338363E+02 -0.14580445928E+02 -0.69202599910E+01  0.21347263083E+02  0.00000000000E+00 0. -1.
</event>
<event>
 7    1  0.5593520E-006  0.1578247E+03  0.7818608E-02  0.1206496E+00
          2   -1    0    0  502    0  0.00000000000E+00  0.00000000000E+00  0.14499869790E+04  0.14499869790E+04  0.00000000000E+00 0. -1.
          1   -1    0    0  501    0 -0.00000000000E+00 -0.00000000000E+00 -0.27199010707E+04  0.27199010707E+04  0.00000000000E+00 0. -1.
         25    2    1    2    0    0 -0.12271843747E+02 -0.56815593898E+02 -0.67779699846E+01  0.13801485971E+03  0.12499420292E+03 0.  0.
          2    1    1    2  501    0 -0.13076590842E+03 -0.27314767952E+02 -0.26408372795E+04  0.26442139392E+04  0.00000000000E+00 0. -1.
          1    1    1    2  502    0  0.14303775217E+03  0.84130361850E+02  0.13777011578E+04  0.13876592509E+04  0.00000000000E+00 0. -1.
         22    1    3    3    0    0  0.28976726524E+02 -0.76519493016E+02 -0.29485071717E+02  0.86972713799E+02  0.00000000000E+00 0.  1.
         22    1    3    3    0    0 -0.41248570271E+02  0.19703899118E+02  0.22707101732E+02  0.51042145908E+02  0.00000000000E+00 0.  1.
</event>
<event>
 7    1  0.5593520E-006  0.5335144E+02  0.7818608E-02  0.1437906E+00
          2   -1    0    0  502    0  0.00000000000E+00  0.00000000000E+00  0.23062929776E+03  0.23062929776E+03  0.00000000000E+00 0. -1.
          1   -1    0    0  501    0 -0.00000000000E+00 -0.00000000000E+00 -0.25956092879E+03  0.25956092879E+03  0.00000000000E+00 0. -1.
         25    2    1    2    0    0 -0.24904654868E+02  0.32114426928E+02 -0.36094775672E+02  0.13630536961E+03  0.12499897081E+03 0.  0.
          2    1    1    2  501    0  0.45864908723E+02  0.18699102839E+02 -0.16546381837E+03  0.17271804042E+03  0.00000000000E+00 0. -1.
          1    1    1    2  502    0 -0.20960253855E+02 -0.50813529767E+02  0.17262696300E+03  0.18116681651E+03  0.00000000000E+00 0. -1.
         22    1    3    3    0    0  0.17138763650E+02  0.69798743660E+02 -0.54842260858E+01  0.72081055567E+02  0.00000000000E+00 0.  1.
         22    1    3    3    0    0 -0.42043418518E+02 -0.37684316732E+02 -0.30610549586E+02  0.64224314043E+02  0.00000000000E+00 0.  1.
</event>
<event>
 7    1  0.5593520E-006  0.5128299E+02  0.7818608E-02  0.1440271E+00
          2   -1    0    0  502    0  0.00000000000E+00  0.00000000000E+00  0.86940775053E+02  0.86940775053E+02  0.00000000000E+00 0. -1.
          1   -1    0    0  501    0 -0.00000000000E+00 -0.00000000000E+00 -0.26841448197E+04  0.26841448197E+04  0.00000000000E+00 0. -1.
         25    2    1    2    0    0  0.75738446071E+02  0.52147322218E+02 -0.15753167316E+04  0.15829413192E+04  0.12499903894E+03 0.  0.
          2    1    1    2  501    0 -0.49990763349E+02 -0.79819215328E+01 -0.10965162967E+04  0.10976842790E+04  0.00000000000E+00 0. -1.
          1    1    1    2  502    0 -0.25747682722E+02 -0.44165400685E+02  0.74628983617E+02  0.90459996567E+02  0.00000000000E+00 0. -1.
         22    1    3    3    0    0  0.29643595209E+00 -0.33527403491E+02 -0.60577961556E+03  0.60670678032E+03  0.00000000000E+00 0.  1.
         22    1    3    3    0    0  0.75442010119E+02  0.85674725709E+02 -0.96953711602E+03  0.97623453885E+03  0.00000000000E+00 0.  1.
</event>
<event>
 7    1  0.5593520E-006  0.9144213E+02  0.7818608E-02  0.1368802E+00
          2   -1    0    0  502    0  0.00000000000E+00  0.00000000000E+00  0.87618106583E+03  0.87618106583E+03  0.00000000000E+00 0. -1.
          1   -1    0    0  501    0 -0.00000000000E+00 -0.00000000000E+00 -0.46428210895E+03  0.46428210895E+03  0.00000000000E+00 0. -1.
         25    2    1    2    0    0  0.10830999556E+03 -0.84210069492E+02  0.48981938045E+02  0.19195428337E+03  0.12499930282E+03 0.  0.
          2    1    1    2  501    0 -0.62867424327E+02  0.63768060299E+02 -0.38685460387E+03  0.39708332009E+03  0.00000000000E+00 0. -1.
          1    1    1    2  502    0 -0.45442571238E+02  0.20442009193E+02  0.74977162271E+03  0.75142557133E+03  0.00000000000E+00 0. -1.
         22    1    3    3    0    0 -0.75688091550E+01 -0.53421995370E+01 -0.29767954030E+02  0.31176225798E+02  0.00000000000E+00 0. -1.
         22    1    3    3    0    0  0.11587880472E+03 -0.78867869955E+02  0.78749892075E+02  0.16077805757E+03  0.00000000000E+00 0. -1.
</event>
<event>
 7    1  0.5593520E-006  0.5118653E+02  0.7818608E-02  0.1446209E+00
          2   -1    0    0  502    0  0.00000000000E+00  0.00000000000E+00  0.24388010104E+04  0.24388010104E+04  0.00000000000E+00 0. -1.
          1   -1    0    0  501    0 -0.00000000000E+00 -0.00000000000E+00 -0.24199172671E+03  0.24199172671E+03  0.00000000000E+00 0. -1.
         25    2    1    2    0    0 -0.77956175236E+02  0.16905416395E+02  0.11789935525E+04  0.11882818873E+04  0.12500035348E+03 0.  0.
          2    1    1    2  501    0  0.44431437203E+02  0.19514156346E+02 -0.23437293502E+03  0.23934416137E+03  0.00000000000E+00 0. -1.
          1    1    1    2  502    0  0.33524738033E+02 -0.36419572742E+02  0.12521886662E+04  0.12531666885E+04  0.00000000000E+00 0. -1.
         22    1    3    3    0    0 -0.12724196051E+02 -0.51684033913E+02  0.46714749231E+03  0.47017010123E+03  0.00000000000E+00 0.  1.
         22    1    3    3    0    0 -0.65231979185E+02  0.68589450308E+02  0.71184606020E+03  0.71811178602E+03  0.00000000000E+00 0.  1.
</event>
<event>
 7    1  0.5593520E-006  0.1148296E+03  0.7818608E-02  0.1347316E+00
          2   -1    0    0  502    0  0.00000000000E+00  0.00000000000E+00  0.55203905829E+03  0.55203905829E+03  0.00000000000E+00 0. -1.
          1   -1    0    0  501    0 -0.00000000000E+00 -0.00000000000E+00 -0.60355087855E+03  0.60355087855E+03  0.00000000000E+00 0. -1.
         25    2    1    2    0    0  0.75357675110E+02  0.74626882570E+02 -0.47904959483E+02  0.17078457671E+03  0.12499814278E+03 0.  0.
          2    1    1    2  501    0  0.33233583087E+02 -0.34018182148E+02 -0.48618030237E+03  0.48850076169E+03  0.00000000000E+00 0. -1.
          1    1    1    2  502    0 -0.10859125820E+03 -0.40608700422E+02  0.48257344159E+03  0.49630459844E+03  0.00000000000E+00 0. -1.
         22    1    3    3    0    0  0.42713317029E+02 -0.26702690764E+01  0.33140056483E+02  0.54127822165E+02  0.00000000000E+00 0. -1.
         22    1    3    3    0    0  0.32644358081E+02  0.77297151647E+02 -0.81045015966E+02  0.11665675454E+03  0.00000000000E+00 0. -1.
</event>
<event>
 7    1  0.5593520E-006  0.1836248E+03  0.7818608E-02  0.1254120E+00
          2   -1    0    0  502    0  0.00000000000E+00  0.00000000000E+00  0.72450425261E+02  0.72450425261E+02  0.00000000000E+00 0. -1.
          1   -1    0    0  501    0 -0.00000000000E+00 -0.00000000000E+00 -0.28846017309E+04  0.28846017309E+04  0.00000000000E+00 0. -1.
         25    2    1    2    0    0  0.11362836803E+03  0.13914391145E+03 -0.36332182401E+03  0.42414475005E+03  0.12499434817E+03 0.  0.
          2    1    1    2  501    0  0.52732300894E+02 -0.46379372658E+02 -0.22717456713E+04  0.22728308641E+04  0.00000000000E+00 0. -1.
          1    1    1    2  502    0 -0.16636066892E+03 -0.92764538790E+02 -0.17708381032E+03  0.26007654200E+03  0.00000000000E+00 0. -1.
         22    1    3    3    0    0  0.10053442481E+03  0.88165530142E+02 -0.13568103912E+03  0.19049849252E+03  0.00000000000E+00 0.  1.
         22    1    3    3    0    0  0.13093943223E+02  0.50978381306E+02 -0.22764078489E+03  0.23364625752E+03  0.00000000000E+00 0.  1.
</event>
<event>
 7    1  0.5593520E-006  0.1037838E+03  0.7818608E-02  0.1392544E+00
          2   -1    0    0  502    0  0.00000000000E+00  0.00000000000E+00  0.20754453153E+04  0.20754453153E+04  0.00000000000E+00 0. -1.
          1   -1    0    0  501    0 -0.00000000000E+00 -0.00000000000E+00 -0.78993192392E+03  0.78993192392E+03  0.00000000000E+00 0. -1.
         25    2    1    2    0    0  0.78646363675E+02 -0.23758912056E+02  0.10546923159E+04  0.10652462697E+04  0.12499598964E+03 0.  0.
          2    1    1    2  501    0  0.31988421359E+02 -0.16906532297E+02 -0.78081411970E+03  0.78165195545E+03  0.00000000000E+00 0. -1.
          1    1    1    2  502    0 -0.11063478503E+03  0.40665444353E+02  0.10116351951E+04  0.10184790141E+04  0.00000000000E+00 0. -1.
         22    1    3    3    0    0 -0.20307138562E+02 -0.19515280943E+02  0.56156223564E+03  0.56226805934E+03  0.00000000000E+00 0.  1.
         22    1    3    3    0    0  0.98953502238E+02 -0.42436311137E+01  0.49313008026E+03  0.50297821033E+03  0.00000000000E+00 0.  1.
</event>
<event>
 7    1  0.5593520E-006  0.1022275E+03  0.7818608E-02  0.1292860E+00
          2   -1    0    0  502    0  0.00000000000E+00  0.00000000000E+00  0.25805512779E+04  0.25805512779E+04  0.00000000000E+00 0. -1.
          1   -1    0    0  501    0 -0.00000000000E+00 -0.00000000000E+00 -0.41984697422E+03  0.41984697422E+03  0.00000000000E+00 0. -1.
         25    2    1    2    0    0  0.15843248358E+03 -0.78164257128E+02  0.73775476668E+03  0.76884181978E+03  0.12500058049E+03 0.  0.
          2    1    1    2  501    0 -0.63832582060E+02  0.58976308539E+02 -0.39834033277E+03  0.40771046615E+03  0.00000000000E+00 0. -1.
          1    1    1    2  502    0 -0.94599901523E+02  0.19187948589E+02  0.18212898697E+04  0.18238459662E+04  0.00000000000E+00 0. -1.
         22    1    3    3    0    0  0.91138181034E+02 -0.83216505015E+02  0.62791013775E+03  0.63992366407E+03  0.00000000000E+00 0.  1.
         22    1    3    3    0    0  0.67294302550E+02  0.50522478871E+01  0.10984462894E+03  0.12891815570E+03  0.00000000000E+00 0.  1.
</event>
<event>
 7    1  0.5593520E-006  0.8241676E+02  0.7818608E-02  0.1489831E+00
          2   -1    0    0  502    0  0.00000000000E+00  0.00000000000E+00  0.26368758524E+04  0.26368758524E+04  0.00000000000E+00 0. -1.
          1   -1    0    0  501    0 -0.00000000000E+00 -0.00000000000E+00 -0.14061396093E+03  0.14061396093E+03  0.00000000000E+00 0. -1.
         25    2    1    2    0    0  0.50484337120E+02 -0.33570123802E+02  0.17116323455E+04  0.17172611199E+04  0.12499938511E+03 0.  0.
          2    1    1    2  501    0 -0.69971838922E+02  0.43845826004E+02 -0.12528391308E+03  0.15004857072E+03  0.00000000000E+00 0. -1.
          1    1    1    2  502    0  0.19487501802E+02 -0.10275702201E+02  0.90991345903E+03  0.91018012267E+03  0.00000000000E+00 0. -1.
         22    1    3    3    0    0  0.82713987423E+02 -0.40006689738E+02  0.84014895085E+03  0.84515820918E+03  0.00000000000E+00 0. -1.
         22    1    3    3    0    0 -0.32229650304E+02  0.64365659355E+01  0.87148339464E+03  0.87210291071E+03  0.00000000000E+00 0. -1.
</event>
<event>
 7    1  0.5593520E-006  0.1158703E+03  0.7818608E-02  0.1343524E+00
          2   -1    0    0  502    0  0.00000000000E+00  0.00000000000E+00  0.11926403925E+04  0.11926403925E+04  0.00000000000E+00 0. -1.
          1   -1    0    0  501    0 -0.00000000000E+00 -0.00000000000E+00 -0.81769835813E+03  0.81769835813E+03  0.00000000000E+00 0. -1.
         25    2    1    2    0    0  0.52400727104E+02 -0.15530542884E+03  0.73964554791E+03  0.76783205691E+03  0.12499967461E+03 0.  0.
          2    1    1    2  501    0 -0.41810614456E+02  0.10778020333E+03 -0.79807695326E+03  0.80640654948E+03  0.00000000000E+00 0. -1.
          1    1    1    2  502    0 -0.10590112647E+02  0.47525225510E+02  0.43337343968E+03  0.43610014420E+03  0.00000000000E+00 0. -1.
         22    1    3    3    0    0 -0.23416675374E+01 -0.11515789787E+03  0.61693398881E+03  0.62759411357E+03  0.00000000000E+00 0. -1.
         22    1    3    3    0    0  0.54742394641E+02 -0.40147530973E+02  0.12271155910E+03  0.14023794334E+03  0.00000000000E+00 0. -1.
</event>
<event>
 7    1  0.5593520E-006  0.5310596E+02  0.7818608E-02  0.1540957E+00
          2   -1    0    0  502    0  0.00000000000E+00  0.00000000000E+00  0.78218296134E+03  0.78218296134E+03  0.00000000000E+00 0. -1.
          1   -1    0    0  501    0 -0.00000000000E+00 -0.00000000000E+00 -0.11320948230E+03  0.11320948230E+03  0.00000000000E+00 0. -1.
         25    2    1    2    0    0 -0.32358801872E+02  0.20075738503E+01  0.28559986786E+02  0.13225639557E+03  0.12499983565E+03 0.  0.
          2    1    1    2  501    0  0.56470010126E+02  0.44940995119E+00 -0.48109779573E+02  0.74186352542E+02  0.00000000000E+00 0. -1.
          1    1    1    2  502    0 -0.24111208254E+02 -0.24569838015E+01  0.68852327182E+03  0.68894969553E+03  0.00000000000E+00 0. -1.
         22    1    3    3    0    0 -0.44417803046E+02  0.45590689830E+02  0.51197312009E+02  0.81686088066E+02  0.00000000000E+00 0.  1.
         22    1    3    3    0    0  0.12059001173E+02 -0.43583115979E+02 -0.22637325223E+02  0.50570307504E+02  0.00000000000E+00 0.  1.
</event>
<event>
 7    1  0.5593520E-006  0.6530480E+02  0.7818608E-02  0.1487932E+00
          2   -1    0    0  502    0  0.00000000000E+00  0.00000000000E+00  0.89238086926E+02  0.89238086926E+02  0.00000000000E+00 0. -1.
          1   -1    0    0  501    0 -0.00000000000E+00 -0.00000000000E+00 -0.29208099159E+03  0.29208099159E+03  0.00000000000E+00 0. -1.
         25    2    1    2    0    0  0.44858927107E+02  0.42788829214E+02 -0.10589269960E+03  0.17516409278E+03  0.12500395323E+03 0.  0.
          2    1    1    2  501    0 -0.24634153986E+02 -0.62403908498E+02 -0.13968918105E+03  0.15496501748E+03  0.00000000000E+00 0. -1.
          1    1    1    2  502    0 -0.20224773121E+02  0.19615079284E+02  0.42738975981E+02  0.51189968266E+02  0.00000000000E+00 0. -1.
         22    1    3    3    0    0 -0.72427329331E+01  0.75992552743E+02 -0.70776683722E+02  0.10409929976E+03  0.00000000000E+00 0.  1.
         22    1    3    3    0    0  0.52101660040E+02 -0.33203723529E+02 -0.35116015876E+02  0.71064793014E+02  0.00000000000E+00 0.  1.
</event>
<event>
 7    1  0.5593520E-006  0.6854352E+02  0.7818608E-02  0.1466463E+00
          2   -1    0    0  502    0  0.00000000000E+00  0.00000000000E+00  0.10625587532E+03  0.10625587532E+03  0.00000000000E+00 0. -1.
          1   -1    0    0  501    0 -0.00000000000E+00 -0.00000000000E+00 -0.26494027434E+04  0.26494027434E+04  0.00000000000E+00 0. -1.
         25    2    1    2    0    0 -0.16997894922E+01  0.78222852976E+02 -0.35584942389E+03  0.38519551372E+03  0.12500026918E+03 0.  0.
          2    1    1    2  501    0 -0.26832240925E+02 -0.16032871243E+02 -0.22659775475E+04  0.22661931224E+04  0.00000000000E+00 0. -1.
          1    1    1    2  502    0  0.28532030417E+02 -0.62189981734E+02  0.78680103401E+02  0.10426998254E+03  0.00000000000E+00 0. -1.
         22    1    3    3    0    0  0.57280353221E+00  0.10189949673E+03 -0.34369790567E+03  0.35848582384E+03  0.00000000000E+00 0.  1.
         22    1    3    3    0    0 -0.22725930244E+01 -0.23676643749E+02 -0.12151518224E+02  0.26709689878E+02  0.00000000000E+00 0.  1.
</event>
<event>
 7    1  0.5593520E-006  0.6616255E+02  0.7818608E-02  0.1511769E+00
          2   -1    0    0  502    0  0.00000000000E+00  0.00000000000E+00  0.10357933663E+04  0.10357933663E+04  0.00000000000E+00 0. -1.
          1   -1    0    0  501    0 -0.00000000000E+00 -0.00000000000E+00 -0.17038180599E+03  0.17038180599E+03  0.00000000000E+00 0. -1.
         25    2    1    2    0    0 -0.35937615450E+02 -0.26249093185E+02  0.16513156820E+03  0.21183568023E+03  0.12500157402E+03 0.  0.
          2    1    1    2  501    0  0.58747188710E+02  0.32331694373E+02 -0.13920950678E+03  0.15451814592E+03  0.00000000000E+00 0. -1.
          1    1    1    2  502    0 -0.22809573260E+02 -0.60826011876E+01  0.83948949892E+03  0.83982134616E+03  0.00000000000E+00 0. -1.
         22    1    3    3    0    0  0.33474410289E+02 -0.37108874470E+01  0.27299395721E+01  0.33789930452E+02  0.00000000000E+00 0.  1.
         22    1    3    3    0    0 -0.69412025739E+02 -0.22538205738E+02  0.16240162863E+03  0.17804574978E+03  0.00000000000E+00 0.  1.
</event>
<event>
 7    1  0.5593520E-006  0.2718357E+02  0.7818608E-02  0.1656775E+00
          2   -1    0    0  502    0  0.00000000000E+00  0.00000000000E+00  0.11397051728E+04  0.11397051728E+04  0.00000000000E+00 0. -1.
          1   -1    0    0  501    0 -0.00000000000E+00 -0.00000000000E+00 -0.20360899411E+03  0.20360899411E+03  0.00000000000E+00 0. -1.
         25    2    1    2    0    0  0.50429842521E+02 -0.23157596826E+01  0.16121373058E+03  0.21014759803E+03  0.12499445695E+03 0.  0.
          2    1    1    2  501    0 -0.23427968306E+02  0.23040188261E+01 -0.17817664133E+03  0.17972505033E+03  0.00000000000E+00 0. -1.
          1    1    1    2  502    0 -0.27001874214E+02  0.11740856450E-01  0.95305908947E+03  0.95344151859E+03  0.00000000000E+00 0. -1.
         22    1    3    3    0    0  0.77211745273E+02  0.38261959524E+02  0.10166627915E+03  0.13327289098E+03  0.00000000000E+00 0. -1.
         22    1    3    3    0    0 -0.26781902753E+02 -0.40577719207E+02  0.59547451429E+02  0.76874707041E+02  0.00000000000E+00 0. -1.
</event>
<event>
 7    1  0.5593520E-006  0.8936477E+02  0.7818608E-02  0.1375049E+00
          2   -1    0    0  502    0  0.00000000000E+00  0.00000000000E+00  0.93664747057E+03  0.93664747057E+03  0.00000000000E+00 0. -1.
          1   -1    0    0  501    0 -0.00000000000E+00 -0.00000000000E+00 -0.68816407454E+03  0.68816407454E+03  0.00000000000E+00 0. -1.
         25    2    1    2    0    0  0.13241431540E+03 -0.34361196653E+02  0.34795833525E+03  0.39422630989E+03  0.12500055032E+03 0.  0.
          2    1    1    2  501    0 -0.84373059477E+02  0.28279768470E+02 -0.66100658679E+03  0.66696946426E+03  0.00000000000E+00 0. -1.
          1    1    1    2  502    0 -0.48041255927E+02  0.60814281821E+01  0.56153164758E+03  0.56361577096E+03  0.00000000000E+00 0. -1.
         22    1    3    3    0    0  0.11162056566E+03 -0.22003267417E+02  0.12138672658E+03  0.16636715975E+03  0.00000000000E+00 0. -1.
         22    1    3    3    0    0  0.20793749741E+02 -0.12357929236E+02  0.22657160867E+03  0.22785915013E+03  0.00000000000E+00 0. -1.
</event>
<event>
 7    1  0.5593520E-006  0.1020291E+03  0.7818608E-02  0.1278772E+00
          2   -1    0    0  502    0  0.00000000000E+00  0.00000000000E+00  0.17168845853E+04  0.17168845853E+04  0.00000000000E+00 0. -1.
          1   -1    0    0  501    0 -0.00000000000E+00 -0.00000000000E+00 -0.60833605478E+03  0.60833605478E+03  0.00000000000E+00 0. -1.
         25    2    1    2    0    0  0.10626178431E+02  0.14571436066E+03  0.42318381290E+03  0.46481677429E+03  0.12499801434E+03 0.  0.
          2    1    1    2  501    0 -0.73741840565E+02 -0.66716982153E+02 -0.58128238784E+03  0.58972724981E+03  0.00000000000E+00 0. -1.
          1    1    1    2  502    0  0.63115662134E+02 -0.78997378509E+02  0.12666471055E+04  0.12706766160E+04  0.00000000000E+00 0. -1.
         22    1    3    3    0    0  0.28967670632E+02  0.64586311239E+02  0.33960405137E+03  0.34690262214E+03  0.00000000000E+00 0. -1.
         22    1    3    3    0    0 -0.18341492201E+02  0.81128049423E+02  0.83579761530E+02  0.11791415215E+03  0.00000000000E+00 0. -1.
</event>
<event>
 7    1  0.5593520E-006  0.9846076E+02  0.7818608E-02  0.1362940E+00
          2   -1    0    0  502    0  0.00000000000E+00  0.00000000000E+00  0.16530631953E+04  0.16530631953E+04  0.00000000000E+00 0. -1.
          1   -1    0    0  501    0 -0.00000000000E+00 -0.00000000000E+00 -0.49073543328E+03  0.49073543328E+03  0.00000000000E+00 0. -1.
         25    2    1    2    0    0 -0.11002101492E+03  0.94722539789E+02  0.21971606137E+03  0.29150354527E+03  0.12498874354E+03 0.  0.
          2    1    1    2  501    0  0.68619085896E+02 -0.69284501695E+02 -0.44918631338E+03  0.45964906750E+03  0.00000000000E+00 0. -1.
          1    1    1    2  502    0  0.41401929029E+02 -0.25438038094E+02  0.13917980141E+04  0.13926460158E+04  0.00000000000E+00 0. -1.
         22    1    3    3    0    0 -0.46710688440E+02  0.30289221916E+02  0.18751357133E+03  0.19560333538E+03  0.00000000000E+00 0. -1.
         22    1    3    3    0    0 -0.63310326485E+02  0.64433317873E+02  0.32202490038E+02  0.95900209887E+02  0.00000000000E+00 0. -1.
</event>
<event>
 7    1  0.5593520E-006  0.5010203E+02  0.7818608E-02  0.1474578E+00
          2   -1    0    0  502    0  0.00000000000E+00  0.00000000000E+00  0.53936369801E+03  0.53936369801E+03  0.00000000000E+00 0. -1.
          1   -1    0    0  501    0 -0.00000000000E+00 -0.00000000000E+00 -0.16615180731E+03  0.16615180731E+03  0.00000000000E+00 0. -1.
         25    2    1    2    0    0  0.80520269507E+02  0.34650233633E+02 -0.50461730829E+01  0.15275343263E+03  0.12499597924E+03 0.  0.
          2    1    1    2  501    0 -0.32080043115E+02 -0.24473614555E+02 -0.81185637636E+02  0.90659774619E+02  0.00000000000E+00 0. -1.
          1    1    1    2  502    0 -0.48440226392E+02 -0.10176619078E+02  0.45944370142E+03  0.46210229807E+03  0.00000000000E+00 0. -1.
         22    1    3    3    0    0  0.65936959988E+02  0.51309742116E+00 -0.58179957571E+02  0.87936644377E+02  0.00000000000E+00 0.  1.
         22    1    3    3    0    0  0.14583309519E+02  0.34137136212E+02  0.53133784488E+02  0.64816788252E+02  0.00000000000E+00 0.  1.
</event>
<event>
 7    1  0.5593520E-006  0.1016223E+03  0.7818608E-02  0.1277674E+00
          2   -1    0    0  502    0  0.00000000000E+00  0.00000000000E+00  0.11675984151E+04  0.11675984151E+04  0.00000000000E+00 0. -1.
          1   -1    0    0  501    0 -0.00000000000E+00 -0.00000000000E+00 -0.18967938826E+04  0.18967938826E+04  0.00000000000E+00 0. -1.
         25    2    1    2    0    0  0.42677191543E+02  0.15481244684E+03  0.21933179321E+02  0.20467976594E+03  0.12499802341E+03 0.  0.
          2    1    1    2  501    0  0.37562411974E+02 -0.93640244784E+02 -0.18015918535E+04  0.18044147630E+04  0.00000000000E+00 0. -1.
          1    1    1    2  502    0 -0.80239603517E+02 -0.61172202051E+02  0.10504632067E+04  0.10552977688E+04  0.00000000000E+00 0. -1.
         22    1    3    3    0    0  0.17667740592E+02  0.44977905003E+02 -0.51178489428E+02  0.70387490197E+02  0.00000000000E+00 0. -1.
         22    1    3    3    0    0  0.25009450950E+02  0.10983454183E+03  0.73111668749E+02  0.13429227574E+03  0.00000000000E+00 0. -1.
</event>
<event>
 7    1  0.5593520E-006  0.1492687E+03  0.7818608E-02  0.1213164E+00
          2   -1    0    0  502    0  0.00000000000E+00  0.00000000000E+00  0.67832352006E+03  0.67832352006E+03  0.00000000000E+00 0. -1.
          1   -1    0    0  501    0 -0.00000000000E+00 -0.00000000000E+00 -0.40077450090E+03  0.40077450090E+03  0.00000000000E+00 0. -1.
         25    2    1    2    0    0  0.95523119171E+02  0.17096501536E+03 -0.18543867536E+02  0.23306963872E+03  0.12499551470E+03 0.  0.
          2    1    1    2  501    0  0.45905618040E+02 -0.12326660071E+03 -0.24860109125E+03  0.28125519229E+03  0.00000000000E+00 0. -1.
          1    1    1    2  502    0 -0.14142873721E+03 -0.47698414652E+02  0.54469397795E+03  0.56477318995E+03  0.00000000000E+00 0. -1.
         22    1    3    3    0    0  0.58330498056E+02  0.11565069320E+03  0.48706417892E+02  0.13838296494E+03  0.00000000000E+00 0. -1.
         22    1    3    3    0    0  0.37192621116E+02  0.55314322162E+02 -0.67250285428E+02  0.94686673782E+02  0.00000000000E+00 0. -1.
</event>
<event>
 7    1  0.5593520E-006  0.8309534E+02  0.7818608E-02  0.1436650E+00
          2   -1    0    0  502    0  0.00000000000E+00  0.00000000000E+00  0.82106402778E+03  0.82106402778E+03  0.00000000000E+00 0. -1.
          1   -1    0    0  501    0 -0.00000000000E+00 -0.00000000000E+00 -0.10998380052E+04  0.10998380052E+04  0.00000000000E+00 0. -1.
         25    2    1    2    0    0  0.54487610266E+02 -0.10079266561E+03  0.32744289940E+03  0.36874359039E+03  0.12499968788E+03 0.  0.
          2    1    1    2  501    0 -0.43506607695E+02  0.70627179799E+02 -0.10770462645E+04  0.10802359369E+04  0.00000000000E+00 0. -1.
          1    1    1    2  502    0 -0.10981002572E+02  0.30165485814E+02  0.47082938776E+03  0.47192250564E+03  0.00000000000E+00 0. -1.
         22    1    3    3    0    0 -0.20895115244E+02 -0.85623072976E+02  0.13201273196E+03  0.15873020464E+03  0.00000000000E+00 0. -1.
         22    1    3    3    0    0  0.75382725510E+02 -0.15169592638E+02  0.19543016744E+03  0.21001338575E+03  0.00000000000E+00 0. -1.
</event>
<event>
 7    1  0.5593520E-006  0.6805114E+02  0.7818608E-02  0.1367428E+00
          2   -1    0    0  502    0  0.00000000000E+00  0.00000000000E+00  0.41078152619E+03  0.41078152619E+03  0.00000000000E+00 0. -1.
          1   -1    0    0  501    0 -0.00000000000E+00 -0.00000000000E+00 -0.33219177899E+03  0.33219177899E+03  0.00000000000E+00 0. -1.
         25    2    1    2    0    0  0.18691428545E+02 -0.22372180201E+02 -0.78616982039E+02  0.15051803658E+03  0.12500066209E+03 0.  0.
          2    1    1    2  501    0 -0.57683549905E+02 -0.35484955227E+02 -0.20898069084E+03  0.21968045685E+03  0.00000000000E+00 0. -1.
          1    1    1    2  502    0  0.38992121360E+02  0.57857135427E+02  0.36618742008E+03  0.37277481175E+03  0.00000000000E+00 0. -1.
         22    1    3    3    0    0 -0.24270356596E+02  0.92528170105E+01 -0.91935302138E+02  0.95534101823E+02  0.00000000000E+00 0. -1.
         22    1    3    3    0    0  0.42961785141E+02 -0.31624997211E+02  0.13318320099E+02  0.54983934757E+02  0.00000000000E+00 0. -1.
</event>
<event>
 7    1  0.5593520E-006  0.9588352E+02  0.7818608E-02  0.1422310E+00
          2   -1    0    0  502    0  0.00000000000E+00  0.00000000000E+00  0.99365703373E+03  0.99365703373E+03  0.00000000000E+00 0. -1.
          1   -1    0    0  501    0 -0.00000000000E+00 -0.00000000000E+00 -0.10785154495E+04  0.10785154495E+04  0.00000000000E+00 0. -1.
         25    2    1    2    0    0  0.65152089616E+02 -0.10665828019E+03  0.39231157962E+03  0.43029526660E+03  0.12499942978E+03 0.  0.
          2    1    1    2  501    0 -0.41981270778E+02  0.86037500913E+02 -0.10569456959E+04  0.10612723886E+04  0.00000000000E+00 0. -1.
          1    1    1    2  502    0 -0.23170818838E+02  0.20620779277E+02  0.57977570054E+03  0.58060482802E+03  0.00000000000E+00 0. -1.
         22    1    3    3    0    0  0.53123291342E+02  0.14382549944E+02  0.12869739535E+03  0.13997128775E+03  0.00000000000E+00 0.  1.
         22    1    3    3    0    0  0.12028798274E+02 -0.12104083013E+03  0.26361418427E+03  0.29032397885E+03  0.00000000000E+00 0.  1.
</event>
<event>
 7    1  0.5593520E-006  0.7151266E+02  0.7818608E-02  0.1491281E+00
          2   -1    0    0  502    0  0.00000000000E+00  0.00000000000E+00  0.19197338418E+03  0.19197338418E+03  0.00000000000E+00 0. -1.
          1   -1    0    0  501    0 -0.00000000000E+00 -0.00000000000E+00 -0.33977137970E+03  0.33977137970E+03  0.00000000000E+00 0. -1.
         25    2    1    2    0    0  0.51720354329E+02 -0.28492608106E+02  0.29129111654E+02  0.14127933469E+03  0.12499808597E+03 0.  0.
          2    1    1    2  501    0 -0.71239542689E+02  0.12656922754E+02 -0.27751106268E+03  0.28678852844E+03  0.00000000000E+00 0. -1.
          1    1    1    2  502    0  0.19519188361E+02  0.15835685353E+02  0.10058395550E+03  0.10367690075E+03  0.00000000000E+00 0. -1.
         22    1    3    3    0    0 -0.64186055716E+00  0.43053162540E+02 -0.10259821309E+02  0.44263424212E+02  0.00000000000E+00 0. -1.
         22    1    3    3    0    0  0.52362214886E+02 -0.71545770647E+02  0.39388932963E+02  0.97015910474E+02  0.00000000000E+00 0. -1.
</event>
<event>
 7    1  0.5593520E-006  0.8235572E+02  0.7818608E-02  0.1414226E+00
          2   -1    0    0  502    0  0.00000000000E+00  0.00000000000E+00  0.95355090131E+02  0.95355090131E+02  0.00000000000E+00 0. -1.
          1   -1    0    0  501    0 -0.00000000000E+00 -0.00000000000E+00 -0.15308923605E+04  0.15308923605E+04  0.00000000000E+00 0. -1.
         25    2    1    2    0    0  0.88395530840E+02 -0.55581787897E+02 -0.53306970675E+03  0.55739651640E+03  0.12499783688E+03 0.  0.
          2    1    1    2  501    0 -0.37507097411E+02 -0.83953134260E+01 -0.96510172276E+03  0.96586676044E+03  0.00000000000E+00 0. -1.
          1    1    1    2  502    0 -0.50888433429E+02  0.63977101323E+02  0.62634159170E+02  0.10298417376E+03  0.00000000000E+00 0. -1.
         22    1    3    3    0    0  0.93455316891E+02 -0.12987888027E+02 -0.47987333311E+03  0.48906134311E+03  0.00000000000E+00 0.  1.
         22    1    3    3    0    0 -0.50597860510E+01 -0.42593899870E+02 -0.53196373637E+02  0.68335173294E+02  0.00000000000E+00 0.  1.
</event>
<event>
 7    1  0.5593520E-006  0.4490867E+02  0.7818608E-02  0.1505449E+00
          2   -1    0    0  502    0  0.00000000000E+00  0.00000000000E+00  0.89499617695E+03  0.89499617695E+03  0.00000000000E+00 0. -1.
          1   -1    0    0  501    0 -0.00000000000E+00 -0.00000000000E+00 -0.12109594658E+03  0.12109594658E+03  0.00000000000E+00 0. -1.
         25    2    1    2    0    0 -0.28527177712E+02 -0.71674515459E+02  0.14393943197E+03  0.20565613720E+03  0.12499940263E+03 0.  0.
          2    1    1    2  501    0  0.54498209764E+01  0.43648906660E+02 -0.84388461182E+02  0.95164804324E+02  0.00000000000E+00 0. -1.
          1    1    1    2  502    0  0.23077356736E+02  0.28025608799E+02  0.71434925958E+03  0.71527118200E+03  0.00000000000E+00 0. -1.
         22    1    3    3    0    0 -0.68362722324E+02 -0.62733504602E+01  0.52738807175E+02  0.86569038991E+02  0.00000000000E+00 0.  1.
         22    1    3    3    0    0  0.39835544611E+02 -0.65401164998E+02  0.91200624798E+02  0.11908709821E+03  0.00000000000E+00 0.  1.
</event>
<event>
 7    1  0.5593520E-006  0.2072953E+03  0.7818608E-02  0.1330475E+00
          2   -1    0    0  502    0  0.00000000000E+00  0.00000000000E+00  0.33047229733E+04  0.33047229733E+04  0.00000000000E+00 0. -1.
          1   -1    0    0  501    0 -0.00000000000E+00 -0.00000000000E+00 -0.83356574339E+03  0.83356574339E+03  0.00000000000E+00 0. -1.
         25    2    1    2    0    0 -0.12391767622E+03 -0.18936001999E+03  0.62767925156E+03  0.67883674573E+03  0.12500110744E+03 0.  0.
          2    1    1    2  501    0 -0.44592304299E+01  0.30161519680E+02 -0.80375397140E+03  0.80433205118E+03  0.00000000000E+00 0. -1.
          1    1    1    2  502    0  0.12837690665E+03  0.15919850031E+03  0.26472319498E+04  0.26551199198E+04  0.00000000000E+00 0. -1.
         22    1    3    3    0    0 -0.40993564784E+02 -0.15985860003E+03  0.33896657626E+03  0.37700607977E+03  0.00000000000E+00 0.  1.
         22    1    3    3    0    0 -0.82924111434E+02 -0.29501419955E+02  0.28871267530E+03  0.30183066596E+03  0.00000000000E+00 0.  1.
</event>
<event>
 7    1  0.5593520E-006  0.7415261E+02  0.7818608E-02  0.1508018E+00
          2   -1    0    0  502    0  0.00000000000E+00  0.00000000000E+00  0.56067300057E+02  0.56067300057E+02  0.00000000000E+00 0. -1.
          1   -1    0    0  501    0 -0.00000000000E+00 -0.00000000000E+00 -0.54376088698E+03  0.54376088698E+03  0.00000000000E+00 0. -1.
         25    2    1    2    0    0  0.61677204513E+02 -0.25562624792E+02 -0.18783802575E+03  0.23530109973E+03  0.12500383303E+03 0.  0.
          2    1    1    2  501    0 -0.75402019725E+02  0.88764601897E+01 -0.32362161052E+03  0.33240818721E+03  0.00000000000E+00 0. -1.
          1    1    1    2  502    0  0.13724815212E+02  0.16686164603E+02  0.23766049354E+02  0.32118900100E+02  0.00000000000E+00 0. -1.
         22    1    3    3    0    0  0.99686735952E+01 -0.42223423860E+02 -0.17387951835E+03  0.17921015283E+03  0.00000000000E+00 0.  1.
         22    1    3    3    0    0  0.51708530918E+02  0.16660799068E+02 -0.13958507404E+02  0.56090946900E+02  0.00000000000E+00 0.  1.
</event>
<event>
 7    1  0.5593520E-006  0.1633814E+03  0.7818608E-02  0.1220412E+00
          2   -1    0    0  502    0  0.00000000000E+00  0.00000000000E+00  0.10762811097E+03  0.10762811097E+03  0.00000000000E+00 0. -1.
          1   -1    0    0  501    0 -0.00000000000E+00 -0.00000000000E+00 -0.10885190006E+04  0.10885190006E+04  0.00000000000E+00 0. -1.
         25    2    1    2    0    0  0.44882223513E+02 -0.10508952594E+03 -0.20331736959E+03  0.26461498997E+03  0.12499967077E+03 0.  0.
          2    1    1    2  501    0 -0.15614783010E+03  0.10149578037E+03 -0.79704936602E+03  0.81851770302E+03  0.00000000000E+00 0. -1.
          1    1    1    2  502    0  0.11126560659E+03  0.35937455697E+01  0.19475846028E+02  0.11301441853E+03  0.00000000000E+00 0. -1.
         22    1    3    3    0    0  0.12367878127E+02 -0.85488363510E+02 -0.36913814058E+02  0.93935373387E+02  0.00000000000E+00 0. -1.
         22    1    3    3    0    0  0.32514345386E+02 -0.19601162425E+02 -0.16640355553E+03  0.17067961659E+03  0.00000000000E+00 0. -1.
</event>
<event>
 7    1  0.5593520E-006  0.7925778E+02  0.7818608E-02  0.1371784E+00
          2   -1    0    0  502    0  0.00000000000E+00  0.00000000000E+00  0.10587850300E+04  0.10587850300E+04  0.00000000000E+00 0. -1.
          1   -1    0    0  501    0 -0.00000000000E+00 -0.00000000000E+00 -0.20486975261E+03  0.20486975261E+03  0.00000000000E+00 0. -1.
         25    2    1    2    0    0  0.13859260001E+01 -0.36178343636E+02  0.25713991568E+02  0.13265219017E+03  0.12499840341E+03 0.  0.
          2    1    1    2  501    0 -0.40267801211E+02  0.76601417241E+02 -0.13815407602E+03  0.16302092399E+03  0.00000000000E+00 0. -1.
          1    1    1    2  502    0  0.38881875211E+02 -0.40423073606E+02  0.96635536186E+03  0.96798166847E+03  0.00000000000E+00 0. -1.
         22    1    3    3    0    0 -0.47286872539E+02 -0.19829984051E+02  0.53638492092E+02  0.74204881348E+02  0.00000000000E+00 0.  1.
         22    1    3    3    0    0  0.48672798539E+02 -0.16348359585E+02 -0.27924500524E+02  0.58447308820E+02  0.00000000000E+00 0.  1.
</event>
<event>
 7    1  0.5593520E-006  0.3572574E+02  0.7818608E-02  0.1553975E+00
          2   -1    0    0  502    0  0.00000000000E+00  0.00000000000E+00  0.11394799005E+04  0.11394799005E+04  0.00000000000E+00 0. -1.
          1   -1    0    0  501    0 -0.00000000000E+00 -0.00000000000E+00 -0.93618059668E+03  0.93618059668E+03  0.00000000000E+00 0. -1.
         25    2    1    2    0    0  0.24687584530E+02  0.52451590944E+02 -0.23178645263E+03  0.26963338615E+03  0.12496622378E+03 0.  0.
          2    1    1    2  501    0  0.50858098014E+01 -0.32734795563E+02 -0.68478565854E+03  0.68558648648E+03  0.00000000000E+00 0. -1.
          1    1    1    2  502    0 -0.29773394331E+02 -0.19716795381E+02  0.11198714150E+04  0.11204406246E+04  0.00000000000E+00 0. -1.
         22    1    3    3    0    0  0.37598557969E+02  0.54985737718E+02 -0.24323586954E+03  0.25219193315E+03  0.00000000000E+00 0.  1.
         22    1    3    3    0    0 -0.12910973439E+02 -0.25341467743E+01  0.11449416918E+02  0.17441453001E+02  0.00000000000E+00 0.  1.
</event>
<event>
 7    1  0.5593520E-006  0.1362342E+03  0.7818608E-02  0.1370577E+00
          2   -1    0    0  502    0  0.00000000000E+00  0.00000000000E+00  0.17585324994E+04  0.17585324994E+04  0.00000000000E+00 0. -1.
          1   -1    0    0  501    0 -0.00000000000E+00 -0.00000000000E+00 -0.47960142125E+03  0.47960142125E+03  0.00000000000E+00 0. -1.
         25    2    1    2    0    0  0.60336750186E+02  0.11437325154E+03  0.13303870352E+04  0.13424894366E+04  0.12500583933E+03 0.  0.
          2    1    1    2  501    0 -0.11121534184E+02  0.31024480391E+02 -0.45898398960E+03  0.46016574146E+03  0.00000000000E+00 0. -1.
          1    1    1    2  502    0 -0.49215216003E+02 -0.14539773193E+03  0.40752803257E+03  0.43547874261E+03  0.00000000000E+00 0. -1.
         22    1    3    3    0    0  0.12724514790E+02  0.87599330994E+02  0.11640957979E+04  0.11674564586E+04  0.00000000000E+00 0. -1.
         22    1    3    3    0    0  0.47612235396E+02  0.26773920542E+02  0.16629123729E+03  0.17503297798E+03  0.00000000000E+00 0. -1.
</event>
<event>
 7    1  0.5593520E-006  0.9348529E+02  0.7818608E-02  0.1482017E+00
          2   -1    0    0  502    0  0.00000000000E+00  0.00000000000E+00  0.98659491610E+03  0.98659491610E+03  0.00000000000E+00 0. -1.
          1   -1    0    0  501    0 -0.00000000000E+00 -0.00000000000E+00 -0.16583194121E+04  0.16583194121E+04  0.00000000000E+00 0. -1.
         25    2    1    2    0    0 -0.91150898611E+02  0.12848281998E+02 -0.14667940966E+04  0.14749863762E+04  0.12500529360E+03 0.  0.
          2    1    1    2  501    0 -0.20332952879E+01 -0.20414183643E+02 -0.18463570934E+03  0.18577195253E+03  0.00000000000E+00 0. -1.
          1    1    1    2  502    0  0.93184193899E+02  0.75659016450E+01  0.97970530998E+03  0.98415599946E+03  0.00000000000E+00 0. -1.
         22    1    3    3    0    0 -0.74817461819E+02  0.23424242950E+02 -0.14385702111E+04  0.14407048969E+04  0.00000000000E+00 0.  1.
         22    1    3    3    0    0 -0.16333436792E+02 -0.10575960952E+02 -0.28223885509E+02  0.34281479267E+02  0.00000000000E+00 0.  1.
</event>
<event>
 7    1  0.5593520E-006  0.4557122E+02  0.7818608E-02  0.1551866E+00
          2   -1    0    0  502    0  0.00000000000E+00  0.00000000000E+00  0.21538011615E+04  0.21538011615E+04  0.00000000000E+00 0. -1.
          1   -1    0    0  501    0 -0.00000000000E+00 -0.00000000000E+00 -0.23340148929E+02  0.23340148929E+02  0.00000000000E+00 0. -1.
         25    2    1    2    0    0 -0.13510520725E+02  0.67545111984E+02  0.37427781395E+03  0.40056421787E+03  0.12499173693E+03 0.  0.
          2    1    1    2  501    0 -0.40329203710E+01 -0.26012439001E+02  0.75801349954E+01  0.27392880025E+02  0.00000000000E+00 0. -1.
          1    1    1    2  502    0  0.17543441096E+02 -0.41532672983E+02  0.17486030637E+04  0.17491842126E+04  0.00000000000E+00 0. -1.
         22    1    3    3    0    0 -0.51209269154E+02 -0.12706479218E+02  0.11449656623E+03  0.12606866201E+03  0.00000000000E+00 0.  1.
         22    1    3    3    0    0  0.37698748429E+02  0.80251591202E+02  0.25978124772E+03  0.27449555587E+03  0.00000000000E+00 0.  1.
</event>
<event>
 7    1  0.5593520E-006  0.8070511E+02  0.7818608E-02  0.1406181E+00
          2   -1    0    0  502    0  0.00000000000E+00  0.00000000000E+00  0.16376918064E+04  0.16376918064E+04  0.00000000000E+00 0. -1.
          1   -1    0    0  501    0 -0.00000000000E+00 -0.00000000000E+00 -0.48946142474E+03  0.48946142474E+03  0.00000000000E+00 0. -1.
         25    2    1    2    0    0  0.39782319503E+02 -0.11451660390E+03  0.88127830718E+03  0.89831610038E+03  0.12499470380E+03 0.  0.
          2    1    1    2  501    0 -0.33586938112E+02  0.73217265729E+02 -0.47697980938E+03  0.48373400642E+03  0.00000000000E+00 0. -1.
          1    1    1    2  502    0 -0.61953813911E+01  0.41299338167E+02  0.74393188387E+03  0.74510312435E+03  0.00000000000E+00 0. -1.
         22    1    3    3    0    0  0.97382444706E+01 -0.10744462126E+03  0.35255290294E+03  0.36869056051E+03  0.00000000000E+00 0.  1.
         22    1    3    3    0    0  0.30044075033E+02 -0.70719826366E+01  0.52872540424E+03  0.52962553986E+03  0.00000000000E+00 0.  1.
</event>
<event>
 7    1  0.5593520E-006  0.3250040E+02  0.7818608E-02  0.1587866E+00
          2   -1    0    0  502    0  0.00000000000E+00  0.00000000000E+00  0.14175954076E+03  0.14175954076E+03  0.00000000000E+00 0. -1.
          1   -1    0    0  501    0 -0.00000000000E+00 -0.00000000000E+00 -0.38181009557E+03  0.38181009557E+03  0.00000000000E+00 0. -1.
         25    2    1    2    0    0  0.47600289942E+02  0.37544049349E+02 -0.26339143784E+02  0.14141065153E+03  0.12501151398E+03 0.  0.
          2    1    1    2  501    0 -0.20958928260E+02 -0.20710164012E+02 -0.29422544100E+03  0.29569713847E+03  0.00000000000E+00 0. -1.
          1    1    1    2  502    0 -0.26641361682E+02 -0.16833885337E+02  0.80514029978E+02  0.86461846332E+02  0.00000000000E+00 0. -1.
         22    1    3    3    0    0 -0.14675888291E+02 -0.36009595707E+02  0.68405508487E+01  0.39482474796E+02  0.00000000000E+00 0.  1.
         22    1    3    3    0    0  0.62276178233E+02  0.73553645056E+02 -0.33179694633E+02  0.10192817673E+03  0.00000000000E+00 0.  1.
</event>
<event>
 7    1  0.5593520E-006  0.2002654E+03  0.7818608E-02  0.1271384E+00
          2   -1    0    0  502    0  0.00000000000E+00  0.00000000000E+00  0.11103737138E+04  0.11103737138E+04  0.00000000000E+00 0. -1.
          1   -1    0    0  501    0 -0.00000000000E+00 -0.00000000000E+00 -0.23807655489E+03  0.23807655489E+03  0.00000000000E+00 0. -1.
         25    2    1    2    0    0  0.13514949195E+03 -0.91255258854E+02  0.19981913795E+03  0.28661064080E+03  0.12500025635E+03 0.  0.
          2    1    1    2  501    0 -0.15325634115E+03  0.14253596650E+03 -0.13725285110E+03  0.25028454404E+03  0.00000000000E+00 0. -1.
          1    1    1    2  502    0  0.18106849204E+02 -0.51280707646E+02  0.80973087204E+03  0.81155508384E+03  0.00000000000E+00 0. -1.
         22    1    3    3    0    0  0.75819029582E+02 -0.95324296869E+02  0.19094187564E+03  0.22648189043E+03  0.00000000000E+00 0. -1.
         22    1    3    3    0    0  0.59330462367E+02  0.40690380148E+01  0.88772623061E+01  0.60128750370E+02  0.00000000000E+00 0. -1.
</event>
<event>
 7    1  0.5593520E-006  0.9744600E+02  0.7818608E-02  0.1419548E+00
          2   -1    0    0  502    0  0.00000000000E+00  0.00000000000E+00  0.15503556591E+04  0.15503556591E+04  0.00000000000E+00 0. -1.
          1   -1    0    0  501    0 -0.00000000000E+00 -0.00000000000E+00 -0.23804376164E+03  0.23804376164E+03  0.00000000000E+00 0. -1.
         25    2    1    2    0    0  0.39417837798E+02 -0.77014381024E+02  0.17503950692E+03  0.23183715096E+03  0.12499861904E+03 0.  0.
          2    1    1    2  501    0 -0.69640386621E+02  0.69368935337E+02 -0.19793132679E+03  0.22099466682E+03  0.00000000000E+00 0. -1.
          1    1    1    2  502    0  0.30222548823E+02  0.76454456863E+01  0.13352037174E+04  0.13355676030E+04  0.00000000000E+00 0. -1.
         22    1    3    3    0    0  0.73153124548E+02 -0.59728098727E+02  0.62912440619E+02  0.11347599126E+03  0.00000000000E+00 0.  1.
         22    1    3    3    0    0 -0.33735286750E+02 -0.17286282297E+02  0.11212706630E+03  0.11836115970E+03  0.00000000000E+00 0.  1.
</event>
<event>
 7    1  0.5593520E-006  0.1105854E+03  0.7818608E-02  0.1339210E+00
          2   -1    0    0  502    0  0.00000000000E+00  0.00000000000E+00  0.10733663291E+04  0.10733663291E+04  0.00000000000E+00 0. -1.
          1   -1    0    0  501    0 -0.00000000000E+00 -0.00000000000E+00 -0.15615454333E+04  0.15615454333E+04  0.00000000000E+00 0. -1.
         25    2    1    2    0    0  0.24237244087E+02  0.10576043409E+03  0.19364327116E+03  0.25474526208E+03  0.12499887466E+03 0.  0.
          2    1    1    2  501    0  0.28706506500E+02 -0.10692971536E+03 -0.15281641287E+04  0.15321695833E+04  0.00000000000E+00 0. -1.
          1    1    1    2  502    0 -0.52943750586E+02  0.11692812710E+01  0.84634175338E+03  0.84799691713E+03  0.00000000000E+00 0. -1.
         22    1    3    3    0    0  0.58804499370E+02  0.33911093390E+02  0.33162958067E+02  0.75549408925E+02  0.00000000000E+00 0. -1.
         22    1    3    3    0    0 -0.34567255283E+02  0.71849340703E+02  0.16048031310E+03  0.17919585316E+03  0.00000000000E+00 0. -1.
</event>
<event>
 7    1  0.5593520E-006  0.5980216E+02  0.7818608E-02  0.1452684E+00
          2   -1    0    0  502    0  0.00000000000E+00  0.00000000000E+00  0.14995061003E+03  0.14995061003E+03  0.00000000000E+00 0. -1.
          1   -1    0    0  501    0 -0.00000000000E+00 -0.00000000000E+00 -0.13120768073E+04  0.13120768073E+04  0.00000000000E+00 0. -1.
         25    2    1    2    0    0 -0.36606517762E+02 -0.36365577975E+02  0.30477601238E+02  0.13863318814E+03  0.12501113659E+03 0.  0.
          2    1    1    2  501    0  0.46804257320E+01  0.59794359964E+02 -0.12512190659E+04  0.12526557479E+04  0.00000000000E+00 0. -1.
          1    1    1    2  502    0  0.31926092030E+02 -0.23428781989E+02  0.58615267338E+02  0.70738481344E+02  0.00000000000E+00 0. -1.
         22    1    3    3    0    0  0.34200136993E+02 -0.49546621182E+02 -0.56125981176E+00  0.60206578158E+02  0.00000000000E+00 0. -1.
         22    1    3    3    0    0 -0.70806654755E+02  0.13181043207E+02  0.31038861050E+02  0.78426609979E+02  0.00000000000E+00 0. -1.
</event>
<event>
 7    1  0.5593520E-006  0.8697777E+02  0.7818608E-02  0.1346495E+00
          2   -1    0    0  502    0  0.00000000000E+00  0.00000000000E+00  0.22050314826E+03  0.22050314826E+03  0.00000000000E+00 0. -1.
          1   -1    0    0  501    0 -0.00000000000E+00 -0.00000000000E+00 -0.43588607341E+03  0.43588607341E+03  0.00000000000E+00 0. -1.
         25    2    1    2    0    0  0.89000426125E+02 -0.79128418708E+02 -0.28308254288E+02  0.17495332655E+03  0.12499970686E+03 0.  0.
          2    1    1    2  501    0 -0.84168180107E+02  0.16083642477E+02 -0.32158464533E+03  0.33280572442E+03  0.00000000000E+00 0. -1.
          1    1    1    2  502    0 -0.48322460174E+01  0.63044776231E+02  0.13450997446E+03  0.14863017070E+03  0.00000000000E+00 0. -1.
         22    1    3    3    0    0  0.14624301352E+02 -0.11704849502E+02  0.46254831652E+02  0.49903738768E+02  0.00000000000E+00 0. -1.
         22    1    3    3    0    0  0.74376124773E+02 -0.67423569207E+02 -0.74563085940E+02  0.12504958779E+03  0.00000000000E+00 0. -1.
</event>
<event>
 7    1  0.5593520E-006  0.2234062E+03  0.7818608E-02  0.1139446E+00
          2   -1    0    0  502    0  0.00000000000E+00  0.00000000000E+00  0.54769300056E+03  0.54769300056E+03  0.00000000000E+00 0. -1.
          1   -1    0    0  501    0 -0.00000000000E+00 -0.00000000000E+00 -0.63027948367E+03  0.63027948367E+03  0.00000000000E+00 0. -1.
         25    2    1    2    0    0  0.15841755354E+03  0.50588947207E+02  0.30145447048E+02  0.21021202486E+03  0.12499993827E+03 0.  0.
          2    1    1    2  501    0  0.20487045184E+02 -0.22246480641E+03 -0.47717861355E+03  0.52688683637E+03  0.00000000000E+00 0. -1.
          1    1    1    2  502    0 -0.17890459873E+03  0.17187585921E+03  0.36444668340E+03  0.44087362301E+03  0.00000000000E+00 0. -1.
         22    1    3    3    0    0  0.16551040834E+03  0.43643275336E+02  0.57931733734E+02  0.18070560734E+03  0.00000000000E+00 0.  1.
         22    1    3    3    0    0 -0.70928547957E+01  0.69456718710E+01 -0.27786286687E+02  0.29506417518E+02  0.00000000000E+00 0.  1.
</event>
<event>
 7    1  0.5593520E-006  0.2141240E+03  0.7818608E-02  0.1366243E+00
          2   -1    0    0  502    0  0.00000000000E+00  0.00000000000E+00  0.51509058798E+03  0.51509058798E+03  0.00000000000E+00 0. -1.
          1   -1    0    0  501    0 -0.00000000000E+00 -0.00000000000E+00 -0.40414594673E+03  0.40414594673E+03  0.00000000000E+00 0. -1.
         25    2    1    2    0    0 -0.22660698406E+03  0.51927217552E+02 -0.16213861109E+03  0.30977132503E+03  0.12498873331E+03 0.  0.
          2    1    1    2  501    0  0.21581630668E+02  0.25910621225E+01 -0.14181628691E+03  0.14347243504E+03  0.00000000000E+00 0. -1.
          1    1    1    2  502    0  0.20502535339E+03 -0.54518279675E+02  0.41489953925E+03  0.46599277464E+03  0.00000000000E+00 0. -1.
         22    1    3    3    0    0 -0.84136536553E+02 -0.39816766535E+02 -0.42419049939E+02  0.10229226500E+03  0.00000000000E+00 0. -1.
         22    1    3    3    0    0 -0.14247044751E+03  0.91743984087E+02 -0.11971956115E+03  0.20747906003E+03  0.00000000000E+00 0. -1.
</event>
<event>
 7    1  0.5593520E-006  0.5370876E+02  0.7818608E-02  0.1440689E+00
          2   -1    0    0  502    0  0.00000000000E+00  0.00000000000E+00  0.93873868554E+03  0.93873868554E+03  0.00000000000E+00 0. -1.
          1   -1    0    0  501    0 -0.00000000000E+00 -0.00000000000E+00 -0.10806439401E+03  0.10806439401E+03  0.00000000000E+00 0. -1.
         25    2    1    2    0    0 -0.24492657400E+02  0.24499021836E+02  0.85319099983E+03  0.86299617907E+03  0.12500972188E+03 0.  0.
          2    1    1    2  501    0 -0.15167982458E+02 -0.51866965238E+02 -0.87539207957E+02  0.10287547183E+03  0.00000000000E+00 0. -1.
          1    1    1    2  502    0  0.39660639857E+02  0.27367943402E+02  0.65022499662E+02  0.80931428644E+02  0.00000000000E+00 0. -1.
         22    1    3    3    0    0 -0.57842716415E+02 -0.15959630107E+02  0.66301464267E+03  0.66572434688E+03  0.00000000000E+00 0.  1.
         22    1    3    3    0    0  0.33350059015E+02  0.40458651942E+02  0.19017635716E+03  0.19727183219E+03  0.00000000000E+00 0.  1.
</event>
<event>
 7    1  0.5593520E-006  0.5835935E+02  0.7818608E-02  0.1483784E+00
          2   -1    0    0  502    0  0.00000000000E+00  0.00000000000E+00  0.36632622628E+03  0.36632622628E+03  0.00000000000E+00 0. -1.
          1   -1    0    0  501    0 -0.00000000000E+00 -0.00000000000E+00 -0.81276680769E+03  0.81276680769E+03  0.00000000000E+00 0. -1.
         25    2    1    2    0    0 -0.63403605338E+02  0.44936076981E+02 -0.19286182036E+03  0.24261042903E+03  0.12499948136E+03 0.  0.
          2    1    1    2  501    0  0.67120598610E+01 -0.31755574499E+02 -0.59210265179E+03  0.59299158385E+03  0.00000000000E+00 0. -1.
          1    1    1    2  502    0  0.56691545477E+02 -0.13180502482E+02  0.33852389073E+03  0.34349102109E+03  0.00000000000E+00 0. -1.
         22    1    3    3    0    0  0.72782166868E+01 -0.22454531391E+02  0.29577633355E+01  0.23789215667E+02  0.00000000000E+00 0. -1.
         22    1    3    3    0    0 -0.70681822025E+02  0.67390608372E+02 -0.19581958369E+03  0.21882121336E+03  0.00000000000E+00 0. -1.
</event>
<event>
 7    1  0.5593520E-006  0.4198237E+02  0.7818608E-02  0.1497291E+00
          2   -1    0    0  502    0  0.00000000000E+00  0.00000000000E+00  0.83278654189E+03  0.83278654189E+03  0.00000000000E+00 0. -1.
          1   -1    0    0  501    0 -0.00000000000E+00 -0.00000000000E+00 -0.23744484218E+03  0.23744484218E+03  0.00000000000E+00 0. -1.
         25    2    1    2    0    0  0.23149166237E+02 -0.15244633682E+02  0.24871816509E+03  0.27973914250E+03  0.12499991780E+03 0.  0.
          2    1    1    2  501    0  0.85579073347E+01  0.41347671684E+02 -0.21917496953E+03  0.22320514107E+03  0.00000000000E+00 0. -1.
          1    1    1    2  502    0 -0.31707073572E+02 -0.26103038002E+02  0.56579850414E+03  0.56728710050E+03  0.00000000000E+00 0. -1.
         22    1    3    3    0    0 -0.34213118329E+02  0.14036071579E+02  0.18670882218E+03  0.19033584279E+03  0.00000000000E+00 0. -1.
         22    1    3    3    0    0  0.57362284566E+02 -0.29280705261E+02  0.62009342912E+02  0.89403299713E+02  0.00000000000E+00 0. -1.
</event>
<event>
 7    1  0.5593520E-006  0.6223843E+02  0.7818608E-02  0.1418024E+00
          2   -1    0    0  502    0  0.00000000000E+00  0.00000000000E+00  0.50418785746E+03  0.50418785746E+03  0.00000000000E+00 0. -1.
          1   -1    0    0  501    0 -0.00000000000E+00 -0.00000000000E+00 -0.13673605660E+04  0.13673605660E+04  0.00000000000E+00 0. -1.
         25    2    1    2    0    0 -0.52320972456E+02 -0.10272269170E+02 -0.16849708966E+03  0.21647032255E+03  0.12500051060E+03 0.  0.
          2    1    1    2  501    0  0.49691892744E+02 -0.39043978909E+02 -0.11727540869E+04  0.11744555610E+04  0.00000000000E+00 0. -1.
          1    1    1    2  502    0  0.26290797119E+01  0.49316248079E+02  0.47807846795E+03  0.48062253994E+03  0.00000000000E+00 0. -1.
         22    1    3    3    0    0 -0.93563040434E+02 -0.87110724912E+01 -0.12656617652E+03  0.15763540959E+03  0.00000000000E+00 0.  1.
         22    1    3    3    0    0  0.41242067978E+02 -0.15611966792E+01 -0.41930913138E+02  0.58834912958E+02  0.00000000000E+00 0.  1.
</event>
<event>
 7    1  0.5593520E-006  0.6679710E+02  0.7818608E-02  0.1381864E+00
          2   -1    0    0  502    0  0.00000000000E+00  0.00000000000E+00  0.10649137404E+04  0.10649137404E+04  0.00000000000E+00 0. -1.
          1   -1    0    0  501    0 -0.00000000000E+00 -0.00000000000E+00 -0.13061075619E+03  0.13061075619E+03  0.00000000000E+00 0. -1.
         25    2    1    2    0    0 -0.73876526832E+02  0.52125971822E+02  0.37366068578E+02  0.15873403718E+03  0.12500165328E+03 0.  0.
          2    1    1    2  501    0  0.76487007771E+01 -0.60795443826E+02 -0.55104987653E+02  0.82408423585E+02  0.00000000000E+00 0. -1.
          1    1    1    2  502    0  0.66227826055E+02  0.86694720039E+01  0.95204190324E+03  0.95438203578E+03  0.00000000000E+00 0. -1.
         22    1    3    3    0    0 -0.29049770853E+01  0.77567440250E+02  0.88378989531E+01  0.78123332858E+02  0.00000000000E+00 0. -1.
         22    1    3    3    0    0 -0.70971549747E+02 -0.25441468429E+02  0.28528169625E+02  0.80610704323E+02  0.00000000000E+00 0. -1.
</event>
<event>
 7    1  0.5593520E-006  0.1476828E+03  0.7818608E-02  0.1242902E+00
          2   -1    0    0  502    0  0.00000000000E+00  0.00000000000E+00  0.22302412147E+04  0.22302412147E+04  0.00000000000E+00 0. -1.
          1   -1    0    0  501    0 -0.00000000000E+00 -0.00000000000E+00 -0.55404549362E+03  0.55404549362E+03  0.00000000000E+00 0. -1.
         25    2    1    2    0    0 -0.18678165833E+02  0.13801702341E+03 -0.13394625737E+02  0.18762206875E+03  0.12500020821E+03 0.  0.
          2    1    1    2  501    0  0.97005576919E+02 -0.11618791931E+02 -0.44565975567E+03  0.45624302307E+03  0.00000000000E+00 0. -1.
          1    1    1    2  502    0 -0.78327411086E+02 -0.12639823148E+03  0.21352501025E+04  0.21404216165E+04  0.00000000000E+00 0. -1.
         22    1    3    3    0    0 -0.48294922236E+02  0.11618922330E+03 -0.50302325983E+02  0.13550888947E+03  0.00000000000E+00 0. -1.
         22    1    3    3    0    0  0.29616756403E+02  0.21827800111E+02  0.36907700247E+02  0.52113179283E+02  0.00000000000E+00 0. -1.
</event>
<event>
 7    1  0.5593520E-006  0.6766422E+02  0.7818608E-02  0.1391416E+00
          2   -1    0    0  502    0  0.00000000000E+00  0.00000000000E+00  0.29149999796E+04  0.29149999796E+04  0.00000000000E+00 0. -1.
          1   -1    0    0  501    0 -0.00000000000E+00 -0.00000000000E+00 -0.23618453896E+03  0.23618453896E+03  0.00000000000E+00 0. -1.
         25    2    1    2    0    0 -0.51586262487E+02 -0.10780975805E+03  0.21685510858E+02  0.17429594603E+03  0.12499891605E+03 0.  0.
          2    1    1    2  501    0  0.37050797134E+02  0.41989535290E+02 -0.15455945397E+03  0.16439132414E+03  0.00000000000E+00 0. -1.
          1    1    1    2  502    0  0.14535465353E+02  0.65820222757E+02  0.28116893837E+04  0.28124972484E+04  0.00000000000E+00 0. -1.
         22    1    3    3    0    0 -0.41435141325E+02  0.80040900905E+01  0.38136435635E+02  0.56879909615E+02  0.00000000000E+00 0. -1.
         22    1    3    3    0    0 -0.10151121162E+02 -0.11581384814E+03 -0.16450924777E+02  0.11741603641E+03  0.00000000000E+00 0. -1.
</event>
<event>
 7    1  0.5593520E-006  0.8500840E+02  0.7818608E-02  0.1399273E+00
          2   -1    0    0  502    0  0.00000000000E+00  0.00000000000E+00  0.15277635792E+03  0.15277635792E+03  0.00000000000E+00 0. -1.
          1   -1    0    0  501    0 -0.00000000000E+00 -0.00000000000E+00 -0.31875366004E+03  0.31875366004E+03  0.00000000000E+00 0. -1.
         25    2    1    2    0    0  0.22101955177E+02  0.63298364367E+02 -0.99140646537E+02  0.17305728325E+03  0.12499910455E+03 0.  0.
          2    1    1    2  501    0 -0.63820110316E+02 -0.66829980914E+02 -0.16647103726E+03  0.19039920976E+03  0.00000000000E+00 0. -1.
          1    1    1    2  502    0  0.41718155140E+02  0.35316165463E+01  0.99634381675E+02  0.10807352495E+03  0.00000000000E+00 0. -1.
         22    1    3    3    0    0  0.99163077926E+01 -0.38188445689E+02 -0.31508281770E+02  0.50492201026E+02  0.00000000000E+00 0.  1.
         22    1    3    3    0    0  0.12185647384E+02  0.10148681006E+03 -0.67632364766E+02  0.12256508223E+03  0.00000000000E+00 0.  1.
</event>
<event>
 7    1  0.5593520E-006  0.3383789E+02  0.7818608E-02  0.1607729E+00
          2   -1    0    0  502    0  0.00000000000E+00  0.00000000000E+00  0.12532935595E+04  0.12532935595E+04  0.00000000000E+00 0. -1.
          1   -1    0    0  501    0 -0.00000000000E+00 -0.00000000000E+00 -0.11333819127E+02  0.11333819127E+02  0.00000000000E+00 0. -1.
         25    2    1    2    0    0  0.10828639625E+02  0.15861463352E+01  0.54512631384E+03  0.55938601063E+03  0.12502094045E+03 0.  0.
          2    1    1    2  501    0  0.21258955708E+02  0.13351879136E+02  0.38527382405E+02  0.45984509014E+02  0.00000000000E+00 0. -1.
          1    1    1    2  502    0 -0.32087595333E+02 -0.14938025471E+02  0.65830604410E+03  0.65925685896E+03  0.00000000000E+00 0. -1.
         22    1    3    3    0    0 -0.25222088178E+02 -0.53790815487E+02  0.26175860414E+03  0.26841604349E+03  0.00000000000E+00 0. -1.
         22    1    3    3    0    0  0.36050727802E+02  0.55376961822E+02  0.28336770970E+03  0.29096996714E+03  0.00000000000E+00 0. -1.
</event>
<event>
 7    1  0.5593520E-006  0.1150321E+03  0.7818608E-02  0.1401217E+00
          2   -1    0    0  502    0  0.00000000000E+00  0.00000000000E+00  0.13238715016E+04  0.13238715016E+04  0.00000000000E+00 0. -1.
          1   -1    0    0  501    0 -0.00000000000E+00 -0.00000000000E+00 -0.92336740420E+02  0.92336740420E+02  0.00000000000E+00 0. -1.
         25    2    1    2    0    0  0.92592127825E+02  0.41712523614E+02  0.64038945480E+03  0.66033098492E+03  0.12500047626E+03 0.  0.
          2    1    1    2  501    0  0.83489612694E+01  0.29301070980E+02 -0.73660347564E+02  0.79712638384E+02  0.00000000000E+00 0. -1.
          1    1    1    2  502    0 -0.10094108909E+03 -0.71013594594E+02  0.66480565391E+03  0.67616461868E+03  0.00000000000E+00 0. -1.
         22    1    3    3    0    0 -0.12282583799E+02 -0.24156378558E+02  0.47880256738E+02  0.55017374303E+02  0.00000000000E+00 0.  1.
         22    1    3    3    0    0  0.10487471162E+03  0.65868902172E+02  0.59250919807E+03  0.60531361062E+03  0.00000000000E+00 0.  1.
</event>
<event>
 7    1  0.5593520E-006  0.1389302E+03  0.7818608E-02  0.1221751E+00
          2   -1    0    0  502    0  0.00000000000E+00  0.00000000000E+00  0.68145295781E+03  0.68145295781E+03  0.00000000000E+00 0. -1.
          1   -1    0    0  501    0 -0.00000000000E+00 -0.00000000000E+00 -0.11869649270E+04  0.11869649270E+04  0.00000000000E+00 0. -1.
         25    2    1    2    0    0  0.13743379948E+03 -0.46093445738E+01 -0.61230832539E+03  0.63988689606E+03  0.12499783646E+03 0.  0.
          2    1    1    2  501    0 -0.10406905154E+03  0.12931545305E+03 -0.54208685793E+03  0.56693122636E+03  0.00000000000E+00 0. -1.
          1    1    1    2  502    0 -0.33364747942E+02 -0.12470610848E+03  0.64888321417E+03  0.66159976234E+03  0.00000000000E+00 0. -1.
         22    1    3    3    0    0  0.14401135392E+03  0.30561098707E+02 -0.53148969451E+03  0.55150208176E+03  0.00000000000E+00 0.  1.
         22    1    3    3    0    0 -0.65775544429E+01 -0.35170443281E+02 -0.80818630874E+02  0.88384814303E+02  0.00000000000E+00 0.  1.
</event>
<event>
 7    1  0.5593520E-006  0.1746666E+03  0.7818608E-02  0.1333776E+00
          2   -1    0    0  502    0  0.00000000000E+00  0.00000000000E+00  0.15640320616E+04  0.15640320616E+04  0.00000000000E+00 0. -1.
          1   -1    0    0  501    0 -0.00000000000E+00 -0.00000000000E+00 -0.92147923507E+03  0.92147923507E+03  0.00000000000E+00 0. -1.
         25    2    1    2    0    0 -0.19139128197E+02 -0.15322369292E+03  0.58311399746E+02  0.20704836583E+03  0.12500000060E+03 0.  0.
          2    1    1    2  501    0 -0.76009918129E+01  0.17604229220E+03 -0.83772807312E+03  0.85605898641E+03  0.00000000000E+00 0. -1.
          1    1    1    2  502    0  0.26740120009E+02 -0.22818599278E+02  0.14219694999E+04  0.14224039445E+04  0.00000000000E+00 0. -1.
         22    1    3    3    0    0  0.12175910540E+02 -0.45164579093E+02  0.79809602249E+02  0.92507646243E+02  0.00000000000E+00 0.  1.
         22    1    3    3    0    0 -0.31315038737E+02 -0.10805911383E+03 -0.21498202503E+02  0.11454071958E+03  0.00000000000E+00 0.  1.
</event>
<event>
 7    1  0.5593520E-006  0.5911937E+02  0.7818608E-02  0.1415203E+00
          2   -1    0    0  502    0  0.00000000000E+00  0.00000000000E+00  0.99435846353E+03  0.99435846353E+03  0.00000000000E+00 0. -1.
          1   -1    0    0  501    0 -0.00000000000E+00 -0.00000000000E+00 -0.51984275912E+02  0.51984275912E+02  0.00000000000E+00 0. -1.
         25    2    1    2    0    0  0.70297141620E+02  0.83957681955E+02  0.57419127745E+03  0.59775513921E+03  0.12500001149E+03 0.  0.
          2    1    1    2  501    0 -0.30974141552E+02 -0.48218073787E+02 -0.16983460643E+02  0.59773054297E+02  0.00000000000E+00 0. -1.
          1    1    1    2  502    0 -0.39323000068E+02 -0.35739608168E+02  0.38516637082E+03  0.38881454594E+03  0.00000000000E+00 0. -1.
         22    1    3    3    0    0  0.45842158642E+02 -0.10535163559E+01  0.57493123375E+02  0.73539599136E+02  0.00000000000E+00 0. -1.
         22    1    3    3    0    0  0.24454982978E+02  0.85011198311E+02  0.51669815407E+03  0.52421554007E+03  0.00000000000E+00 0. -1.
</event>
<event>
 7    1  0.5593520E-006  0.9283974E+02  0.7818608E-02  0.1386713E+00
          2   -1    0    0  502    0  0.00000000000E+00  0.00000000000E+00  0.18833203060E+03  0.18833203060E+03  0.00000000000E+00 0. -1.
          1   -1    0    0  501    0 -0.00000000000E+00 -0.00000000000E+00 -0.23261491565E+03  0.23261491565E+03  0.00000000000E+00 0. -1.
         25    2    1    2    0    0 -0.24021145284E+02  0.71081706016E+02 -0.62508212328E+02  0.15862246814E+03  0.12499674571E+03 0.  0.
          2    1    1    2  501    0  0.65620437043E+02 -0.79219868358E+02 -0.95866082732E+02  0.14061342439E+03  0.00000000000E+00 0. -1.
          1    1    1    2  502    0 -0.41599291759E+02  0.81381623423E+01  0.11409141000E+03  0.12171105372E+03  0.00000000000E+00 0. -1.
         22    1    3    3    0    0 -0.67521377941E+02  0.67568772223E+02 -0.19786847156E+02  0.97550985536E+02  0.00000000000E+00 0. -1.
         22    1    3    3    0    0  0.43500232657E+02  0.35129337931E+01 -0.42721365172E+02  0.61071482602E+02  0.00000000000E+00 0. -1.
</event>
<event>
 7    1  0.5593520E-006  0.2372440E+03  0.7818608E-02  0.1294764E+00
          2   -1    0    0  502    0  0.00000000000E+00  0.00000000000E+00  0.72723323637E+03  0.72723323637E+03  0.00000000000E+00 0. -1.
          1   -1    0    0  501    0 -0.00000000000E+00 -0.00000000000E+00 -0.53425971803E+03  0.53425971803E+03  0.00000000000E+00 0. -1.
         25    2    1    2    0    0 -0.14221515539E+03 -0.15187668979E+03  0.77997759356E+02  0.25495085534E+03  0.12499843537E+03 0.  0.
          2    1    1    2  501    0  0.17480400384E+03  0.16894916176E+03 -0.41194996387E+03  0.47833359881E+03  0.00000000000E+00 0. -1.
          1    1    1    2  502    0 -0.32588848451E+02 -0.17072471962E+02  0.52692572285E+03  0.52820850026E+03  0.00000000000E+00 0. -1.
         22    1    3    3    0    0 -0.66385999099E+01 -0.21711576684E+02 -0.30433028944E+02  0.37968840140E+02  0.00000000000E+00 0. -1.
         22    1    3    3    0    0 -0.13557655548E+03 -0.13016511311E+03  0.10843078830E+03  0.21698201520E+03  0.00000000000E+00 0. -1.
</event>
<event>
 7    1  0.5593520E-006  0.2985416E+03  0.7818608E-02  0.1158996E+00
          2   -1    0    0  502    0  0.00000000000E+00  0.00000000000E+00  0.90874108886E+03  0.90874108886E+03  0.00000000000E+00 0. -1.
          1   -1    0    0  501    0 -0.00000000000E+00 -0.00000000000E+00 -0.40108725772E+03  0.40108725772E+03  0.00000000000E+00 0. -1.
         25    2    1    2    0    0 -0.10613675625E+03 -0.33208152681E+03  0.34704688275E+03  0.50755239823E+03  0.12499898655E+03 0.  0.
          2    1    1    2  501    0  0.17604889078E+03  0.23434207693E+03 -0.24326626212E+03  0.38090404993E+03  0.00000000000E+00 0. -1.
          1    1    1    2  502    0 -0.69912134538E+02  0.97739449881E+02  0.40387321051E+03  0.42137189843E+03  0.00000000000E+00 0. -1.
         22    1    3    3    0    0 -0.85200606038E+01 -0.20871020312E+03  0.15985997361E+03  0.26303564679E+03  0.00000000000E+00 0. -1.
         22    1    3    3    0    0 -0.97616695643E+02 -0.12337132370E+03  0.18718690915E+03  0.24451675144E+03  0.00000000000E+00 0. -1.
</event>
<event>
 7    1  0.5593520E-006  0.1403955E+03  0.7818608E-02  0.1271432E+00
          2   -1    0    0  502    0  0.00000000000E+00  0.00000000000E+00  0.27999699469E+04  0.27999699469E+04  0.00000000000E+00 0. -1.
          1   -1    0    0  501    0 -0.00000000000E+00 -0.00000000000E+00 -0.12181858992E+04  0.12181858992E+04  0.00000000000E+00 0. -1.
         25    2    1    2    0    0 -0.93079233849E+02 -0.17833894122E+03  0.96052837549E+03  0.98929679290E+03  0.12499945033E+03 0.  0.
          2    1    1    2  501    0  0.97289941583E+02  0.10091434395E+03 -0.11988928454E+04  0.12070596888E+04  0.00000000000E+00 0. -1.
          1    1    1    2  502    0 -0.42107077334E+01  0.77424597271E+02  0.18201485175E+04  0.18217993644E+04  0.00000000000E+00 0. -1.
         22    1    3    3    0    0 -0.81116393624E+02 -0.11030478715E+03  0.83377495718E+03  0.84494242088E+03  0.00000000000E+00 0. -1.
         22    1    3    3    0    0 -0.11962840225E+02 -0.68034154077E+02  0.12675341832E+03  0.14435437202E+03  0.00000000000E+00 0. -1.
</event>
<event>
 7    1  0.5593520E-006  0.1061134E+03  0.7818608E-02  0.1368318E+00
          2   -1    0    0  502    0  0.00000000000E+00  0.00000000000E+00  0.17332771824E+04  0.17332771824E+04  0.00000000000E+00 0. -1.
          1   -1    0    0  501    0 -0.00000000000E+00 -0.00000000000E+00 -0.42999295005E+02  0.42999295005E+02  0.00000000000E+00 0. -1.
         25    2    1    2    0    0  0.11100380211E+02  0.86296055385E+02  0.51433736252E+03  0.53641450710E+03  0.12500949295E+03 0.  0.
          2    1    1    2  501    0  0.41278461874E+02  0.12439744026E+02 -0.13504043995E+02  0.45177625550E+02  0.00000000000E+00 0. -1.
          1    1    1    2  502    0 -0.52378842085E+02 -0.98735799411E+02  0.11894445689E+04  0.11946843448E+04  0.00000000000E+00 0. -1.
         22    1    3    3    0    0  0.33793728995E+01  0.69210104075E+02  0.51295508945E+03  0.51761412506E+03  0.00000000000E+00 0.  1.
         22    1    3    3    0    0  0.77210073115E+01  0.17085951309E+02  0.13822730681E+01  0.18800382041E+02  0.00000000000E+00 0.  1.
</event>
<event>
 7    1  0.5593520E-006  0.8768097E+02  0.7818608E-02  0.1459442E+00
          2   -1    0    0  502    0  0.00000000000E+00  0.00000000000E+00  0.38067351809E+03  0.38067351809E+03  0.00000000000E+00 0. -1.
          1   -1    0    0  501    0 -0.00000000000E+00 -0.00000000000E+00 -0.16256607700E+04  0.16256607700E+04  0.00000000000E+00 0. -1.
         25    2    1    2    0    0 -0.25682696329E+02  0.75999995014E+02 -0.69773138083E+03  0.71336475764E+03  0.12499839008E+03 0.  0.
          2    1    1    2  501    0 -0.25299441934E+02 -0.45664658330E+01 -0.91476547809E+03  0.91512665477E+03  0.00000000000E+00 0. -1.
          1    1    1    2  502    0  0.50982138263E+02 -0.71433529181E+02  0.36750960696E+03  0.37784287571E+03  0.00000000000E+00 0. -1.
         22    1    3    3    0    0  0.48815433513E+02  0.35297951781E+02 -0.21751635258E+03  0.22570391133E+03  0.00000000000E+00 0. -1.
         22    1    3    3    0    0 -0.74498129842E+02  0.40702043232E+02 -0.48021502824E+03  0.48766084631E+03  0.00000000000E+00 0. -1.
</event>
<event>
 7    1  0.5593520E-006  0.5852284E+02  0.7818608E-02  0.1423485E+00
          2   -1    0    0  502    0  0.00000000000E+00  0.00000000000E+00  0.91342627138E+03  0.91342627138E+03  0.00000000000E+00 0. -1.
          1   -1    0    0  501    0 -0.00000000000E+00 -0.00000000000E+00 -0.51790107401E+02  0.51790107401E+02  0.00000000000E+00 0. -1.
         25    2    1    2    0    0 -0.21362584953E+02 -0.17213306325E+02  0.32259197278E+03  0.34704778691E+03  0.12499571012E+03 0.  0.
          2    1    1    2  501    0 -0.25020410774E+01  0.61564074817E+02 -0.13712414878E+02  0.63122308571E+02  0.00000000000E+00 0. -1.
          1    1    1    2  502    0  0.23864626030E+02 -0.44350768492E+02  0.55275660608E+03  0.55504628330E+03  0.00000000000E+00 0. -1.
         22    1    3    3    0    0 -0.32716274669E+02  0.46275853612E+02  0.96244520699E+02  0.11169072039E+03  0.00000000000E+00 0. -1.
         22    1    3    3    0    0  0.11353689716E+02 -0.63489159937E+02  0.22634745208E+03  0.23535706653E+03  0.00000000000E+00 0. -1.
</event>
<event>
 7    1  0.5593520E-006  0.9346435E+02  0.7818608E-02  0.1425045E+00
          2   -1    0    0  502    0  0.00000000000E+00  0.00000000000E+00  0.10201916958E+04  0.10201916958E+04  0.00000000000E+00 0. -1.
          1   -1    0    0  501    0 -0.00000000000E+00 -0.00000000000E+00 -0.77023332848E+03  0.77023332848E+03  0.00000000000E+00 0. -1.
         25    2    1    2    0    0 -0.36793813880E+02 -0.10693543991E+03  0.23426847660E+03  0.28861024701E+03  0.12500073000E+03 0.  0.
          2    1    1    2  501    0  0.26884943436E+02  0.15756116266E+02 -0.73996170643E+03  0.74061756823E+03  0.00000000000E+00 0. -1.
          1    1    1    2  502    0  0.99088704444E+01  0.91179323647E+02  0.75565159711E+03  0.76119720900E+03  0.00000000000E+00 0. -1.
         22    1    3    3    0    0 -0.30378508458E+02 -0.15079550115E+02 -0.30521208328E+01  0.34052342788E+02  0.00000000000E+00 0.  1.
         22    1    3    3    0    0 -0.64153054226E+01 -0.91855889798E+02  0.23732059743E+03  0.25455790422E+03  0.00000000000E+00 0.  1.
</event>
<event>
 7    1  0.5593520E-006  0.1547260E+03  0.7818608E-02  0.1210367E+00
          2   -1    0    0  502    0  0.00000000000E+00  0.00000000000E+00  0.10040774649E+04  0.10040774649E+04  0.00000000000E+00 0. -1.
          1   -1    0    0  501    0 -0.00000000000E+00 -0.00000000000E+00 -0.82714271978E+03  0.82714271978E+03  0.00000000000E+00 0. -1.
         25    2    1    2    0    0  0.35771931085E+02 -0.18070264854E+03  0.15644017046E+03  0.27208767305E+03  0.12500038661E+03 0.  0.
          2    1    1    2  501    0 -0.12118153035E+03  0.49052844941E+02 -0.75585691830E+03  0.76707941299E+03  0.00000000000E+00 0. -1.
          1    1    1    2  502    0  0.85409599261E+02  0.13164980359E+03  0.77635149292E+03  0.79205309859E+03  0.00000000000E+00 0. -1.
         22    1    3    3    0    0  0.70678380363E+02 -0.13657261792E+03  0.70028897229E+02  0.16897206829E+03  0.00000000000E+00 0.  1.
         22    1    3    3    0    0 -0.34906449278E+02 -0.44130030614E+02  0.86411273232E+02  0.10311560476E+03  0.00000000000E+00 0.  1.
</event>
<event>
 7    1  0.5593520E-006  0.1470797E+03  0.7818608E-02  0.1339248E+00
          2   -1    0    0  502    0  0.00000000000E+00  0.00000000000E+00  0.18532614809E+04  0.18532614809E+04  0.00000000000E+00 0. -1.
          1   -1    0    0  501    0 -0.00000000000E+00 -0.00000000000E+00 -0.79882787547E+02  0.79882787547E+02  0.00000000000E+00 0. -1.
         25    2    1    2    0    0  0.13826731709E+03 -0.37177810535E+02  0.24987455047E+03  0.31394344927E+03  0.12499263096E+03 0.  0.
          2    1    1    2  501    0 -0.10913261824E+02 -0.38278186538E+02 -0.35409776946E+02  0.53274488751E+02  0.00000000000E+00 0. -1.
          1    1    1    2  502    0 -0.12735405526E+03  0.75455997073E+02  0.15589139198E+04  0.15659263304E+04  0.00000000000E+00 0. -1.
         22    1    3    3    0    0  0.35133045334E+02  0.22239236587E+01  0.17971934852E+03  0.18313470710E+03  0.00000000000E+00 0.  1.
         22    1    3    3    0    0  0.10313427175E+03 -0.39401734194E+02  0.70155201946E+02  0.13080874217E+03  0.00000000000E+00 0.  1.
</event>
<event>
 7    1  0.5593520E-006  0.8770387E+02  0.7818608E-02  0.1369519E+00
          2   -1    0    0  502    0  0.00000000000E+00  0.00000000000E+00  0.20536510045E+04  0.20536510045E+04  0.00000000000E+00 0. -1.
          1   -1    0    0  501    0 -0.00000000000E+00 -0.00000000000E+00 -0.84670719410E+03  0.84670719410E+03  0.00000000000E+00 0. -1.
         25    2    1    2    0    0  0.95232603330E+02 -0.10154524279E+03  0.88083303388E+03  0.90048384760E+03  0.12499456441E+03 0.  0.
          2    1    1    2  501    0 -0.60120305897E+02  0.63673221110E+02 -0.83401487638E+03  0.83859975214E+03  0.00000000000E+00 0. -1.
          1    1    1    2  502    0 -0.35112297433E+02  0.37872021684E+02  0.11601256529E+04  0.11612745989E+04  0.00000000000E+00 0. -1.
         22    1    3    3    0    0  0.11695541417E+02  0.12064315855E+02  0.37460933756E+03  0.37498598533E+03  0.00000000000E+00 0.  1.
         22    1    3    3    0    0  0.83537061913E+02 -0.11360955865E+03  0.50622369632E+03  0.52549786227E+03  0.00000000000E+00 0.  1.
</event>
<event>
 7    1  0.5593520E-006  0.2835784E+02  0.7818608E-02  0.1647146E+00
          2   -1    0    0  502    0  0.00000000000E+00  0.00000000000E+00  0.13659912847E+04  0.13659912847E+04  0.00000000000E+00 0. -1.
          1   -1    0    0  501    0 -0.00000000000E+00 -0.00000000000E+00 -0.16892901670E+04  0.16892901670E+04  0.00000000000E+00 0. -1.
         25    2    1    2    0    0 -0.34980790813E+02  0.22570118791E+02  0.25350752349E+03  0.28570086281E+03  0.12500341017E+03 0.  0.
          2    1    1    2  501    0  0.66980319925E+01 -0.22863047222E+02 -0.16729262514E+04  0.16730958804E+04  0.00000000000E+00 0. -1.
          1    1    1    2  502    0  0.28282758821E+02  0.29292843176E+00  0.10961198455E+04  0.10964847085E+04  0.00000000000E+00 0. -1.
         22    1    3    3    0    0 -0.62966168042E+02 -0.79382043353E+01  0.58387561234E+02  0.86237235071E+02  0.00000000000E+00 0. -1.
         22    1    3    3    0    0  0.27985377229E+02  0.30508323126E+02  0.19511996226E+03  0.19946362774E+03  0.00000000000E+00 0. -1.
</event>
<event>
 7    1  0.5593520E-006  0.2045558E+03  0.7818608E-02  0.1338134E+00
          2   -1    0    0  502    0  0.00000000000E+00  0.00000000000E+00  0.32754791237E+03  0.32754791237E+03  0.00000000000E+00 0. -1.
          1   -1    0    0  501    0 -0.00000000000E+00 -0.00000000000E+00 -0.30772926449E+04  0.30772926449E+04  0.00000000000E+00 0. -1.
         25    2    1    2    0    0 -0.11853134084E+03 -0.18464755643E+03 -0.34414656837E+03  0.42685643574E+03  0.12500062944E+03 0.  0.
          2    1    1    2  501    0  0.89719327851E+02  0.18242655269E+03 -0.26872122795E+04  0.26948912483E+04  0.00000000000E+00 0. -1.
          1    1    1    2  502    0  0.28812012988E+02  0.22210037333E+01  0.28161411532E+03  0.28309287327E+03  0.00000000000E+00 0. -1.
         22    1    3    3    0    0 -0.90399377932E+02 -0.19319341917E+03 -0.33291356141E+03  0.39538232650E+03  0.00000000000E+00 0. -1.
         22    1    3    3    0    0 -0.28131962908E+02  0.85458627450E+01 -0.11233006959E+02  0.31474109240E+02  0.00000000000E+00 0. -1.
</event>
<event>
 7    1  0.5593520E-006  0.1189927E+03  0.7818608E-02  0.1328136E+00
          2   -1    0    0  502    0  0.00000000000E+00  0.00000000000E+00  0.57972909104E+03  0.57972909104E+03  0.00000000000E+00 0. -1.
          1   -1    0    0  501    0 -0.00000000000E+00 -0.00000000000E+00 -0.14750717169E+04  0.14750717169E+04  0.00000000000E+00 0. -1.
         25    2    1    2    0    0 -0.56692453482E+02 -0.16073201236E+03 -0.53158653360E+03  0.57206493697E+03  0.12500094133E+03 0.  0.
          2    1    1    2  501    0  0.29538180177E+02  0.45468602174E+02 -0.91616948859E+03  0.91777253701E+03  0.00000000000E+00 0. -1.
          1    1    1    2  502    0  0.27154273304E+02  0.11526341019E+03  0.55241339632E+03  0.56496333396E+03  0.00000000000E+00 0. -1.
         22    1    3    3    0    0 -0.24432524481E+01 -0.13093404396E+03 -0.23439949941E+03  0.26850105898E+03  0.00000000000E+00 0. -1.
         22    1    3    3    0    0 -0.54249201033E+02 -0.29797968401E+02 -0.29718703419E+03  0.30356387799E+03  0.00000000000E+00 0. -1.
</event>
<event>
 7    1  0.5593520E-006  0.1261615E+03  0.7818608E-02  0.1291097E+00
          2   -1    0    0  502    0  0.00000000000E+00  0.00000000000E+00  0.18000140410E+04  0.18000140410E+04  0.00000000000E+00 0. -1.
          1   -1    0    0  501    0 -0.00000000000E+00 -0.00000000000E+00 -0.36644896410E+03  0.36644896410E+03  0.00000000000E+00 0. -1.
         25    2    1    2    0    0  0.27112103390E+02  0.19117409499E+03  0.13020167980E+03  0.26431079433E+03  0.12500047133E+03 0.  0.
          2    1    1    2  501    0 -0.24135897919E+02 -0.67396787598E+02 -0.29268290386E+03  0.30131072128E+03  0.00000000000E+00 0. -1.
          1    1    1    2  502    0 -0.29762054713E+01 -0.12377730739E+03  0.15960463010E+04  0.16008414895E+04  0.00000000000E+00 0. -1.
         22    1    3    3    0    0  0.73621701352E+02  0.14142113781E+03  0.10841143919E+03  0.19280335390E+03  0.00000000000E+00 0.  1.
         22    1    3    3    0    0 -0.46509597962E+02  0.49752957179E+02  0.21790240611E+02  0.71507440428E+02  0.00000000000E+00 0.  1.
</event>
<event>
 7    1  0.5593520E-006  0.8267312E+02  0.7818608E-02  0.1393436E+00
          2   -1    0    0  502    0  0.00000000000E+00  0.00000000000E+00  0.28033125724E+04  0.28033125724E+04  0.00000000000E+00 0. -1.
          1   -1    0    0  501    0 -0.00000000000E+00 -0.00000000000E+00 -0.14748848316E+03  0.14748848316E+03  0.00000000000E+00 0. -1.
         25    2    1    2    0    0  0.38774238545E+02 -0.29203973226E+02  0.19505511078E+02  0.13550913493E+03  0.12500378818E+03 0.  0.
          2    1    1    2  501    0 -0.77828250916E+02  0.51755065002E+02 -0.64841637367E+02  0.11375526946E+03  0.00000000000E+00 0. -1.
          1    1    1    2  502    0  0.39054012372E+02 -0.22551091776E+02  0.27011602156E+04  0.27015366512E+04  0.00000000000E+00 0. -1.
         22    1    3    3    0    0  0.83882907543E+02 -0.29588652105E+02  0.11392532074E+02  0.89675081814E+02  0.00000000000E+00 0. -1.
         22    1    3    3    0    0 -0.45108668998E+02  0.38467887931E+00  0.81129790040E+01  0.45834053115E+02  0.00000000000E+00 0. -1.
</event>
<event>
 7    1  0.5593520E-006  0.4338171E+02  0.7818608E-02  0.1490491E+00
          2   -1    0    0  502    0  0.00000000000E+00  0.00000000000E+00  0.56351807923E+03  0.56351807923E+03  0.00000000000E+00 0. -1.
          1   -1    0    0  501    0 -0.00000000000E+00 -0.00000000000E+00 -0.92122113279E+02  0.92122113279E+02  0.00000000000E+00 0. -1.
         25    2    1    2    0    0  0.76800507070E+01  0.63231973055E+01  0.78524219643E+02  0.14794598450E+03  0.12499198077E+03 0.  0.
          2    1    1    2  501    0 -0.36020397085E+02  0.26521855110E+02 -0.47467588084E+02  0.65223076615E+02  0.00000000000E+00 0. -1.
          1    1    1    2  502    0  0.28340346378E+02 -0.32845052416E+02  0.44033933439E+03  0.44247113139E+03  0.00000000000E+00 0. -1.
         22    1    3    3    0    0  0.22262628595E+02 -0.53519843787E+02  0.60458842327E+02  0.83757208206E+02  0.00000000000E+00 0.  1.
         22    1    3    3    0    0 -0.14582577888E+02  0.59843041093E+02  0.18065377317E+02  0.64188776298E+02  0.00000000000E+00 0.  1.
</event>
<event>
 7    1  0.5593520E-006  0.3901728E+02  0.7818608E-02  0.1530061E+00
          2   -1    0    0  502    0  0.00000000000E+00  0.00000000000E+00  0.25332927413E+03  0.25332927413E+03  0.00000000000E+00 0. -1.
          1   -1    0    0  501    0 -0.00000000000E+00 -0.00000000000E+00 -0.16169882148E+04  0.16169882148E+04  0.00000000000E+00 0. -1.
         25    2    1    2    0    0  0.71796589517E+02 -0.18211445739E+02 -0.89610932213E+02  0.17073473214E+03  0.12503528527E+03 0.  0.
          2    1    1    2  501    0 -0.38126794424E+02  0.71920495469E+01 -0.14850855398E+04  0.14855922854E+04  0.00000000000E+00 0. -1.
          1    1    1    2  502    0 -0.33669795093E+02  0.11019396192E+02  0.21103753134E+03  0.21399047135E+03  0.00000000000E+00 0. -1.
         22    1    3    3    0    0 -0.14708533421E+02 -0.35485395166E+02  0.79283566895E+01  0.39222609108E+02  0.00000000000E+00 0. -1.
         22    1    3    3    0    0  0.86505122938E+02  0.17273949427E+02 -0.97539288902E+02  0.13151212303E+03  0.00000000000E+00 0. -1.
</event>
<event>
 7    1  0.5593520E-006  0.7425377E+02  0.7818608E-02  0.1357733E+00
          2   -1    0    0  502    0  0.00000000000E+00  0.00000000000E+00  0.35116596993E+03  0.35116596993E+03  0.00000000000E+00 0. -1.
          1   -1    0    0  501    0 -0.00000000000E+00 -0.00000000000E+00 -0.69673197732E+03  0.69673197732E+03  0.00000000000E+00 0. -1.
         25    2    1    2    0    0  0.65247726640E+01 -0.11604856867E+02 -0.74090353765E+01  0.12592456362E+03  0.12499942622E+03 0.  0.
          2    1    1    2  501    0 -0.72298872821E+02  0.25919082745E+02 -0.62379777603E+03  0.62850822687E+03  0.00000000000E+00 0. -1.
          1    1    1    2  502    0  0.65774100157E+02 -0.14314225877E+02  0.28564080402E+03  0.29346515676E+03  0.00000000000E+00 0. -1.
         22    1    3    3    0    0  0.37465345083E+02 -0.54516718261E+02  0.16026340507E+02  0.68062972622E+02  0.00000000000E+00 0. -1.
         22    1    3    3    0    0 -0.30940572419E+02  0.42911861393E+02 -0.23435375884E+02  0.57861590997E+02  0.00000000000E+00 0. -1.
</event>
<event>
 7    1  0.5593520E-006  0.1212855E+03  0.7818608E-02  0.1247112E+00
          2   -1    0    0  502    0  0.00000000000E+00  0.00000000000E+00  0.22143820821E+04  0.22143820821E+04  0.00000000000E+00 0. -1.
          1   -1    0    0  501    0 -0.00000000000E+00 -0.00000000000E+00 -0.34646597422E+03  0.34646597422E+03  0.00000000000E+00 0. -1.
         25    2    1    2    0    0  0.51535312462E+02  0.18217528536E+03  0.37242051286E+02  0.22990285222E+03  0.12499851217E+03 0.  0.
          2    1    1    2  501    0  0.42027371611E+02 -0.10599563957E+03 -0.23528909748E+03  0.26146191876E+03  0.00000000000E+00 0. -1.
          1    1    1    2  502    0 -0.93562684073E+02 -0.76179645797E+02  0.20659631541E+04  0.20694832854E+04  0.00000000000E+00 0. -1.
         22    1    3    3    0    0 -0.23308829841E+02 -0.64926246047E+00 -0.12117748662E+02  0.26278563943E+02  0.00000000000E+00 0.  1.
         22    1    3    3    0    0  0.74844142302E+02  0.18282454782E+03  0.49359799948E+02  0.20362428827E+03  0.00000000000E+00 0.  1.
</event>
<event>
 7    1  0.5593520E-006  0.9258162E+02  0.7818608E-02  0.1316453E+00
          2   -1    0    0  502    0  0.00000000000E+00  0.00000000000E+00  0.10863224831E+04  0.10863224831E+04  0.00000000000E+00 0. -1.
          1   -1    0    0  501    0 -0.00000000000E+00 -0.00000000000E+00 -0.10161395323E+04  0.10161395323E+04  0.00000000000E+00 0. -1.
         25    2    1    2    0    0 -0.19018712840E+01  0.85242816238E+02  0.37261870872E+03  0.40216903988E+03  0.12500111887E+03 0.  0.
          2    1    1    2  501    0 -0.74598425099E+02 -0.20358055802E+02 -0.99625923420E+03  0.99925564156E+03  0.00000000000E+00 0. -1.
          1    1    1    2  502    0  0.76500296383E+02 -0.64884760436E+02  0.69382347622E+03  0.70103733398E+03  0.00000000000E+00 0. -1.
         22    1    3    3    0    0 -0.40620746639E+02  0.82395235467E+02  0.14779849717E+03  0.17402130803E+03  0.00000000000E+00 0.  1.
         22    1    3    3    0    0  0.38718875355E+02  0.28475807706E+01  0.22482021155E+03  0.22814773185E+03  0.00000000000E+00 0.  1.
</event>
<event>
 7    1  0.1070556E-005  0.1319456E+03  0.7818608E-02  0.1325083E+00
          2   -1    0    0  502    0  0.00000000000E+00  0.00000000000E+00  0.20122533560E+04  0.20122533560E+04  0.00000000000E+00 0. -1.
          1   -1    0    0  501    0 -0.00000000000E+00 -0.00000000000E+00 -0.16274197567E+04  0.16274197567E+04  0.00000000000E+00 0. -1.
         25    2    1    2    0    0  0.82961560146E+02 -0.34307375726E+02 -0.27643413753E+03  0.31639165093E+03  0.12501291092E+03 0.  0.
          2    1    1    2  501    0 -0.12629433325E+03  0.59722255582E+02 -0.13270228906E+04  0.13343563087E+04  0.00000000000E+00 0. -1.
          1    1    1    2  502    0  0.43332773100E+02 -0.25414879856E+02  0.19882906274E+04  0.19889251531E+04  0.00000000000E+00 0. -1.
         22    1    3    3    0    0  0.90935715123E+02 -0.39518796417E+02 -0.28611597235E+03  0.30280916299E+03  0.00000000000E+00 0. -1.
         22    1    3    3    0    0 -0.79741549773E+01  0.52114206915E+01  0.96818348222E+01  0.13582487944E+02  0.00000000000E+00 0. -1.
</event>
<event>
 7    1  0.5593520E-006  0.1156092E+03  0.7818608E-02  0.1261380E+00
          2   -1    0    0  502    0  0.00000000000E+00  0.00000000000E+00  0.21575304182E+03  0.21575304182E+03  0.00000000000E+00 0. -1.
          1   -1    0    0  501    0 -0.00000000000E+00 -0.00000000000E+00 -0.14101233378E+04  0.14101233378E+04  0.00000000000E+00 0. -1.
         25    2    1    2    0    0  0.26922087271E+02  0.17162448152E+03 -0.40401942847E+03  0.45721236042E+03  0.12502672715E+03 0.  0.
          2    1    1    2  501    0 -0.77220027434E+02 -0.80786079861E+02 -0.96177448528E+03  0.96824557003E+03  0.00000000000E+00 0. -1.
          1    1    1    2  502    0  0.50297940163E+02 -0.90838401664E+02  0.17142361782E+03  0.20041844912E+03  0.00000000000E+00 0. -1.
         22    1    3    3    0    0 -0.33605670182E+02  0.10434622465E+03 -0.29964061268E+03  0.31906421365E+03  0.00000000000E+00 0.  1.
         22    1    3    3    0    0  0.60527757453E+02  0.67278256874E+02 -0.10437881579E+03  0.13814814677E+03  0.00000000000E+00 0.  1.
</event>
<event>
 7    1  0.5593520E-006  0.5343506E+02  0.7818608E-02  0.1452115E+00
          2   -1    0    0  502    0  0.00000000000E+00  0.00000000000E+00  0.11465978782E+03  0.11465978782E+03  0.00000000000E+00 0. -1.
          1   -1    0    0  501    0 -0.00000000000E+00 -0.00000000000E+00 -0.15974827917E+04  0.15974827917E+04  0.00000000000E+00 0. -1.
         25    2    1    2    0    0 -0.56263944722E+02  0.71004538234E+02  0.22171644704E+01  0.15439242268E+03  0.12499931375E+03 0.  0.
          2    1    1    2  501    0  0.29461697326E+02 -0.33356547409E+02 -0.15062458628E+04  0.15069031987E+04  0.00000000000E+00 0. -1.
          1    1    1    2  502    0  0.26802247396E+02 -0.37647990825E+02  0.21205694473E+02  0.50846958185E+02  0.00000000000E+00 0. -1.
         22    1    3    3    0    0 -0.77260368332E+02  0.45994545704E+01  0.24642797600E+02  0.81225531520E+02  0.00000000000E+00 0. -1.
         22    1    3    3    0    0  0.20996423611E+02  0.66405083664E+02 -0.22425633130E+02  0.73166891161E+02  0.00000000000E+00 0. -1.
</event>
<event>
 7    1  0.5593520E-006  0.2021616E+03  0.7818608E-02  0.1238628E+00
          2   -1    0    0  502    0  0.00000000000E+00  0.00000000000E+00  0.10840088380E+04  0.10840088380E+04  0.00000000000E+00 0. -1.
          1   -1    0    0  501    0 -0.00000000000E+00 -0.00000000000E+00 -0.22775234912E+04  0.22775234912E+04  0.00000000000E+00 0. -1.
         25    2    1    2    0    0 -0.33152210844E+02  0.12470445599E+03  0.33914606510E+03  0.38380542672E+03  0.12504511856E+03 0.  0.
          2    1    1    2  501    0  0.62331106809E+02 -0.19328783157E+03 -0.22486832840E+04  0.22578356593E+04  0.00000000000E+00 0. -1.
          1    1    1    2  502    0 -0.29178895965E+02  0.68583375572E+02  0.71602256569E+03  0.71989124314E+03  0.00000000000E+00 0. -1.
         22    1    3    3    0    0  0.18628733346E+02  0.31979192038E+02  0.10566188561E+02  0.38488215991E+02  0.00000000000E+00 0. -1.
         22    1    3    3    0    0 -0.51780944190E+02  0.92725263956E+02  0.32857987654E+03  0.34531721073E+03  0.00000000000E+00 0. -1.
</event>
<event>
 7    1  0.5593520E-006  0.3967359E+02  0.7818608E-02  0.1528683E+00
          2   -1    0    0  502    0  0.00000000000E+00  0.00000000000E+00  0.14656698997E+04  0.14656698997E+04  0.00000000000E+00 0. -1.
          1   -1    0    0  501    0 -0.00000000000E+00 -0.00000000000E+00 -0.58756928903E+03  0.58756928903E+03  0.00000000000E+00 0. -1.
         25    2    1    2    0    0 -0.13705222997E+02 -0.45152946995E+01  0.29535190500E+03  0.32103742689E+03  0.12499624257E+03 0.  0.
          2    1    1    2  501    0  0.72567549115E+01  0.39078532319E+02 -0.57377185323E+03  0.57514687840E+03  0.00000000000E+00 0. -1.
          1    1    1    2  502    0  0.64484680853E+01 -0.34563237619E+02  0.11565205589E+04  0.11570548835E+04  0.00000000000E+00 0. -1.
         22    1    3    3    0    0  0.42151757539E+02  0.33737639841E+02  0.91542015827E+02  0.10627765366E+03  0.00000000000E+00 0. -1.
         22    1    3    3    0    0 -0.55856980536E+02 -0.38252934540E+02  0.20380988917E+03  0.21475977323E+03  0.00000000000E+00 0. -1.
</event>
<event>
 7    1  0.5593520E-006  0.8131409E+02  0.7818608E-02  0.1448522E+00
          2   -1    0    0  502    0  0.00000000000E+00  0.00000000000E+00  0.59064028227E+03  0.59064028227E+03  0.00000000000E+00 0. -1.
          1   -1    0    0  501    0 -0.00000000000E+00 -0.00000000000E+00 -0.13603408336E+04  0.13603408336E+04  0.00000000000E+00 0. -1.
         25    2    1    2    0    0  0.15398383473E+02  0.60079630100E+02 -0.12367496834E+02  0.14008973343E+03  0.12500202505E+03 0.  0.
          2    1    1    2  501    0 -0.20422827069E+02  0.22016037208E+02 -0.12807246153E+04  0.12810766323E+04  0.00000000000E+00 0. -1.
          1    1    1    2  502    0  0.50244435964E+01 -0.82095667308E+02  0.52339156073E+03  0.52981475014E+03  0.00000000000E+00 0. -1.
         22    1    3    3    0    0  0.65705983533E+02  0.30590383549E+02  0.17516754443E+02  0.74564633198E+02  0.00000000000E+00 0. -1.
         22    1    3    3    0    0 -0.50307600060E+02  0.29489246551E+02 -0.29884251277E+02  0.65525100231E+02  0.00000000000E+00 0. -1.
</event>
<event>
 7    1  0.5593520E-006  0.7674645E+02  0.7818608E-02  0.1498222E+00
          2   -1    0    0  502    0  0.00000000000E+00  0.00000000000E+00  0.73997069390E+03  0.73997069390E+03  0.00000000000E+00 0. -1.
          1   -1    0    0  501    0 -0.00000000000E+00 -0.00000000000E+00 -0.80138581553E+02  0.80138581553E+02  0.00000000000E+00 0. -1.
         25    2    1    2    0    0 -0.23452573622E+02 -0.53558988528E+02  0.42418270693E+03  0.44606261726E+03  0.12498920433E+03 0.  0.
          2    1    1    2  501    0  0.18819877966E+02  0.75395442658E+02 -0.46802145881E+02  0.90714394885E+02  0.00000000000E+00 0. -1.
          1    1    1    2  502    0  0.46326956558E+01 -0.21836454130E+02  0.28245155129E+03  0.28333226330E+03  0.00000000000E+00 0. -1.
         22    1    3    3    0    0  0.47298117286E+02  0.28756884757E+01  0.15400294518E+03  0.16112817447E+03  0.00000000000E+00 0.  1.
         22    1    3    3    0    0 -0.70750690907E+02 -0.56434677004E+02  0.27017976175E+03  0.28493444279E+03  0.00000000000E+00 0.  1.
</event>
<event>
 7    1  0.5593520E-006  0.9797450E+02  0.7818608E-02  0.1289509E+00
          2   -1    0    0  502    0  0.00000000000E+00  0.00000000000E+00  0.37433232056E+03  0.37433232056E+03  0.00000000000E+00 0. -1.
          1   -1    0    0  501    0 -0.00000000000E+00 -0.00000000000E+00 -0.12163470269E+03  0.12163470269E+03  0.00000000000E+00 0. -1.
         25    2    1    2    0    0  0.44253408758E+02  0.69519487993E+01 -0.13703168225E+02  0.13349260255E+03  0.12500321730E+03 0.  0.
          2    1    1    2  501    0  0.28399378968E+02 -0.89149968424E+02  0.24285055322E+02  0.96664396278E+02  0.00000000000E+00 0. -1.
          1    1    1    2  502    0 -0.72652787725E+02  0.82198019625E+02  0.24211573078E+03  0.26581002443E+03  0.00000000000E+00 0. -1.
         22    1    3    3    0    0  0.71950139385E+02  0.21955053488E+02  0.28834235637E+02  0.80562150393E+02  0.00000000000E+00 0. -1.
         22    1    3    3    0    0 -0.27696730627E+02 -0.15003104689E+02 -0.42537403861E+02  0.52930452152E+02  0.00000000000E+00 0. -1.
</event>
<event>
 7    1  0.5593520E-006  0.1293053E+03  0.7818608E-02  0.1324506E+00
          2   -1    0    0  502    0  0.00000000000E+00  0.00000000000E+00  0.11383181275E+04  0.11383181275E+04  0.00000000000E+00 0. -1.
          1   -1    0    0  501    0 -0.00000000000E+00 -0.00000000000E+00 -0.94732049485E+02  0.94732049485E+02  0.00000000000E+00 0. -1.
         25    2    1    2    0    0  0.72985053938E+02  0.65047447600E+02  0.43249595627E+03  0.46069006766E+03  0.12499839082E+03 0.  0.
          2    1    1    2  501    0  0.24938950501E+02  0.45086872646E+02 -0.63548855765E+02  0.81812189838E+02  0.00000000000E+00 0. -1.
          1    1    1    2  502    0 -0.97924004439E+02 -0.11013432025E+03  0.67463897750E+03  0.69054791949E+03  0.00000000000E+00 0. -1.
         22    1    3    3    0    0  0.38951284222E+02  0.36605568017E+02  0.40498494465E+03  0.40849721608E+03  0.00000000000E+00 0.  1.
         22    1    3    3    0    0  0.34033769716E+02  0.28441879583E+02  0.27511011629E+02  0.52192851581E+02  0.00000000000E+00 0.  1.
</event>
<event>
 7    1  0.5593520E-006  0.8740072E+02  0.7818608E-02  0.1316288E+00
          2   -1    0    0  502    0  0.00000000000E+00  0.00000000000E+00  0.52618556739E+03  0.52618556739E+03  0.00000000000E+00 0. -1.
          1   -1    0    0  501    0 -0.00000000000E+00 -0.00000000000E+00 -0.18283531697E+04  0.18283531697E+04  0.00000000000E+00 0. -1.
         25    2    1    2    0    0 -0.12108979016E+03 -0.10790855073E+03  0.13179677731E+02  0.20519610815E+03  0.12499898517E+03 0.  0.
          2    1    1    2  501    0  0.46880701982E+02  0.72948576740E+02 -0.17272124238E+04  0.17293877680E+04  0.00000000000E+00 0. -1.
          1    1    1    2  502    0  0.74209088183E+02  0.34959973985E+02  0.41186514380E+03  0.41995486094E+03  0.00000000000E+00 0. -1.
         22    1    3    3    0    0 -0.12003856958E+03 -0.11704995523E+03 -0.21758791937E+02  0.16906624510E+03  0.00000000000E+00 0. -1.
         22    1    3    3    0    0 -0.10512205817E+01  0.91414045047E+01  0.34938469668E+02  0.36129863047E+02  0.00000000000E+00 0. -1.
</event>
<event>
 7    1  0.5593520E-006  0.1489393E+03  0.7818608E-02  0.1295682E+00
          2   -1    0    0  502    0  0.00000000000E+00  0.00000000000E+00  0.27576965919E+04  0.27576965919E+04  0.00000000000E+00 0. -1.
          1   -1    0    0  501    0 -0.00000000000E+00 -0.00000000000E+00 -0.28207417993E+03  0.28207417993E+03  0.00000000000E+00 0. -1.
         25    2    1    2    0    0 -0.38905130722E+01 -0.12545886028E+03  0.47815144942E+02  0.18348320234E+03  0.12499894296E+03 0.  0.
          2    1    1    2  501    0 -0.56932561849E+02 -0.11611306439E+02 -0.20812982828E+03  0.21608832559E+03  0.00000000000E+00 0. -1.
          1    1    1    2  502    0  0.60823074921E+02  0.13707016672E+03  0.26359370953E+04  0.26401992439E+04  0.00000000000E+00 0. -1.
         22    1    3    3    0    0  0.42313673416E+01  0.63394127631E+01  0.50832214596E+02  0.51400453933E+02  0.00000000000E+00 0. -1.
         22    1    3    3    0    0 -0.81218804137E+01 -0.13179827304E+03 -0.30170696547E+01  0.13208274841E+03  0.00000000000E+00 0. -1.
</event>
<event>
 7    1  0.5593520E-006  0.4616064E+02  0.7818608E-02  0.1523664E+00
          2   -1    0    0  502    0  0.00000000000E+00  0.00000000000E+00  0.59672341346E+02  0.59672341346E+02  0.00000000000E+00 0. -1.
          1   -1    0    0  501    0 -0.00000000000E+00 -0.00000000000E+00 -0.31628309231E+04  0.31628309231E+04  0.00000000000E+00 0. -1.
         25    2    1    2    0    0 -0.11603869414E+02  0.41064616567E+02 -0.75602005723E+03  0.76747105558E+03  0.12499816678E+03 0.  0.
          2    1    1    2  501    0 -0.19609632371E+02 -0.42377683619E+02 -0.23963157600E+04  0.23967706664E+04  0.00000000000E+00 0. -1.
          1    1    1    2  502    0  0.31213501785E+02  0.13130670522E+01  0.49177235482E+02  0.58261542448E+02  0.00000000000E+00 0. -1.
         22    1    3    3    0    0 -0.20357800292E+02  0.84015077077E+02 -0.55808812000E+03  0.56474359039E+03  0.00000000000E+00 0.  1.
         22    1    3    3    0    0  0.87539308783E+01 -0.42950460510E+02 -0.19793193723E+03  0.20272746518E+03  0.00000000000E+00 0.  1.
</event>
<event>
 7    1  0.5593520E-006  0.3696952E+02  0.7818608E-02  0.1544814E+00
          2   -1    0    0  502    0  0.00000000000E+00  0.00000000000E+00  0.86859084945E+02  0.86859084945E+02  0.00000000000E+00 0. -1.
          1   -1    0    0  501    0 -0.00000000000E+00 -0.00000000000E+00 -0.20075587691E+04  0.20075587691E+04  0.00000000000E+00 0. -1.
         25    2    1    2    0    0 -0.35901708976E+02  0.28130405047E+02 -0.14838853088E+04  0.14898391883E+04  0.12499978050E+03 0.  0.
          2    1    1    2  501    0 -0.62352532290E+00 -0.33949081810E+02 -0.51603427210E+03  0.51715017057E+03  0.00000000000E+00 0. -1.
          1    1    1    2  502    0  0.36525234299E+02  0.58186767631E+01  0.79219896675E+02  0.87428495178E+02  0.00000000000E+00 0. -1.
         22    1    3    3    0    0 -0.91824711286E+01 -0.17567585275E-02 -0.50201461259E+01  0.10465163460E+02  0.00000000000E+00 0.  1.
         22    1    3    3    0    0 -0.26719237848E+02  0.28132161806E+02 -0.14788651626E+04  0.14793740249E+04  0.00000000000E+00 0.  1.
</event>
<event>
 7    1  0.5593520E-006  0.6184604E+02  0.7818608E-02  0.1404862E+00
          2   -1    0    0  502    0  0.00000000000E+00  0.00000000000E+00  0.27877565130E+03  0.27877565130E+03  0.00000000000E+00 0. -1.
          1   -1    0    0  501    0 -0.00000000000E+00 -0.00000000000E+00 -0.17771221831E+04  0.17771221831E+04  0.00000000000E+00 0. -1.
         25    2    1    2    0    0 -0.79706355278E+01 -0.55548423365E+02 -0.22333953421E+03  0.26202050047E+03  0.12500014703E+03 0.  0.
          2    1    1    2  501    0  0.55953456476E+02  0.28536813306E+02 -0.15308691907E+04  0.15321571780E+04  0.00000000000E+00 0. -1.
          1    1    1    2  502    0 -0.47982820948E+02  0.27011610059E+02  0.25586219309E+03  0.26172015596E+03  0.00000000000E+00 0. -1.
         22    1    3    3    0    0 -0.16205865891E+01 -0.93651990801E+02 -0.12374645807E+03  0.15519828468E+03  0.00000000000E+00 0.  1.
         22    1    3    3    0    0 -0.63500489387E+01  0.38103567436E+02 -0.99593076136E+02  0.10682221579E+03  0.00000000000E+00 0.  1.
</event>
<event>
 7    1  0.5593520E-006  0.6960312E+02  0.7818608E-02  0.1398306E+00
          2   -1    0    0  502    0  0.00000000000E+00  0.00000000000E+00  0.83459213024E+03  0.83459213024E+03  0.00000000000E+00 0. -1.
          1   -1    0    0  501    0 -0.00000000000E+00 -0.00000000000E+00 -0.11553705114E+03  0.11553705114E+03  0.00000000000E+00 0. -1.
         25    2    1    2    0    0  0.66829958961E+02 -0.93594573866E+02  0.35121483325E+03  0.39013238364E+03  0.12500091999E+03 0.  0.
          2    1    1    2  501    0 -0.25048415645E+02  0.63438476331E+02 -0.82316139876E+02  0.10690093680E+03  0.00000000000E+00 0. -1.
          1    1    1    2  502    0 -0.41781543316E+02  0.30156097534E+02  0.45015638573E+03  0.45309586093E+03  0.00000000000E+00 0. -1.
         22    1    3    3    0    0  0.80523109647E+02 -0.86724690629E+02  0.16372325611E+03  0.20201595913E+03  0.00000000000E+00 0.  1.
         22    1    3    3    0    0 -0.13693150685E+02 -0.68698832367E+01  0.18749157715E+03  0.18811642452E+03  0.00000000000E+00 0.  1.
</event>
<event>
 7    1  0.5593520E-006  0.1727222E+03  0.7818608E-02  0.1234062E+00
          2   -1    0    0  502    0  0.00000000000E+00  0.00000000000E+00  0.60277940910E+03  0.60277940910E+03  0.00000000000E+00 0. -1.
          1   -1    0    0  501    0 -0.00000000000E+00 -0.00000000000E+00 -0.50997000801E+03  0.50997000801E+03  0.00000000000E+00 0. -1.
         25    2    1    2    0    0  0.19558612751E+03 -0.14673667771E+02 -0.16948503984E+03  0.28778352998E+03  0.12499972638E+03 0.  0.
          2    1    1    2  501    0 -0.14338125382E+03  0.89699294980E+02 -0.25151469742E+03  0.30309039985E+03  0.00000000000E+00 0. -1.
          1    1    1    2  502    0 -0.52204873693E+02 -0.75025627209E+02  0.51380913835E+03  0.52187548728E+03  0.00000000000E+00 0. -1.
         22    1    3    3    0    0  0.12006408135E+03  0.21203026346E+02 -0.16350707278E+03  0.20395959110E+03  0.00000000000E+00 0.  1.
         22    1    3    3    0    0  0.75522046166E+02 -0.35876694117E+02 -0.59779670636E+01  0.83823938872E+02  0.00000000000E+00 0.  1.
</event>
<event>
 7    1  0.5593520E-006  0.7741280E+02  0.7818608E-02  0.1357371E+00
          2   -1    0    0  502    0  0.00000000000E+00  0.00000000000E+00  0.14459134805E+04  0.14459134805E+04  0.00000000000E+00 0. -1.
          1   -1    0    0  501    0 -0.00000000000E+00 -0.00000000000E+00 -0.94936136524E+02  0.94936136524E+02  0.00000000000E+00 0. -1.
         25    2    1    2    0    0  0.92922552637E+02  0.84046576603E+02  0.16421408475E+03  0.24144257298E+03  0.12501928888E+03 0.  0.
          2    1    1    2  501    0 -0.20017809114E+02 -0.61593207091E+02 -0.36113890236E+02  0.74152875261E+02  0.00000000000E+00 0. -1.
          1    1    1    2  502    0 -0.72904743523E+02 -0.22453369512E+02  0.12228771495E+04  0.12252541688E+04  0.00000000000E+00 0. -1.
         22    1    3    3    0    0 -0.61060130058E+01  0.66332825961E+02  0.10605733044E+03  0.12524170445E+03  0.00000000000E+00 0. -1.
         22    1    3    3    0    0  0.99028565643E+02  0.17713750642E+02  0.58156754310E+02  0.11620086853E+03  0.00000000000E+00 0. -1.
</event>
<event>
 7    1  0.5593520E-006  0.9579069E+02  0.7818608E-02  0.1364301E+00
          2   -1    0    0  502    0  0.00000000000E+00  0.00000000000E+00  0.50038415809E+03  0.50038415809E+03  0.00000000000E+00 0. -1.
          1   -1    0    0  501    0 -0.00000000000E+00 -0.00000000000E+00 -0.15912510424E+03  0.15912510424E+03  0.00000000000E+00 0. -1.
         25    2    1    2    0    0  0.83632463066E+02 -0.89759688701E+02  0.19350460766E+03  0.26099886838E+03  0.12500074206E+03 0.  0.
          2    1    1    2  501    0 -0.20807519948E+01  0.49338000583E+02 -0.11246648194E+03  0.12283027880E+03  0.00000000000E+00 0. -1.
          1    1    1    2  502    0 -0.81551711071E+02  0.40421688118E+02  0.26022092814E+03  0.27568011515E+03  0.00000000000E+00 0. -1.
         22    1    3    3    0    0  0.53676621645E+02 -0.87147828852E+02  0.20474054898E+03  0.22889870289E+03  0.00000000000E+00 0. -1.
         22    1    3    3    0    0  0.29955841420E+02 -0.26118598486E+01 -0.11235941325E+02  0.32100165491E+02  0.00000000000E+00 0. -1.
</event>
<event>
 7    1  0.5593520E-006  0.6470842E+02  0.7818608E-02  0.1383453E+00
          2   -1    0    0  502    0  0.00000000000E+00  0.00000000000E+00  0.75125841415E+03  0.75125841415E+03  0.00000000000E+00 0. -1.
          1   -1    0    0  501    0 -0.00000000000E+00 -0.00000000000E+00 -0.12188486921E+03  0.12188486921E+03  0.00000000000E+00 0. -1.
         25    2    1    2    0    0 -0.38694092122E+02  0.65258910500E+02  0.42430002182E+03  0.44878871770E+03  0.12499938583E+03 0.  0.
          2    1    1    2  501    0  0.62422343008E+02 -0.15428662317E+01 -0.96649693366E+02  0.11506560116E+03  0.00000000000E+00 0. -1.
          1    1    1    2  502    0 -0.23728250886E+02 -0.63716044268E+02  0.30172321649E+03  0.30928896450E+03  0.00000000000E+00 0. -1.
         22    1    3    3    0    0  0.35928199741E+02 -0.91702169260E+01  0.70949873128E+02  0.80055061751E+02  0.00000000000E+00 0. -1.
         22    1    3    3    0    0 -0.74622291863E+02  0.74429127425E+02  0.35335014869E+03  0.36873365595E+03  0.00000000000E+00 0. -1.
</event>
<event>
 7    1  0.5593520E-006  0.1569289E+03  0.7818608E-02  0.1245213E+00
          2   -1    0    0  502    0  0.00000000000E+00  0.00000000000E+00  0.75170098891E+03  0.75170098891E+03  0.00000000000E+00 0. -1.
          1   -1    0    0  501    0 -0.00000000000E+00 -0.00000000000E+00 -0.44033258896E+03  0.44033258896E+03  0.00000000000E+00 0. -1.
         25    2    1    2    0    0  0.11133391550E+03 -0.84831898377E+02 -0.12676307357E+03  0.22646244680E+03  0.12499868507E+03 0.  0.
          2    1    1    2  501    0 -0.17369142654E+03  0.20180038656E+02 -0.23140190789E+03  0.29003928802E+03  0.00000000000E+00 0. -1.
          1    1    1    2  502    0  0.62357511046E+02  0.64651859721E+02  0.66953338141E+03  0.67553184305E+03  0.00000000000E+00 0. -1.
         22    1    3    3    0    0  0.18705447229E+02  0.10208424242E+00  0.23845855129E+02  0.30307243096E+02  0.00000000000E+00 0.  1.
         22    1    3    3    0    0  0.92628468270E+02 -0.84933982619E+02 -0.15060892870E+03  0.19615520371E+03  0.00000000000E+00 0.  1.
</event>
<event>
 7    1  0.5593520E-006  0.5440626E+02  0.7818608E-02  0.1423887E+00
          2   -1    0    0  502    0  0.00000000000E+00  0.00000000000E+00  0.81897163368E+03  0.81897163368E+03  0.00000000000E+00 0. -1.
          1   -1    0    0  501    0 -0.00000000000E+00 -0.00000000000E+00 -0.16944804144E+04  0.16944804144E+04  0.00000000000E+00 0. -1.
         25    2    1    2    0    0  0.60018705111E+01  0.32905092904E+02 -0.27473426000E+03  0.30367878842E+03  0.12499250108E+03 0.  0.
          2    1    1    2  501    0 -0.53636052254E+02 -0.63303364623E+01 -0.14038294707E+04  0.14048679946E+04  0.00000000000E+00 0. -1.
          1    1    1    2  502    0  0.47634181742E+02 -0.26574756441E+02  0.80305495004E+03  0.80490526507E+03  0.00000000000E+00 0. -1.
         22    1    3    3    0    0  0.27475497712E+02  0.37634914879E+02 -0.27761865209E+03  0.28150205289E+03  0.00000000000E+00 0. -1.
         22    1    3    3    0    0 -0.21473627200E+02 -0.47298219757E+01  0.28843920855E+01  0.22176735530E+02  0.00000000000E+00 0. -1.
</event>
<event>
 7    1  0.5593520E-006  0.2628730E+03  0.7818608E-02  0.1283922E+00
          2   -1    0    0  502    0  0.00000000000E+00  0.00000000000E+00  0.11810158268E+04  0.11810158268E+04  0.00000000000E+00 0. -1.
          1   -1    0    0  501    0 -0.00000000000E+00 -0.00000000000E+00 -0.27141055389E+03  0.27141055389E+03  0.00000000000E+00 0. -1.
         25    2    1    2    0    0 -0.91419237619E+02 -0.27562483234E+03  0.35589487895E+03  0.47604234997E+03  0.12501451476E+03 0.  0.
          2    1    1    2  501    0  0.96089811415E+02  0.23916737514E+03 -0.13207309202E+03  0.28961627514E+03  0.00000000000E+00 0. -1.
          1    1    1    2  502    0 -0.46705737961E+01  0.36457457201E+02  0.68578348599E+03  0.68676775558E+03  0.00000000000E+00 0. -1.
         22    1    3    3    0    0 -0.78968314556E+02 -0.10206609509E+03  0.86566285139E+02  0.15539370706E+03  0.00000000000E+00 0.  1.
         22    1    3    3    0    0 -0.12450923062E+02 -0.17355873725E+03  0.26932859381E+03  0.32064864291E+03  0.00000000000E+00 0.  1.
</event>
<event>
 7    1  0.5593520E-006  0.1285215E+03  0.7818608E-02  0.1399854E+00
          2   -1    0    0  502    0  0.00000000000E+00  0.00000000000E+00  0.23900347688E+04  0.23900347688E+04  0.00000000000E+00 0. -1.
          1   -1    0    0  501    0 -0.00000000000E+00 -0.00000000000E+00 -0.21840845213E+03  0.21840845213E+03  0.00000000000E+00 0. -1.
         25    2    1    2    0    0 -0.11507519187E+03 -0.36367134298E+01 -0.49755518228E+02  0.17708732315E+03  0.12501513092E+03 0.  0.
          2    1    1    2  501    0 -0.10339351843E+02 -0.25552680009E+02 -0.10136315064E+03  0.10504441899E+03  0.00000000000E+00 0. -1.
          1    1    1    2  502    0  0.12541454372E+03  0.29189393438E+02  0.23227449855E+04  0.23263114788E+04  0.00000000000E+00 0. -1.
         22    1    3    3    0    0 -0.10044973131E+03 -0.30873872999E+02 -0.81341086479E+02  0.13288986757E+03  0.00000000000E+00 0.  1.
         22    1    3    3    0    0 -0.14625460565E+02  0.27237159569E+02  0.31585568252E+02  0.44197455582E+02  0.00000000000E+00 0.  1.
</event>
<event>
 7    1  0.5593520E-006  0.5722752E+02  0.7818608E-02  0.1458909E+00
          2   -1    0    0  502    0  0.00000000000E+00  0.00000000000E+00  0.31738927600E+03  0.31738927600E+03  0.00000000000E+00 0. -1.
          1   -1    0    0  501    0 -0.00000000000E+00 -0.00000000000E+00 -0.89684769231E+03  0.89684769231E+03  0.00000000000E+00 0. -1.
         25    2    1    2    0    0  0.18724636688E+02 -0.23006691448E+02 -0.38396383632E+03  0.40488609125E+03  0.12499839766E+03 0.  0.
          2    1    1    2  501    0  0.37675270073E+02  0.12005355421E+02 -0.49894411397E+03  0.50050852480E+03  0.00000000000E+00 0. -1.
          1    1    1    2  502    0 -0.56399906762E+02  0.11001336027E+02  0.30344953398E+03  0.30884235226E+03  0.00000000000E+00 0. -1.
         22    1    3    3    0    0 -0.15106006998E+02 -0.23907838482E+02 -0.10928011456E+02  0.30318272092E+02  0.00000000000E+00 0. -1.
         22    1    3    3    0    0  0.33830643686E+02  0.90114703394E+00 -0.37303582486E+03  0.37456781916E+03  0.00000000000E+00 0. -1.
</event>
<event>
 7    1  0.5593520E-006  0.7891028E+02  0.7818608E-02  0.1392736E+00
          2   -1    0    0  502    0  0.00000000000E+00  0.00000000000E+00  0.28479241756E+03  0.28479241756E+03  0.00000000000E+00 0. -1.
          1   -1    0    0  501    0 -0.00000000000E+00 -0.00000000000E+00 -0.13785657753E+04  0.13785657753E+04  0.00000000000E+00 0. -1.
         25    2    1    2    0    0 -0.16482073692E+02  0.48990097956E+02 -0.18940811858E+03  0.23275265755E+03  0.12500670287E+03 0.  0.
          2    1    1    2  501    0  0.38473708583E+02  0.27879562884E+02 -0.11609143872E+04  0.11618862727E+04  0.00000000000E+00 0. -1.
          1    1    1    2  502    0 -0.21991634891E+02 -0.76869660840E+02  0.25654914801E+03  0.26871926263E+03  0.00000000000E+00 0. -1.
         22    1    3    3    0    0 -0.68163374867E+02  0.16805490088E+02 -0.12967787388E+03  0.14746193117E+03  0.00000000000E+00 0. -1.
         22    1    3    3    0    0  0.51681301175E+02  0.32184607868E+02 -0.59730244698E+02  0.85290726380E+02  0.00000000000E+00 0. -1.
</event>
<event>
 7    1  0.5593520E-006  0.7345873E+02  0.7818608E-02  0.1419220E+00
          2   -1    0    0  502    0  0.00000000000E+00  0.00000000000E+00  0.11418658440E+04  0.11418658440E+04  0.00000000000E+00 0. -1.
          1   -1    0    0  501    0 -0.00000000000E+00 -0.00000000000E+00 -0.97588267507E+03  0.97588267507E+03  0.00000000000E+00 0. -1.
         25    2    1    2    0    0  0.42413746788E+02  0.97693001748E+02  0.93638077364E+02  0.18903751833E+03  0.12499698114E+03 0.  0.
          2    1    1    2  501    0 -0.46553905796E+02 -0.56441079175E+02 -0.92631041919E+03  0.92919527240E+03  0.00000000000E+00 0. -1.
          1    1    1    2  502    0  0.41401590077E+01 -0.41251922573E+02  0.99865551078E+03  0.99951572836E+03  0.00000000000E+00 0. -1.
         22    1    3    3    0    0  0.61784777833E+02 -0.27360257790E+00  0.52328429907E+02  0.80967266267E+02  0.00000000000E+00 0.  1.
         22    1    3    3    0    0 -0.19371031045E+02  0.97966604326E+02  0.41309647457E+02  0.10807025206E+03  0.00000000000E+00 0.  1.
</event>
<event>
 7    1  0.5593520E-006  0.7955369E+02  0.7818608E-02  0.1435459E+00
          2   -1    0    0  502    0  0.00000000000E+00  0.00000000000E+00  0.17876784339E+04  0.17876784339E+04  0.00000000000E+00 0. -1.
          1   -1    0    0  501    0 -0.00000000000E+00 -0.00000000000E+00 -0.29384997450E+03  0.29384997450E+03  0.00000000000E+00 0. -1.
         25    2    1    2    0    0 -0.60227849253E+02 -0.80915072488E+02 -0.12366129160E+03  0.20270990256E+03  0.12499818708E+03 0.  0.
          2    1    1    2  501    0  0.28689180771E+02  0.68669792978E+02 -0.11988929728E+03  0.14111007463E+03  0.00000000000E+00 0. -1.
          1    1    1    2  502    0  0.31538668482E+02  0.12245279510E+02  0.17373790483E+04  0.17377084312E+04  0.00000000000E+00 0. -1.
         22    1    3    3    0    0 -0.96569425717E+02 -0.69887122503E+02 -0.11042430960E+03  0.16249120600E+03  0.00000000000E+00 0. -1.
         22    1    3    3    0    0  0.36341576464E+02 -0.11027949985E+02 -0.13236982001E+02  0.40218696564E+02  0.00000000000E+00 0. -1.
</event>
<event>
 7    1  0.5593520E-006  0.1661345E+03  0.7818608E-02  0.1200307E+00
          2   -1    0    0  502    0  0.00000000000E+00  0.00000000000E+00  0.17178520612E+04  0.17178520612E+04  0.00000000000E+00 0. -1.
          1   -1    0    0  501    0 -0.00000000000E+00 -0.00000000000E+00 -0.33342251366E+03  0.33342251366E+03  0.00000000000E+00 0. -1.
         25    2    1    2    0    0 -0.15849953212E+03  0.23543172308E+03  0.26267664661E+03  0.40642291970E+03  0.12502148244E+03 0.  0.
          2    1    1    2  501    0  0.10533856355E+03 -0.85510833501E+02 -0.23900383000E+03  0.27482930406E+03  0.00000000000E+00 0. -1.
          1    1    1    2  502    0  0.53160968563E+02 -0.14992088958E+03  0.13607567309E+04  0.13700223511E+04  0.00000000000E+00 0. -1.
         22    1    3    3    0    0 -0.67141539627E+02  0.15586370449E+03  0.80980889129E+02  0.18804091344E+03  0.00000000000E+00 0. -1.
         22    1    3    3    0    0 -0.91357992490E+02  0.79568018585E+02  0.18169575748E+03  0.21838200626E+03  0.00000000000E+00 0. -1.
</event>
<event>
 7    1  0.5593520E-006  0.5848352E+02  0.7818608E-02  0.1515170E+00
          2   -1    0    0  502    0  0.00000000000E+00  0.00000000000E+00  0.39722602634E+03  0.39722602634E+03  0.00000000000E+00 0. -1.
          1   -1    0    0  501    0 -0.00000000000E+00 -0.00000000000E+00 -0.17798882864E+03  0.17798882864E+03  0.00000000000E+00 0. -1.
         25    2    1    2    0    0 -0.72143927440E+02 -0.23985987662E+02 -0.32890983725E+02  0.14996413638E+03  0.12500940572E+03 0.  0.
          2    1    1    2  501    0  0.24442075727E+02 -0.91555574022E+01 -0.82029776277E+02  0.86082074170E+02  0.00000000000E+00 0. -1.
          1    1    1    2  502    0  0.47701851712E+02  0.33141545064E+02  0.33415795771E+03  0.33916864443E+03  0.00000000000E+00 0. -1.
         22    1    3    3    0    0 -0.48232045389E+02  0.31936860303E+02  0.27678742409E+02  0.64128044019E+02  0.00000000000E+00 0.  1.
         22    1    3    3    0    0 -0.23911882050E+02 -0.55922847964E+02 -0.60569726134E+02  0.85836092359E+02  0.00000000000E+00 0.  1.
</event>
<event>
 7    1  0.5593520E-006  0.5427100E+02  0.7818608E-02  0.1433884E+00
          2   -1    0    0  502    0  0.00000000000E+00  0.00000000000E+00  0.25685833140E+04  0.25685833140E+04  0.00000000000E+00 0. -1.
          1   -1    0    0  501    0 -0.00000000000E+00 -0.00000000000E+00 -0.99126789728E+02  0.99126789728E+02  0.00000000000E+00 0. -1.
         25    2    1    2    0    0 -0.81220259538E+01 -0.50065245835E+02  0.60985528664E+03  0.62459706138E+03  0.12500208919E+03 0.  0.
          2    1    1    2  501    0 -0.42416715468E+02  0.26821278385E+02 -0.84466049127E+02  0.98250049264E+02  0.00000000000E+00 0. -1.
          1    1    1    2  502    0  0.50538741422E+02  0.23243967450E+02  0.19440672868E+04  0.19448629931E+04  0.00000000000E+00 0. -1.
         22    1    3    3    0    0  0.45523902479E+02 -0.13908022633E+01  0.40014928523E+03  0.40273292701E+03  0.00000000000E+00 0.  1.
         22    1    3    3    0    0 -0.53645928433E+02 -0.48674443572E+02  0.20970600140E+03  0.22186413437E+03  0.00000000000E+00 0.  1.
</event>
<event>
 7    1  0.5593520E-006  0.5262660E+02  0.7818608E-02  0.1537186E+00
          2   -1    0    0  502    0  0.00000000000E+00  0.00000000000E+00  0.21465406610E+04  0.21465406610E+04  0.00000000000E+00 0. -1.
          1   -1    0    0  501    0 -0.00000000000E+00 -0.00000000000E+00 -0.18331373671E+03  0.18331373671E+03  0.00000000000E+00 0. -1.
         25    2    1    2    0    0  0.13953820632E+02 -0.41312127560E+02 -0.20253678051E+02  0.13392868929E+03  0.12500112538E+03 0.  0.
          2    1    1    2  501    0 -0.22692250007E+02 -0.10645914902E+02 -0.10440689882E+03  0.10737352670E+03  0.00000000000E+00 0. -1.
          1    1    1    2  502    0  0.87384293744E+01  0.51958042462E+02  0.20878875012E+04  0.20885521818E+04  0.00000000000E+00 0. -1.
         22    1    3    3    0    0  0.65463408344E+02 -0.40122246676E+01 -0.24920487917E+02  0.70161146633E+02  0.00000000000E+00 0. -1.
         22    1    3    3    0    0 -0.51509587712E+02 -0.37299902892E+02  0.46668098661E+01  0.63767542656E+02  0.00000000000E+00 0. -1.
</event>
<event>
 7    1  0.5593520E-006  0.3273430E+02  0.7818608E-02  0.1593543E+00
          2   -1    0    0  502    0  0.00000000000E+00  0.00000000000E+00  0.49205194938E+03  0.49205194938E+03  0.00000000000E+00 0. -1.
          1   -1    0    0  501    0 -0.00000000000E+00 -0.00000000000E+00 -0.12092353104E+04  0.12092353104E+04  0.00000000000E+00 0. -1.
         25    2    1    2    0    0 -0.54250242612E+02 -0.25430848006E+02 -0.26795709566E+03  0.30169312777E+03  0.12501168494E+03 0.  0.
          2    1    1    2  501    0  0.22729954550E+02  0.16793240846E+02 -0.92363185904E+03  0.92406410752E+03  0.00000000000E+00 0. -1.
          1    1    1    2  502    0  0.31520288063E+02  0.86376071602E+01  0.47440559371E+03  0.47553002446E+03  0.00000000000E+00 0. -1.
         22    1    3    3    0    0 -0.57231895985E+02  0.33132377510E+02 -0.20614161031E+03  0.21648927886E+03  0.00000000000E+00 0.  1.
         22    1    3    3    0    0  0.29816533724E+01 -0.58563225516E+02 -0.61815485350E+02  0.85203848908E+02  0.00000000000E+00 0.  1.
</event>
<event>
 7    1  0.5593520E-006  0.5111397E+02  0.7818608E-02  0.1505950E+00
          2   -1    0    0  502    0  0.00000000000E+00  0.00000000000E+00  0.22142654662E+03  0.22142654662E+03  0.00000000000E+00 0. -1.
          1   -1    0    0  501    0 -0.00000000000E+00 -0.00000000000E+00 -0.13529519758E+04  0.13529519758E+04  0.00000000000E+00 0. -1.
         25    2    1    2    0    0 -0.14933500302E+02 -0.70048077378E+02 -0.28883933784E+03  0.32277317852E+03  0.12499847645E+03 0.  0.
          2    1    1    2  501    0  0.24683598899E+02  0.20030048024E+02 -0.10437246918E+04  0.10442086550E+04  0.00000000000E+00 0. -1.
          1    1    1    2  502    0 -0.97500985976E+01  0.50018029354E+02  0.20103860047E+03  0.20739668889E+03  0.00000000000E+00 0. -1.
         22    1    3    3    0    0 -0.46285931586E+02 -0.60097981426E+01 -0.21546171407E+03  0.22045919207E+03  0.00000000000E+00 0.  1.
         22    1    3    3    0    0  0.31352431284E+02 -0.64038279235E+02 -0.73377623765E+02  0.10231398645E+03  0.00000000000E+00 0.  1.
</event>
<event>
 7    1  0.5593520E-006  0.1981775E+03  0.7818608E-02  0.1337869E+00
          2   -1    0    0  502    0  0.00000000000E+00  0.00000000000E+00  0.38088499256E+03  0.38088499256E+03  0.00000000000E+00 0. -1.
          1   -1    0    0  501    0 -0.00000000000E+00 -0.00000000000E+00 -0.61996552008E+03  0.61996552008E+03  0.00000000000E+00 0. -1.
         25    2    1    2    0    0 -0.11491988019E+03  0.15028005774E+03  0.13552492908E+03  0.26416448494E+03  0.12500077634E+03 0.  0.
          2    1    1    2  501    0  0.14260864026E+03 -0.13900482256E+03 -0.53638816678E+03  0.57216416388E+03  0.00000000000E+00 0. -1.
          1    1    1    2  502    0 -0.27688760069E+02 -0.11275235173E+02  0.16178271018E+03  0.16452186382E+03  0.00000000000E+00 0. -1.
         22    1    3    3    0    0  0.60730958998E+01  0.91568975206E+02  0.46456650163E+02  0.10285903003E+03  0.00000000000E+00 0.  1.
         22    1    3    3    0    0 -0.12099297609E+03  0.58711082530E+02  0.89068278915E+02  0.16130545491E+03  0.00000000000E+00 0.  1.
</event>
<event>
 7    1  0.5593520E-006  0.1914362E+03  0.7818608E-02  0.1309958E+00
          2   -1    0    0  502    0  0.00000000000E+00  0.00000000000E+00  0.12115384773E+04  0.12115384773E+04  0.00000000000E+00 0. -1.
          1   -1    0    0  501    0 -0.00000000000E+00 -0.00000000000E+00 -0.16527730453E+04  0.16527730453E+04  0.00000000000E+00 0. -1.
         25    2    1    2    0    0  0.24634306828E+02 -0.21614148498E+03  0.51847942444E+03  0.57599443248E+03  0.12499872831E+03 0.  0.
          2    1    1    2  501    0  0.84630835540E+01  0.38741375082E+02 -0.16115113075E+04  0.16119991353E+04  0.00000000000E+00 0. -1.
          1    1    1    2  502    0 -0.33097390382E+02  0.17740010990E+03  0.65179731500E+03  0.67631795488E+03  0.00000000000E+00 0. -1.
         22    1    3    3    0    0 -0.16067977681E+02 -0.12874657323E+03  0.16668612943E+03  0.21123003047E+03  0.00000000000E+00 0.  1.
         22    1    3    3    0    0  0.40702284509E+02 -0.87394911751E+02  0.35179329501E+03  0.36476440202E+03  0.00000000000E+00 0.  1.
</event>
<event>
 7    1  0.5593520E-006  0.9852570E+02  0.7818608E-02  0.1301383E+00
          2   -1    0    0  502    0  0.00000000000E+00  0.00000000000E+00  0.51486029426E+03  0.51486029426E+03  0.00000000000E+00 0. -1.
          1   -1    0    0  501    0 -0.00000000000E+00 -0.00000000000E+00 -0.85710555722E+03  0.85710555722E+03  0.00000000000E+00 0. -1.
         25    2    1    2    0    0 -0.49900116247E+02 -0.15761178210E+03  0.26011961774E+03  0.33259415066E+03  0.12500063224E+03 0.  0.
          2    1    1    2  501    0  0.36676529663E+02  0.74823561490E+02 -0.81061109476E+03  0.81488286283E+03  0.00000000000E+00 0. -1.
          1    1    1    2  502    0  0.13223586583E+02  0.82788220614E+02  0.20824621406E+03  0.22448883800E+03  0.00000000000E+00 0. -1.
         22    1    3    3    0    0 -0.85653473631E+02 -0.65700617929E+02  0.14943999464E+03  0.18435129709E+03  0.00000000000E+00 0. -1.
         22    1    3    3    0    0  0.35753357384E+02 -0.91911164175E+02  0.11067962310E+03  0.14824285357E+03  0.00000000000E+00 0. -1.
</event>
<event>
 7    1  0.5593520E-006  0.2713773E+03  0.7818608E-02  0.1336281E+00
          2   -1    0    0  502    0  0.00000000000E+00  0.00000000000E+00  0.28048176347E+04  0.28048176347E+04  0.00000000000E+00 0. -1.
          1   -1    0    0  501    0 -0.00000000000E+00 -0.00000000000E+00 -0.40857057984E+03  0.40857057984E+03  0.00000000000E+00 0. -1.
         25    2    1    2    0    0  0.24693193754E+03  0.49591358478E+02  0.12848225912E+03  0.30914064388E+03  0.12500224869E+03 0.  0.
          2    1    1    2  501    0  0.19189113748E+02  0.11035595041E+02 -0.31064460036E+03  0.31143229469E+03  0.00000000000E+00 0. -1.
          1    1    1    2  502    0 -0.26612105129E+03 -0.60626953520E+02  0.25784093961E+04  0.25928152760E+04  0.00000000000E+00 0. -1.
         22    1    3    3    0    0  0.18337279117E+03  0.52845777664E+02  0.14917157204E+03  0.24221976522E+03  0.00000000000E+00 0. -1.
         22    1    3    3    0    0  0.63559146367E+02 -0.32544191853E+01 -0.20689312924E+02  0.66920878659E+02  0.00000000000E+00 0. -1.
</event>
<event>
 7    1  0.5593520E-006  0.1052461E+03  0.7818608E-02  0.1379007E+00
          2   -1    0    0  502    0  0.00000000000E+00  0.00000000000E+00  0.33188509583E+03  0.33188509583E+03  0.00000000000E+00 0. -1.
          1   -1    0    0  501    0 -0.00000000000E+00 -0.00000000000E+00 -0.68345487887E+03  0.68345487887E+03  0.00000000000E+00 0. -1.
         25    2    1    2    0    0  0.30163990438E+02 -0.13466470862E+03 -0.47037196983E+03  0.50588324087E+03  0.12499445316E+03 0.  0.
          2    1    1    2  501    0 -0.26109247943E+02  0.30046651447E+02 -0.18442080321E+03  0.18866776818E+03  0.00000000000E+00 0. -1.
          1    1    1    2  502    0 -0.40547424944E+01  0.10461805717E+03  0.30322299000E+03  0.32078896566E+03  0.00000000000E+00 0. -1.
         22    1    3    3    0    0  0.58043609930E+01 -0.15374130448E+03 -0.36599249063E+03  0.39701458727E+03  0.00000000000E+00 0.  1.
         22    1    3    3    0    0  0.24359629445E+02  0.19076595867E+02 -0.10437947921E+03  0.10886865360E+03  0.00000000000E+00 0.  1.
</event>
<event>
 7    1  0.5593520E-006  0.1739383E+03  0.7818608E-02  0.1199575E+00
          2   -1    0    0  502    0  0.00000000000E+00  0.00000000000E+00  0.34760971239E+02  0.34760971239E+02  0.00000000000E+00 0. -1.
          1   -1    0    0  501    0 -0.00000000000E+00 -0.00000000000E+00 -0.24031559979E+04  0.24031559979E+04  0.00000000000E+00 0. -1.
         25    2    1    2    0    0  0.50460937907E+02  0.34052889819E+02 -0.60859206082E+03  0.62427236643E+03  0.12500314168E+03 0.  0.
          2    1    1    2  501    0 -0.45222348451E+02  0.16795673575E+03 -0.12974863357E+04  0.13090933187E+04  0.00000000000E+00 0. -1.
          1    1    1    2  502    0 -0.52385894561E+01 -0.20200962557E+03 -0.46231663020E+03  0.50455128402E+03  0.00000000000E+00 0. -1.
         22    1    3    3    0    0  0.21964875839E+02  0.80831290958E+02 -0.39341424663E+03  0.40223242388E+03  0.00000000000E+00 0. -1.
         22    1    3    3    0    0  0.28496062068E+02 -0.46778401139E+02 -0.21517781419E+03  0.22203994255E+03  0.00000000000E+00 0. -1.
</event>
<event>
 7    1  0.5593520E-006  0.5658344E+02  0.7818608E-02  0.1442473E+00
          2   -1    0    0  502    0  0.00000000000E+00  0.00000000000E+00  0.15477919860E+03  0.15477919860E+03  0.00000000000E+00 0. -1.
          1   -1    0    0  501    0 -0.00000000000E+00 -0.00000000000E+00 -0.17771230310E+03  0.17771230310E+03  0.00000000000E+00 0. -1.
         25    2    1    2    0    0  0.23484830543E+02 -0.20885493705E+02 -0.84391371520E+02  0.15406198320E+03  0.12500179986E+03 0.  0.
          2    1    1    2  501    0 -0.57166651761E+02  0.50929504454E+02 -0.25298942010E+02  0.80634217081E+02  0.00000000000E+00 0. -1.
          1    1    1    2  502    0  0.33681821217E+02 -0.30044010749E+02  0.86757209024E+02  0.97795301421E+02  0.00000000000E+00 0. -1.
         22    1    3    3    0    0  0.49906154456E+02 -0.37389742537E+02 -0.10104462439E+03  0.11873766554E+03  0.00000000000E+00 0. -1.
         22    1    3    3    0    0 -0.26421323913E+02  0.16504248832E+02  0.16653252873E+02  0.35324317659E+02  0.00000000000E+00 0. -1.
</event>
<event>
 7    1  0.5593520E-006  0.2011843E+03  0.7818608E-02  0.1236265E+00
          2   -1    0    0  502    0  0.00000000000E+00  0.00000000000E+00  0.10104801074E+04  0.10104801074E+04  0.00000000000E+00 0. -1.
          1   -1    0    0  501    0 -0.00000000000E+00 -0.00000000000E+00 -0.42250437867E+03  0.42250437867E+03  0.00000000000E+00 0. -1.
         25    2    1    2    0    0  0.80490353155E+02  0.23566994194E+03 -0.30712019059E+02  0.28033371314E+03  0.12499897649E+03 0.  0.
          2    1    1    2  501    0 -0.99357682094E+02 -0.16130498569E+03 -0.23142680484E+03  0.29908128226E+03  0.00000000000E+00 0. -1.
          1    1    1    2  502    0  0.18867328939E+02 -0.74364956248E+02  0.85011455263E+03  0.85356949068E+03  0.00000000000E+00 0. -1.
         22    1    3    3    0    0  0.11055843904E+03  0.15421594026E+03 -0.36825958173E+02  0.19329220333E+03  0.00000000000E+00 0.  1.
         22    1    3    3    0    0 -0.30068085885E+02  0.81454001684E+02  0.61139391141E+01  0.87041509814E+02  0.00000000000E+00 0.  1.
</event>
<event>
 7    1  0.8782754E-006  0.6294905E+02  0.7818608E-02  0.1423651E+00
          2   -1    0    0  502    0  0.00000000000E+00  0.00000000000E+00  0.11843517049E+04  0.11843517049E+04  0.00000000000E+00 0. -1.
          1   -1    0    0  501    0 -0.00000000000E+00 -0.00000000000E+00 -0.10652780063E+04  0.10652780063E+04  0.00000000000E+00 0. -1.
         25    2    1    2    0    0  0.57310025379E+02  0.78306756958E+02 -0.12827023839E+03  0.20370341451E+03  0.12500175932E+03 0.  0.
          2    1    1    2  501    0 -0.43557037197E+02 -0.17016961893E+02 -0.89782196690E+03  0.89903897398E+03  0.00000000000E+00 0. -1.
          1    1    1    2  502    0 -0.13752988182E+02 -0.61289795065E+02  0.11451659039E+04  0.11468873228E+04  0.00000000000E+00 0. -1.
         22    1    3    3    0    0  0.55728908132E+02  0.63480021626E+02 -0.10648089212E+02  0.85139921019E+02  0.00000000000E+00 0. -1.
         22    1    3    3    0    0  0.15811172469E+01  0.14826735332E+02 -0.11762214918E+03  0.11856349349E+03  0.00000000000E+00 0. -1.
</event>
<event>
 7    1  0.5593520E-006  0.9243294E+02  0.7818608E-02  0.1330149E+00
          2   -1    0    0  502    0  0.00000000000E+00  0.00000000000E+00  0.24531665165E+04  0.24531665165E+04  0.00000000000E+00 0. -1.
          1   -1    0    0  501    0 -0.00000000000E+00 -0.00000000000E+00 -0.33297983617E+02  0.33297983617E+02  0.00000000000E+00 0. -1.
         25    2    1    2    0    0 -0.32964392951E+02  0.53776206928E+02  0.85999030248E+03  0.87131443998E+03  0.12500800507E+03 0.  0.
          2    1    1    2  501    0  0.94350542107E+02 -0.23212934872E+02  0.61045285594E+02  0.11474925723E+03  0.00000000000E+00 0. -1.
          1    1    1    2  502    0 -0.61386149156E+02 -0.30563272055E+02  0.14988329448E+04  0.15004008029E+04  0.00000000000E+00 0. -1.
         22    1    3    3    0    0 -0.87046004610E+01  0.86752041909E+02  0.39411047956E+03  0.40363938973E+03  0.00000000000E+00 0. -1.
         22    1    3    3    0    0 -0.24259792490E+02 -0.32975834981E+02  0.46587982292E+03  0.46767505025E+03  0.00000000000E+00 0. -1.
</event>
<event>
 7    1  0.5593520E-006  0.9953608E+02  0.7818608E-02  0.1283081E+00
          2   -1    0    0  502    0  0.00000000000E+00  0.00000000000E+00  0.17980305212E+04  0.17980305212E+04  0.00000000000E+00 0. -1.
          1   -1    0    0  501    0 -0.00000000000E+00 -0.00000000000E+00 -0.89095027127E+03  0.89095027127E+03  0.00000000000E+00 0. -1.
         25    2    1    2    0    0  0.13791565914E+02  0.19648039387E+03  0.91201929517E+03  0.94138585256E+03  0.12503350015E+03 0.  0.
          2    1    1    2  501    0 -0.10407226569E+02 -0.98692899595E+02 -0.87069248338E+03  0.87632984624E+03  0.00000000000E+00 0. -1.
          1    1    1    2  502    0 -0.33843393448E+01 -0.97787494275E+02  0.86575343811E+03  0.87126509364E+03  0.00000000000E+00 0. -1.
         22    1    3    3    0    0  0.69046213715E+02  0.12646412518E+03  0.56933547784E+03  0.58728480392E+03  0.00000000000E+00 0.  1.
         22    1    3    3    0    0 -0.55254647801E+02  0.70016268688E+02  0.34268381733E+03  0.35410104864E+03  0.00000000000E+00 0.  1.
</event>
<event>
 7    1  0.5593520E-006  0.4082593E+02  0.7818608E-02  0.1558226E+00
          2   -1    0    0  502    0  0.00000000000E+00  0.00000000000E+00  0.68272119768E+03  0.68272119768E+03  0.00000000000E+00 0. -1.
          1   -1    0    0  501    0 -0.00000000000E+00 -0.00000000000E+00 -0.33373113151E+03  0.33373113151E+03  0.00000000000E+00 0. -1.
         25    2    1    2    0    0  0.13795977057E+02 -0.11337327769E+02  0.10299214900E+03  0.16294665044E+03  0.12500145659E+03 0.  0.
          2    1    1    2  501    0 -0.11534142114E+01 -0.28190811467E+02 -0.30231284863E+03  0.30362659742E+03  0.00000000000E+00 0. -1.
          1    1    1    2  502    0 -0.12642562845E+02  0.39528139236E+02  0.54831076581E+03  0.54987908133E+03  0.00000000000E+00 0. -1.
         22    1    3    3    0    0  0.65596481300E+02 -0.91285344802E+01  0.28296573702E+02  0.72020306747E+02  0.00000000000E+00 0. -1.
         22    1    3    3    0    0 -0.51800504243E+02 -0.22087932887E+01  0.74695575297E+02  0.90926343688E+02  0.00000000000E+00 0. -1.
</event>
<event>
 7    1  0.5593520E-006  0.4436908E+02  0.7818608E-02  0.1485575E+00
          2   -1    0    0  502    0  0.00000000000E+00  0.00000000000E+00  0.24328932684E+03  0.24328932684E+03  0.00000000000E+00 0. -1.
          1   -1    0    0  501    0 -0.00000000000E+00 -0.00000000000E+00 -0.63794316381E+03  0.63794316381E+03  0.00000000000E+00 0. -1.
         25    2    1    2    0    0  0.41332826036E+02  0.62421224892E+02 -0.28333277806E+03  0.31860216104E+03  0.12500024830E+03 0.  0.
          2    1    1    2  501    0 -0.20589100690E+01 -0.42108051873E+02 -0.33346971855E+03  0.33612405498E+03  0.00000000000E+00 0. -1.
          1    1    1    2  502    0 -0.39273915967E+02 -0.20313173019E+02  0.22214865963E+03  0.22650627464E+03  0.00000000000E+00 0. -1.
         22    1    3    3    0    0 -0.14095000951E+01 -0.36852107179E+02 -0.86795456421E+02  0.94305438599E+02  0.00000000000E+00 0. -1.
         22    1    3    3    0    0  0.42742326131E+02  0.99273332071E+02 -0.19653732163E+03  0.22429672244E+03  0.00000000000E+00 0. -1.
</event>
<event>
 7    1  0.5593520E-006  0.2502200E+02  0.7818608E-02  0.1674738E+00
          2   -1    0    0  502    0  0.00000000000E+00  0.00000000000E+00  0.29415184308E+03  0.29415184308E+03  0.00000000000E+00 0. -1.
          1   -1    0    0  501    0 -0.00000000000E+00 -0.00000000000E+00 -0.49011328225E+03  0.49011328225E+03  0.00000000000E+00 0. -1.
         25    2    1    2    0    0  0.37316272848E+02  0.29522488140E+01  0.29168645352E+02  0.13370394257E+03  0.12499885757E+03 0.  0.
          2    1    1    2  501    0 -0.16315231675E+02 -0.16428203636E+02 -0.43680619743E+03  0.43741939460E+03  0.00000000000E+00 0. -1.
          1    1    1    2  502    0 -0.21001041173E+02  0.13475954822E+02  0.21167611290E+03  0.21314178817E+03  0.00000000000E+00 0. -1.
         22    1    3    3    0    0  0.43422305697E+02  0.53179005735E+02  0.43302643059E+02  0.81170328193E+02  0.00000000000E+00 0.  1.
         22    1    3    3    0    0 -0.61060328494E+01 -0.50226756921E+02 -0.14133997707E+02  0.52533614373E+02  0.00000000000E+00 0.  1.
</event>
<event>
 7    1  0.5593520E-006  0.6336540E+02  0.7818608E-02  0.1440947E+00
          2   -1    0    0  502    0  0.00000000000E+00  0.00000000000E+00  0.11037287901E+04  0.11037287901E+04  0.00000000000E+00 0. -1.
          1   -1    0    0  501    0 -0.00000000000E+00 -0.00000000000E+00 -0.13828229211E+03  0.13828229211E+03  0.00000000000E+00 0. -1.
         25    2    1    2    0    0  0.61633500085E+02 -0.41298102491E+02 -0.18436973896E+02  0.14651678945E+03  0.12499210368E+03 0.  0.
          2    1    1    2  501    0 -0.24448838673E+02  0.58003312857E+02 -0.37518813002E+02  0.73278860143E+02  0.00000000000E+00 0. -1.
          1    1    1    2  502    0 -0.37184661412E+02 -0.16705210367E+02  0.10214022849E+04  0.10222154326E+04  0.00000000000E+00 0. -1.
         22    1    3    3    0    0  0.70543124924E+02  0.21486500075E+02 -0.34027198820E+02  0.81214853439E+02  0.00000000000E+00 0.  1.
         22    1    3    3    0    0 -0.89096248392E+01 -0.62784602566E+02  0.15590224924E+02  0.65301936015E+02  0.00000000000E+00 0.  1.
</event>
<event>
 7    1  0.5593520E-006  0.2539468E+03  0.7818608E-02  0.1225235E+00
          2   -1    0    0  502    0  0.00000000000E+00  0.00000000000E+00  0.54308432862E+03  0.54308432862E+03  0.00000000000E+00 0. -1.
          1   -1    0    0  501    0 -0.00000000000E+00 -0.00000000000E+00 -0.72734226043E+03  0.72734226043E+03  0.00000000000E+00 0. -1.
         25    2    1    2    0    0 -0.72790065125E+02 -0.21075965853E+03  0.33806453445E+03  0.42382954271E+03  0.12500329827E+03 0.  0.
          2    1    1    2  501    0  0.21396280194E+02  0.25544361778E+03 -0.65174872527E+03  0.70034680235E+03  0.00000000000E+00 0. -1.
          1    1    1    2  502    0  0.51393784931E+02 -0.44683959243E+02  0.12942625902E+03  0.14625024399E+03  0.00000000000E+00 0. -1.
         22    1    3    3    0    0 -0.60133885238E+02 -0.20378199860E+03  0.22356899023E+03  0.30842548614E+03  0.00000000000E+00 0.  1.
         22    1    3    3    0    0 -0.12656179886E+02 -0.69776599310E+01  0.11449554422E+03  0.11540405658E+03  0.00000000000E+00 0.  1.
</event>
<event>
 7    1  0.5593520E-006  0.9905273E+02  0.7818608E-02  0.1440226E+00
          2   -1    0    0  502    0  0.00000000000E+00  0.00000000000E+00  0.79566797339E+03  0.79566797339E+03  0.00000000000E+00 0. -1.
          1   -1    0    0  501    0 -0.00000000000E+00 -0.00000000000E+00 -0.26606507408E+02  0.26606507408E+02  0.00000000000E+00 0. -1.
         25    2    1    2    0    0 -0.22030476161E+02  0.84101589027E+02  0.44603047759E+03  0.47130240690E+03  0.12499741060E+03 0.  0.
          2    1    1    2  501    0  0.93201257562E+01  0.24506037413E+02  0.43185004530E+02  0.50520839562E+02  0.00000000000E+00 0. -1.
          1    1    1    2  502    0  0.12710350405E+02 -0.10860762644E+03  0.27984598387E+03  0.30045123434E+03  0.00000000000E+00 0. -1.
         22    1    3    3    0    0 -0.25532271258E+02 -0.58171441084E+01  0.13406700031E+02  0.29418967468E+02  0.00000000000E+00 0. -1.
         22    1    3    3    0    0  0.35017950966E+01  0.89918733135E+02  0.43262377756E+03  0.44188343943E+03  0.00000000000E+00 0. -1.
</event>
<event>
 7    1  0.5593520E-006  0.1055816E+03  0.7818608E-02  0.1290483E+00
          2   -1    0    0  502    0  0.00000000000E+00  0.00000000000E+00  0.12983506914E+03  0.12983506914E+03  0.00000000000E+00 0. -1.
          1   -1    0    0  501    0 -0.00000000000E+00 -0.00000000000E+00 -0.12593449391E+04  0.12593449391E+04  0.00000000000E+00 0. -1.
         25    2    1    2    0    0 -0.72486551602E+02  0.14131470241E+03 -0.10648792336E+03  0.22844686412E+03  0.12499658645E+03 0.  0.
          2    1    1    2  501    0  0.87479856479E+02 -0.56596155564E+02 -0.10614176475E+04  0.10665192321E+04  0.00000000000E+00 0. -1.
          1    1    1    2  502    0 -0.14993304877E+02 -0.84718546842E+02  0.38395700870E+02  0.94213912006E+02  0.00000000000E+00 0. -1.
         22    1    3    3    0    0 -0.42237871639E+02  0.16022191323E+03 -0.79884627753E+02  0.18394741920E+03  0.00000000000E+00 0. -1.
         22    1    3    3    0    0 -0.30248679963E+02 -0.18907210825E+02 -0.26603295610E+02  0.44499444918E+02  0.00000000000E+00 0. -1.
</event>
<event>
 7    1  0.5593520E-006  0.1393083E+03  0.7818608E-02  0.1243942E+00
          2   -1    0    0  502    0  0.00000000000E+00  0.00000000000E+00  0.10146789785E+04  0.10146789785E+04  0.00000000000E+00 0. -1.
          1   -1    0    0  501    0 -0.00000000000E+00 -0.00000000000E+00 -0.50163279787E+03  0.50163279787E+03  0.00000000000E+00 0. -1.
         25    2    1    2    0    0 -0.20135907391E+02  0.12455678661E+03  0.63312329163E+03  0.65756506441E+03  0.12500745447E+03 0.  0.
          2    1    1    2  501    0  0.94348779587E+02  0.40030654059E+02 -0.46138327860E+03  0.47262953277E+03  0.00000000000E+00 0. -1.
          1    1    1    2  502    0 -0.74212872196E+02 -0.16458744067E+03  0.34130616760E+03  0.38611717920E+03  0.00000000000E+00 0. -1.
         22    1    3    3    0    0  0.47237039409E+02  0.66629768192E+02  0.21241054716E+03  0.22757219612E+03  0.00000000000E+00 0. -1.
         22    1    3    3    0    0 -0.67372946800E+02  0.57927018422E+02  0.42071274447E+03  0.42999286829E+03  0.00000000000E+00 0. -1.
</event>
<event>
 7    1  0.5593520E-006  0.1046768E+03  0.7818608E-02  0.1354674E+00
          2   -1    0    0  502    0  0.00000000000E+00  0.00000000000E+00  0.72348511715E+03  0.72348511715E+03  0.00000000000E+00 0. -1.
          1   -1    0    0  501    0 -0.00000000000E+00 -0.00000000000E+00 -0.49638573247E+03  0.49638573247E+03  0.00000000000E+00 0. -1.
         25    2    1    2    0    0  0.10101228233E+03  0.79489344710E+02 -0.37794759521E+02  0.18323639814E+03  0.12500038661E+03 0.  0.
          2    1    1    2  501    0 -0.98505937692E+02 -0.30552976434E+02 -0.37802966514E+03  0.39184605632E+03  0.00000000000E+00 0. -1.
          1    1    1    2  502    0 -0.25063446418E+01 -0.48936368277E+02  0.64292380934E+03  0.64478839515E+03  0.00000000000E+00 0. -1.
         22    1    3    3    0    0  0.10620570935E+03  0.22151399316E+02 -0.56989168422E+02  0.12254836803E+03  0.00000000000E+00 0.  1.
         22    1    3    3    0    0 -0.51934270110E+01  0.57337945395E+02  0.19194408901E+02  0.60688030115E+02  0.00000000000E+00 0.  1.
</event>
<event>
 7    1  0.5593520E-006  0.4658351E+02  0.7818608E-02  0.1543461E+00
          2   -1    0    0  502    0  0.00000000000E+00  0.00000000000E+00  0.14216217012E+04  0.14216217012E+04  0.00000000000E+00 0. -1.
          1   -1    0    0  501    0 -0.00000000000E+00 -0.00000000000E+00 -0.11346644549E+03  0.11346644549E+03  0.00000000000E+00 0. -1.
         25    2    1    2    0    0 -0.22614793096E+02  0.15694068476E+02 -0.22886305552E+02  0.13002488598E+03  0.12499982136E+03 0.  0.
          2    1    1    2  501    0  0.49143342669E+02 -0.21628636441E+02 -0.17328385147E+02  0.56419313845E+02  0.00000000000E+00 0. -1.
          1    1    1    2  502    0 -0.26528549573E+02  0.59345679651E+01  0.13483699464E+04  0.13486439469E+04  0.00000000000E+00 0. -1.
         22    1    3    3    0    0  0.93699609404E+00 -0.67969580718E+01 -0.71326362945E+02  0.71655611446E+02  0.00000000000E+00 0. -1.
         22    1    3    3    0    0 -0.23551789190E+02  0.22491026548E+02  0.48440057393E+02  0.58369274533E+02  0.00000000000E+00 0. -1.
</event>
<event>
 7    1  0.5593520E-006  0.1804819E+03  0.7818608E-02  0.1227871E+00
          2   -1    0    0  502    0  0.00000000000E+00  0.00000000000E+00  0.88557967469E+02  0.88557967469E+02  0.00000000000E+00 0. -1.
          1   -1    0    0  501    0 -0.00000000000E+00 -0.00000000000E+00 -0.20272430725E+04  0.20272430725E+04  0.00000000000E+00 0. -1.
         25    2    1    2    0    0 -0.13445259676E+03  0.80663962889E+02 -0.67935730474E+03  0.70833284454E+03  0.12499958188E+03 0.  0.
          2    1    1    2  501    0 -0.53327907937E+02 -0.76479233764E+02 -0.12095753928E+04  0.12131634555E+04  0.00000000000E+00 0. -1.
          1    1    1    2  502    0  0.18778050470E+03 -0.41847291254E+01 -0.49752407512E+02  0.19430473992E+03  0.00000000000E+00 0. -1.
         22    1    3    3    0    0 -0.60047268561E+02  0.94384326658E+02 -0.27367104095E+03  0.29565167721E+03  0.00000000000E+00 0.  1.
         22    1    3    3    0    0 -0.74405328197E+02 -0.13720363769E+02 -0.40568626379E+03  0.41268116734E+03  0.00000000000E+00 0.  1.
</event>
<event>
 7    1  0.5593520E-006  0.8965702E+02  0.7818608E-02  0.1320019E+00
          2   -1    0    0  502    0  0.00000000000E+00  0.00000000000E+00  0.11300401653E+03  0.11300401653E+03  0.00000000000E+00 0. -1.
          1   -1    0    0  501    0 -0.00000000000E+00 -0.00000000000E+00 -0.23665393631E+04  0.23665393631E+04  0.00000000000E+00 0. -1.
         25    2    1    2    0    0  0.36547589693E+02  0.10343794554E+03 -0.32498299636E+03  0.36506772257E+03  0.12500143698E+03 0.  0.
          2    1    1    2  501    0  0.44311307767E+02 -0.63385781433E+02 -0.19986915182E+04  0.20001872498E+04  0.00000000000E+00 0. -1.
          1    1    1    2  502    0 -0.80858897460E+02 -0.40052164106E+02  0.70139168000E+02  0.11428840727E+03  0.00000000000E+00 0. -1.
         22    1    3    3    0    0  0.82732957597E+02  0.77364005220E+02 -0.21966621121E+03  0.24715010808E+03  0.00000000000E+00 0.  1.
         22    1    3    3    0    0 -0.46185367904E+02  0.26073940319E+02 -0.10531678515E+03  0.11791761449E+03  0.00000000000E+00 0.  1.
</event>
<event>
 7    1  0.5593520E-006  0.1186113E+03  0.7818608E-02  0.1368401E+00
          2   -1    0    0  502    0  0.00000000000E+00  0.00000000000E+00  0.20526933397E+03  0.20526933397E+03  0.00000000000E+00 0. -1.
          1   -1    0    0  501    0 -0.00000000000E+00 -0.00000000000E+00 -0.10617220374E+04  0.10617220374E+04  0.00000000000E+00 0. -1.
         25    2    1    2    0    0  0.57377622029E+02 -0.12100037516E+03 -0.11785426970E+03  0.21782668262E+03  0.12500220988E+03 0.  0.
          2    1    1    2  501    0  0.19965480742E+02  0.32968681377E+02 -0.87128744044E+03  0.87213952911E+03  0.00000000000E+00 0. -1.
          1    1    1    2  502    0 -0.77343102771E+02  0.88031693784E+02  0.13268900669E+03  0.17702515966E+03  0.00000000000E+00 0. -1.
         22    1    3    3    0    0 -0.28861204466E+02 -0.76705153872E+02 -0.30873656703E+02  0.87577579505E+02  0.00000000000E+00 0. -1.
         22    1    3    3    0    0  0.86238826495E+02 -0.44295221289E+02 -0.86980612999E+02  0.13024910311E+03  0.00000000000E+00 0. -1.
</event>
<event>
 7    1  0.5593520E-006  0.1075734E+03  0.7818608E-02  0.1406465E+00
          2   -1    0    0  502    0  0.00000000000E+00  0.00000000000E+00  0.24855106860E+03  0.24855106860E+03  0.00000000000E+00 0. -1.
          1   -1    0    0  501    0 -0.00000000000E+00 -0.00000000000E+00 -0.11113830843E+04  0.11113830843E+04  0.00000000000E+00 0. -1.
         25    2    1    2    0    0  0.60638769646E+02 -0.12010927100E+03 -0.61946154133E+02  0.19381913864E+03  0.12500094050E+03 0.  0.
          2    1    1    2  501    0 -0.36825532313E+02  0.99856133086E+02 -0.97925776797E+03  0.98502443791E+03  0.00000000000E+00 0. -1.
          1    1    1    2  502    0 -0.23813237333E+02  0.20253137919E+02  0.17837190638E+03  0.18109057638E+03  0.00000000000E+00 0. -1.
         22    1    3    3    0    0  0.92991223054E+02 -0.11707973313E+03 -0.60501362895E+02  0.16129304507E+03  0.00000000000E+00 0.  1.
         22    1    3    3    0    0 -0.32352453408E+02 -0.30295378717E+01 -0.14447912374E+01  0.32526093570E+02  0.00000000000E+00 0.  1.
</event>
<event>
 7    1  0.5593520E-006  0.7799693E+02  0.7818608E-02  0.1363008E+00
          2   -1    0    0  502    0  0.00000000000E+00  0.00000000000E+00  0.16410262965E+04  0.16410262965E+04  0.00000000000E+00 0. -1.
          1   -1    0    0  501    0 -0.00000000000E+00 -0.00000000000E+00 -0.20644813391E+04  0.20644813391E+04  0.00000000000E+00 0. -1.
         25    2    1    2    0    0 -0.81971419182E+02  0.10435382291E+03  0.22179649958E+03  0.28710252805E+03  0.12500056186E+03 0.  0.
          2    1    1    2  501    0  0.50470075995E+02 -0.34803043929E+02 -0.20303141981E+04  0.20312395781E+04  0.00000000000E+00 0. -1.
          1    1    1    2  502    0  0.31501343187E+02 -0.69550778982E+02  0.13850626560E+04  0.13871655296E+04  0.00000000000E+00 0. -1.
         22    1    3    3    0    0  0.31712868488E+02  0.29500299877E+02  0.33476697476E+02  0.54741784721E+02  0.00000000000E+00 0. -1.
         22    1    3    3    0    0 -0.11368428767E+03  0.74853523035E+02  0.18831980211E+03  0.23236074333E+03  0.00000000000E+00 0. -1.
</event>
<event>
 7    1  0.5593520E-006  0.4948579E+02  0.7818608E-02  0.1498377E+00
          2   -1    0    0  502    0  0.00000000000E+00  0.00000000000E+00  0.78262121848E+02  0.78262121848E+02  0.00000000000E+00 0. -1.
          1   -1    0    0  501    0 -0.00000000000E+00 -0.00000000000E+00 -0.20332648231E+04  0.20332648231E+04  0.00000000000E+00 0. -1.
         25    2    1    2    0    0 -0.41022241593E+02  0.60484302836E+02 -0.99507162198E+03  0.10055513912E+04  0.12499956937E+03 0.  0.
          2    1    1    2  501    0  0.32474527326E+02 -0.11888986433E+02 -0.10242930395E+04  0.10248766627E+04  0.00000000000E+00 0. -1.
          1    1    1    2  502    0  0.85477142663E+01 -0.48595316403E+02  0.64361960258E+02  0.81098891014E+02  0.00000000000E+00 0. -1.
         22    1    3    3    0    0 -0.58205739627E+02  0.83724069082E+01 -0.19684260094E+03  0.20543859147E+03  0.00000000000E+00 0. -1.
         22    1    3    3    0    0  0.17183498034E+02  0.52111895928E+02 -0.79822902104E+03  0.80011279976E+03  0.00000000000E+00 0. -1.
</event>
<event>
 7    1  0.5593520E-006  0.1399127E+03  0.7818608E-02  0.1356086E+00
          2   -1    0    0  502    0  0.00000000000E+00  0.00000000000E+00  0.18848836701E+04  0.18848836701E+04  0.00000000000E+00 0. -1.
          1   -1    0    0  501    0 -0.00000000000E+00 -0.00000000000E+00 -0.26003606176E+03  0.26003606176E+03  0.00000000000E+00 0. -1.
         25    2    1    2    0    0  0.11280499589E+03  0.51994585719E+02 -0.39561035340E+02  0.18060588670E+03  0.12500002701E+03 0.  0.
          2    1    1    2  501    0 -0.14483562756E+03 -0.35075424601E+02 -0.11269794841E+03  0.18683809033E+03  0.00000000000E+00 0. -1.
          1    1    1    2  502    0  0.32030631673E+02 -0.16919161118E+02  0.17771065921E+04  0.17774757548E+04  0.00000000000E+00 0. -1.
         22    1    3    3    0    0  0.89774795538E+02 -0.11929380423E+02  0.17064407923E+02  0.92157571848E+02  0.00000000000E+00 0. -1.
         22    1    3    3    0    0  0.23030200353E+02  0.63923966142E+02 -0.56625443263E+02  0.88448314853E+02  0.00000000000E+00 0. -1.
</event>
<event>
 7    1  0.5593520E-006  0.3240263E+02  0.7818608E-02  0.1643736E+00
          2   -1    0    0  502    0  0.00000000000E+00  0.00000000000E+00  0.12764132429E+04  0.12764132429E+04  0.00000000000E+00 0. -1.
          1   -1    0    0  501    0 -0.00000000000E+00 -0.00000000000E+00 -0.66707658093E+02  0.66707658093E+02  0.00000000000E+00 0. -1.
         25    2    1    2    0    0  0.46440980713E+02  0.26248168633E+02  0.67562713016E+02  0.15177774893E+03  0.12500413527E+03 0.  0.
          2    1    1    2  501    0 -0.19523402650E+02 -0.84099569279E+01 -0.19741194994E+02  0.29010436163E+02  0.00000000000E+00 0. -1.
          1    1    1    2  502    0 -0.26917578062E+02 -0.17838211706E+02  0.11618840668E+04  0.11623327159E+04  0.00000000000E+00 0. -1.
         22    1    3    3    0    0 -0.17775612137E+02  0.54757458105E+02  0.51512517858E+01  0.57800406573E+02  0.00000000000E+00 0. -1.
         22    1    3    3    0    0  0.64216592850E+02 -0.28509289472E+02  0.62411461231E+02  0.93977342356E+02  0.00000000000E+00 0. -1.
</event>
<event>
 7    1  0.5593520E-006  0.2795611E+03  0.7818608E-02  0.1292114E+00
          2   -1    0    0  502    0  0.00000000000E+00  0.00000000000E+00  0.10962642853E+04  0.10962642853E+04  0.00000000000E+00 0. -1.
          1   -1    0    0  501    0 -0.00000000000E+00 -0.00000000000E+00 -0.15818851810E+04  0.15818851810E+04  0.00000000000E+00 0. -1.
         25    2    1    2    0    0 -0.25225852567E+03 -0.13022542270E+03 -0.13956885853E+03  0.34014420149E+03  0.12500234816E+03 0.  0.
          2    1    1    2  501    0  0.23211519543E+03  0.15509144828E+03 -0.13272476190E+04  0.13562879721E+04  0.00000000000E+00 0. -1.
          1    1    1    2  502    0  0.20143330246E+02 -0.24866025572E+02  0.98119558185E+03  0.98171729272E+03  0.00000000000E+00 0. -1.
         22    1    3    3    0    0 -0.16339487222E+03 -0.94477177983E+02 -0.24344149996E+02  0.19030622446E+03  0.00000000000E+00 0.  1.
         22    1    3    3    0    0 -0.88863653449E+02 -0.35748244720E+02 -0.11522470854E+03  0.14983797704E+03  0.00000000000E+00 0.  1.
</event>
<event>
 7    1  0.5593520E-006  0.9276022E+02  0.7818608E-02  0.1328396E+00
          2   -1    0    0  502    0  0.00000000000E+00  0.00000000000E+00  0.55672159970E+03  0.55672159970E+03  0.00000000000E+00 0. -1.
          1   -1    0    0  501    0 -0.00000000000E+00 -0.00000000000E+00 -0.10945763649E+04  0.10945763649E+04  0.00000000000E+00 0. -1.
         25    2    1    2    0    0  0.84953571887E+02  0.11920172149E+03  0.22071134535E+03  0.29285617361E+03  0.12500032268E+03 0.  0.
          2    1    1    2  501    0 -0.18428073781E+02 -0.66903220848E+02 -0.10513687102E+04  0.10536563954E+04  0.00000000000E+00 0. -1.
          1    1    1    2  502    0 -0.66525498106E+02 -0.52298500647E+02  0.29280259957E+03  0.30478539562E+03  0.00000000000E+00 0. -1.
         22    1    3    3    0    0  0.39629072926E+02  0.85445438654E+02  0.37931675297E+02  0.10153914712E+03  0.00000000000E+00 0.  1.
         22    1    3    3    0    0  0.45324498961E+02  0.33756282841E+02  0.18277967006E+03  0.19131702649E+03  0.00000000000E+00 0.  1.
</event>
<event>
 7    1  0.5593520E-006  0.1582350E+03  0.7818608E-02  0.1392571E+00
          2   -1    0    0  502    0  0.00000000000E+00  0.00000000000E+00  0.20196702557E+03  0.20196702557E+03  0.00000000000E+00 0. -1.
          1   -1    0    0  501    0 -0.00000000000E+00 -0.00000000000E+00 -0.24684858681E+04  0.24684858681E+04  0.00000000000E+00 0. -1.
         25    2    1    2    0    0  0.27510359923E+02 -0.16619551680E+03 -0.15944966709E+03  0.26349250269E+03  0.12500533162E+03 0.  0.
          2    1    1    2  501    0 -0.53683065720E+01  0.15767302843E+03 -0.22533005997E+04  0.22588167689E+04  0.00000000000E+00 0. -1.
          1    1    1    2  502    0 -0.22142053351E+02  0.85224883673E+01  0.14623142427E+03  0.14814362213E+03  0.00000000000E+00 0. -1.
         22    1    3    3    0    0  0.18706429078E+02 -0.17765774100E+03 -0.16920604811E+03  0.24605464869E+03  0.00000000000E+00 0.  1.
         22    1    3    3    0    0  0.88039308447E+01  0.11462224200E+02  0.97563810110E+01  0.17437854007E+02  0.00000000000E+00 0.  1.
</event>
<event>
 7    1  0.5593520E-006  0.3602233E+02  0.7818608E-02  0.1620662E+00
          2   -1    0    0  502    0  0.00000000000E+00  0.00000000000E+00  0.93184950688E+02  0.93184950688E+02  0.00000000000E+00 0. -1.
          1   -1    0    0  501    0 -0.00000000000E+00 -0.00000000000E+00 -0.12375954616E+03  0.12375954616E+03  0.00000000000E+00 0. -1.
         25    2    1    2    0    0 -0.19242486733E+02 -0.94093571223E+01 -0.34462148228E+02  0.13141666790E+03  0.12499556650E+03 0.  0.
          2    1    1    2  501    0  0.25278722697E+02  0.30405962566E+02 -0.26865393547E+02  0.47804662442E+02  0.00000000000E+00 0. -1.
          1    1    1    2  502    0 -0.60362359633E+01 -0.20996605444E+02  0.30752946304E+02  0.37723166505E+02  0.00000000000E+00 0. -1.
         22    1    3    3    0    0  0.28692456500E+02 -0.36607673265E+02  0.22921095160E+02  0.51853210173E+02  0.00000000000E+00 0. -1.
         22    1    3    3    0    0 -0.47934943234E+02  0.27198316143E+02 -0.57383243388E+02  0.79563457727E+02  0.00000000000E+00 0. -1.
</event>
<event>
 7    1  0.5593520E-006  0.1694522E+03  0.7818608E-02  0.1206192E+00
          2   -1    0    0  502    0  0.00000000000E+00  0.00000000000E+00  0.60388790312E+02  0.60388790312E+02  0.00000000000E+00 0. -1.
          1   -1    0    0  501    0 -0.00000000000E+00 -0.00000000000E+00 -0.18686700736E+04  0.18686700736E+04  0.00000000000E+00 0. -1.
         25    2    1    2    0    0  0.59014833048E+02 -0.16089420716E+03 -0.58452156988E+03  0.62181881662E+03  0.12499391437E+03 0.  0.
          2    1    1    2  501    0 -0.15910561514E+03  0.86301460554E+02 -0.11459268036E+04  0.11601339484E+04  0.00000000000E+00 0. -1.
          1    1    1    2  502    0  0.10009078209E+03  0.74592746607E+02 -0.77832909836E+02  0.14710609899E+03  0.00000000000E+00 0. -1.
         22    1    3    3    0    0 -0.33138356729E+02 -0.25035907204E+02 -0.19034955169E+03  0.19482787061E+03  0.00000000000E+00 0. -1.
         22    1    3    3    0    0  0.92153189777E+02 -0.13585829996E+03 -0.39417201818E+03  0.42699094601E+03  0.00000000000E+00 0. -1.
</event>
<event>
 7    1  0.5593520E-006  0.1730364E+03  0.7818608E-02  0.1296419E+00
          2   -1    0    0  502    0  0.00000000000E+00  0.00000000000E+00  0.41532753426E+03  0.41532753426E+03  0.00000000000E+00 0. -1.
          1   -1    0    0  501    0 -0.00000000000E+00 -0.00000000000E+00 -0.13720641711E+04  0.13720641711E+04  0.00000000000E+00 0. -1.
         25    2    1    2    0    0 -0.15046091295E+03  0.15340322544E+03 -0.60864488501E+03  0.65745332626E+03  0.12500097702E+03 0.  0.
          2    1    1    2  501    0  0.15336644401E+02 -0.47245510056E+02 -0.71923346695E+03  0.72094669072E+03  0.00000000000E+00 0. -1.
          1    1    1    2  502    0  0.13512426855E+03 -0.10615771539E+03  0.37114171510E+03  0.40899168840E+03  0.00000000000E+00 0. -1.
         22    1    3    3    0    0 -0.10577098822E+03  0.11036064304E+03 -0.24663884844E+03  0.29016839083E+03  0.00000000000E+00 0. -1.
         22    1    3    3    0    0 -0.44689924732E+02  0.43042582400E+02 -0.36200603658E+03  0.36728493542E+03  0.00000000000E+00 0. -1.
</event>
<event>
 7    1  0.5593520E-006  0.8262200E+02  0.7818608E-02  0.1384699E+00
          2   -1    0    0  502    0  0.00000000000E+00  0.00000000000E+00  0.11460371532E+04  0.11460371532E+04  0.00000000000E+00 0. -1.
          1   -1    0    0  501    0 -0.00000000000E+00 -0.00000000000E+00 -0.22353856428E+03  0.22353856428E+03  0.00000000000E+00 0. -1.
         25    2    1    2    0    0 -0.22184656700E+02  0.94056787336E+02  0.17353502973E+03  0.23468748592E+03  0.12499988508E+03 0.  0.
          2    1    1    2  501    0 -0.34432562727E+02 -0.34030948979E+02 -0.18808405539E+03  0.19421462035E+03  0.00000000000E+00 0. -1.
          1    1    1    2  502    0  0.56617219427E+02 -0.60025838357E+02  0.93704761461E+03  0.94067361122E+03  0.00000000000E+00 0. -1.
         22    1    3    3    0    0  0.27012105063E+01  0.11955027975E+03  0.11345080969E+03  0.16483522726E+03  0.00000000000E+00 0.  1.
         22    1    3    3    0    0 -0.24885867206E+02 -0.25493492419E+02  0.60084220036E+02  0.69852258658E+02  0.00000000000E+00 0.  1.
</event>
<event>
 7    1  0.5593520E-006  0.7161996E+02  0.7818608E-02  0.1452459E+00
          2   -1    0    0  502    0  0.00000000000E+00  0.00000000000E+00  0.57401055176E+02  0.57401055176E+02  0.00000000000E+00 0. -1.
          1   -1    0    0  501    0 -0.00000000000E+00 -0.00000000000E+00 -0.34655132836E+03  0.34655132836E+03  0.00000000000E+00 0. -1.
         25    2    1    2    0    0  0.10598281071E+02 -0.42576321325E+02 -0.51567668339E+02  0.14216007766E+03  0.12500078625E+03 0.  0.
          2    1    1    2  501    0 -0.22765543643E+02  0.73380925823E+02 -0.16536802141E+03  0.18234476345E+03  0.00000000000E+00 0. -1.
          1    1    1    2  502    0  0.12167262573E+02 -0.30804604499E+02 -0.72214583438E+02  0.79447542429E+02  0.00000000000E+00 0. -1.
         22    1    3    3    0    0 -0.18307527890E+01 -0.33449837647E+02  0.38354971081E+02  0.50924916308E+02  0.00000000000E+00 0. -1.
         22    1    3    3    0    0  0.12429033860E+02 -0.91264836775E+01 -0.89922639420E+02  0.91235161353E+02  0.00000000000E+00 0. -1.
</event>
<event>
 7    1  0.5593520E-006  0.1582497E+03  0.7818608E-02  0.1297491E+00
          2   -1    0    0  502    0  0.00000000000E+00  0.00000000000E+00  0.75427035254E+03  0.75427035254E+03  0.00000000000E+00 0. -1.
          1   -1    0    0  501    0 -0.00000000000E+00 -0.00000000000E+00 -0.20576200818E+03  0.20576200818E+03  0.00000000000E+00 0. -1.
         25    2    1    2    0    0  0.12638072937E+03  0.33367129912E+02  0.91974119745E+02  0.20290339634E+03  0.12500038172E+03 0.  0.
          2    1    1    2  501    0 -0.16825928490E+03  0.36953478750E+00 -0.10150406307E+03  0.19650546641E+03  0.00000000000E+00 0. -1.
          1    1    1    2  502    0  0.41878555529E+02 -0.33736664700E+02  0.55803828768E+03  0.56062349797E+03  0.00000000000E+00 0. -1.
         22    1    3    3    0    0  0.39741894711E+02 -0.19968931775E+02  0.90854913502E+02  0.10115726241E+03  0.00000000000E+00 0.  1.
         22    1    3    3    0    0  0.86638834657E+02  0.53336061687E+02  0.11192062435E+01  0.10174613393E+03  0.00000000000E+00 0.  1.
</event>
<event>
 7    1  0.5593520E-006  0.1165442E+03  0.7818608E-02  0.1348438E+00
          2   -1    0    0  502    0  0.00000000000E+00  0.00000000000E+00  0.67955351930E+03  0.67955351930E+03  0.00000000000E+00 0. -1.
          1   -1    0    0  501    0 -0.00000000000E+00 -0.00000000000E+00 -0.65845998212E+03  0.65845998212E+03  0.00000000000E+00 0. -1.
         25    2    1    2    0    0 -0.76359409063E+02 -0.34271014725E+02  0.15736586256E+03  0.21770174402E+03  0.12499909138E+03 0.  0.
          2    1    1    2  501    0 -0.26215163641E+02 -0.38296899115E+02 -0.61938786182E+03  0.62112415076E+03  0.00000000000E+00 0. -1.
          1    1    1    2  502    0  0.10257457270E+03  0.72567913840E+02  0.48311553644E+03  0.49918760665E+03  0.00000000000E+00 0. -1.
         22    1    3    3    0    0  0.31572761878E+02 -0.21133202839E+02  0.21390672572E+02  0.43600601234E+02  0.00000000000E+00 0.  1.
         22    1    3    3    0    0 -0.10793217094E+03 -0.13137811886E+02  0.13597518999E+03  0.17410114278E+03  0.00000000000E+00 0.  1.
</event>
<event>
 7    1  0.5593520E-006  0.1885667E+03  0.7818608E-02  0.1222389E+00
          2   -1    0    0  502    0  0.00000000000E+00  0.00000000000E+00  0.53291681031E+03  0.53291681031E+03  0.00000000000E+00 0. -1.
          1   -1    0    0  501    0 -0.00000000000E+00 -0.00000000000E+00 -0.15062549154E+04  0.15062549154E+04  0.00000000000E+00 0. -1.
         25    2    1    2    0    0 -0.22066354123E+03  0.11707093984E+03 -0.32389106061E+03  0.42770629759E+03  0.12501701674E+03 0.  0.
          2    1    1    2  501    0  0.12699758853E+03 -0.12943702707E+03 -0.11184430487E+04  0.11330477415E+04  0.00000000000E+00 0. -1.
          1    1    1    2  502    0  0.93665952694E+02  0.12366087221E+02  0.46899600423E+03  0.47841768654E+03  0.00000000000E+00 0. -1.
         22    1    3    3    0    0 -0.14743871637E+03  0.10803294738E+03 -0.14212158918E+03  0.23153366692E+03  0.00000000000E+00 0.  1.
         22    1    3    3    0    0 -0.73224824857E+02  0.90379924633E+01 -0.18176947143E+03  0.19617263068E+03  0.00000000000E+00 0.  1.
</event>
<event>
 7    1  0.5593520E-006  0.1372468E+03  0.7818608E-02  0.1274679E+00
          2   -1    0    0  502    0  0.00000000000E+00  0.00000000000E+00  0.72236693779E+03  0.72236693779E+03  0.00000000000E+00 0. -1.
          1   -1    0    0  501    0 -0.00000000000E+00 -0.00000000000E+00 -0.25006846901E+03  0.25006846901E+03  0.00000000000E+00 0. -1.
         25    2    1    2    0    0 -0.11532830729E+03  0.15703733139E+03 -0.22458265955E+02  0.23257338366E+03  0.12499865265E+03 0.  0.
          2    1    1    2  501    0  0.84279408279E+02 -0.86708252237E+02 -0.89582638034E+02  0.15048717122E+03  0.00000000000E+00 0. -1.
          1    1    1    2  502    0  0.31048899014E+02 -0.70329079150E+02  0.58433937277E+03  0.58937485191E+03  0.00000000000E+00 0. -1.
         22    1    3    3    0    0 -0.37657177493E+02  0.53718955487E+02  0.51724119425E+02  0.83541449147E+02  0.00000000000E+00 0.  1.
         22    1    3    3    0    0 -0.77671129800E+02  0.10331837590E+03 -0.74182385380E+02  0.14903193451E+03  0.00000000000E+00 0.  1.
</event>
<event>
 7    1  0.5593520E-006  0.8106756E+02  0.7818608E-02  0.1429732E+00
          2   -1    0    0  502    0  0.00000000000E+00  0.00000000000E+00  0.16510096612E+04  0.16510096612E+04  0.00000000000E+00 0. -1.
          1   -1    0    0  501    0 -0.00000000000E+00 -0.00000000000E+00 -0.13277258511E+04  0.13277258511E+04  0.00000000000E+00 0. -1.
         25    2    1    2    0    0 -0.22674737939E+02  0.43568411010E+02  0.23347774097E+03  0.26934416238E+03  0.12498828785E+03 0.  0.
          2    1    1    2  501    0  0.51512096085E+02 -0.62811524072E+02 -0.13083180462E+04  0.13108374780E+04  0.00000000000E+00 0. -1.
          1    1    1    2  502    0 -0.28837358145E+02  0.19243113062E+02  0.13981241154E+04  0.13985538719E+04  0.00000000000E+00 0. -1.
         22    1    3    3    0    0 -0.45651820767E+02 -0.88902538189E+01  0.19470688897E+03  0.20018465967E+03  0.00000000000E+00 0.  1.
         22    1    3    3    0    0  0.22977082828E+02  0.52458664829E+02  0.38770851998E+02  0.69159502713E+02  0.00000000000E+00 0.  1.
</event>
<event>
 7    1  0.5593520E-006  0.9469014E+02  0.7818608E-02  0.1382407E+00
          2   -1    0    0  502    0  0.00000000000E+00  0.00000000000E+00  0.20653421078E+04  0.20653421078E+04  0.00000000000E+00 0. -1.
          1   -1    0    0  501    0 -0.00000000000E+00 -0.00000000000E+00 -0.67161660620E+03  0.67161660620E+03  0.00000000000E+00 0. -1.
         25    2    1    2    0    0  0.11922792240E+02  0.10633016061E+03  0.15817121545E+03  0.22823474751E+03  0.12499884216E+03 0.  0.
          2    1    1    2  501    0 -0.39945004576E+02 -0.16011785849E+02 -0.63466152087E+03  0.63611887784E+03  0.00000000000E+00 0. -1.
          1    1    1    2  502    0  0.28022212336E+02 -0.90318374761E+02  0.18702158070E+04  0.18726050886E+04  0.00000000000E+00 0. -1.
         22    1    3    3    0    0  0.68221660446E+00  0.12761826184E+03  0.90617321060E+02  0.15651959958E+03  0.00000000000E+00 0.  1.
         22    1    3    3    0    0  0.11240575635E+02 -0.21288101235E+02  0.67553894392E+02  0.71715147928E+02  0.00000000000E+00 0.  1.
</event>
<event>
 7    1  0.5593520E-006  0.5209984E+02  0.7818608E-02  0.1482601E+00
          2   -1    0    0  502    0  0.00000000000E+00  0.00000000000E+00  0.22780234516E+03  0.22780234516E+03  0.00000000000E+00 0. -1.
          1   -1    0    0  501    0 -0.00000000000E+00 -0.00000000000E+00 -0.15104376933E+04  0.15104376933E+04  0.00000000000E+00 0. -1.
         25    2    1    2    0    0  0.40765519475E+02  0.67159915665E+02 -0.14078594059E+03  0.20400359426E+03  0.12499801419E+03 0.  0.
          2    1    1    2  501    0 -0.41825541105E+02 -0.30514716690E+02 -0.13358244771E+04  0.13368274225E+04  0.00000000000E+00 0. -1.
          1    1    1    2  502    0  0.10600216294E+01 -0.36645198975E+02  0.19397506955E+03  0.19740902173E+03  0.00000000000E+00 0. -1.
         22    1    3    3    0    0  0.32542019314E+01 -0.29073591167E+02  0.17099939026E+00  0.29255645171E+02  0.00000000000E+00 0. -1.
         22    1    3    3    0    0  0.37511317544E+02  0.96233506832E+02 -0.14095693998E+03  0.17474794909E+03  0.00000000000E+00 0. -1.
</event>
<event>
 7    1  0.5593520E-006  0.1065210E+03  0.7818608E-02  0.1305061E+00
          2   -1    0    0  502    0  0.00000000000E+00  0.00000000000E+00  0.10544387607E+04  0.10544387607E+04  0.00000000000E+00 0. -1.
          1   -1    0    0  501    0 -0.00000000000E+00 -0.00000000000E+00 -0.61507840461E+03  0.61507840461E+03  0.00000000000E+00 0. -1.
         25    2    1    2    0    0  0.93825595400E+01  0.31648620121E+02  0.36094379846E+03  0.38339964871E+03  0.12500078964E+03 0.  0.
          2    1    1    2  501    0 -0.25403028635E+02 -0.10442375533E+03 -0.59700341131E+03  0.60659929744E+03  0.00000000000E+00 0. -1.
          1    1    1    2  502    0  0.16020469095E+02  0.72775135205E+02  0.67541996895E+03  0.67951821917E+03  0.00000000000E+00 0. -1.
         22    1    3    3    0    0  0.45050554508E+02  0.43582729765E+02  0.88945247356E+02  0.10881297635E+03  0.00000000000E+00 0. -1.
         22    1    3    3    0    0 -0.35667994968E+02 -0.11934109644E+02  0.27199855110E+03  0.27458667236E+03  0.00000000000E+00 0. -1.
</event>
<event>
 7    1  0.5593520E-006  0.1986853E+03  0.7818608E-02  0.1315502E+00
          2   -1    0    0  502    0  0.00000000000E+00  0.00000000000E+00  0.17557267830E+04  0.17557267830E+04  0.00000000000E+00 0. -1.
          1   -1    0    0  501    0 -0.00000000000E+00 -0.00000000000E+00 -0.20465863149E+03  0.20465863149E+03  0.00000000000E+00 0. -1.
         25    2    1    2    0    0 -0.22584689390E+03 -0.28739317100E+02 -0.18142242594E+02  0.26035881992E+03  0.12499922525E+03 0.  0.
          2    1    1    2  501    0  0.28460331100E+02  0.22598854148E+02 -0.53866863677E+02  0.64979517215E+02  0.00000000000E+00 0. -1.
          1    1    1    2  502    0  0.19738656280E+03  0.61404629519E+01  0.16230772578E+04  0.16350470774E+04  0.00000000000E+00 0. -1.
         22    1    3    3    0    0 -0.56225903531E+02 -0.55831446679E+02 -0.37198254147E+02  0.87534066384E+02  0.00000000000E+00 0. -1.
         22    1    3    3    0    0 -0.16962099037E+03  0.27092129579E+02  0.19056011553E+02  0.17282475354E+03  0.00000000000E+00 0. -1.
</event>
<event>
 7    1  0.5593520E-006  0.1088619E+03  0.7818608E-02  0.1358902E+00
          2   -1    0    0  502    0  0.00000000000E+00  0.00000000000E+00  0.35460194267E+04  0.35460194267E+04  0.00000000000E+00 0. -1.
          1   -1    0    0  501    0 -0.00000000000E+00 -0.00000000000E+00 -0.27492929167E+02  0.27492929167E+02  0.00000000000E+00 0. -1.
         25    2    1    2    0    0 -0.13489157614E+03 -0.60355881152E+02  0.17305771484E+04  0.17413677325E+04  0.12500297371E+03 0.  0.
          2    1    1    2  501    0  0.10205641236E+03  0.28909918629E+02  0.10729627174E+03  0.15087671997E+03  0.00000000000E+00 0. -1.
          1    1    1    2  502    0  0.32835163786E+02  0.31445962524E+02  0.16806530773E+04  0.16812679034E+04  0.00000000000E+00 0. -1.
         22    1    3    3    0    0 -0.57801773850E+02 -0.51647907395E+02  0.34414331764E+03  0.35276504146E+03  0.00000000000E+00 0.  1.
         22    1    3    3    0    0 -0.77089802294E+02 -0.87079737571E+01  0.13864338308E+04  0.13886026910E+04  0.00000000000E+00 0.  1.
</event>
<event>
 7    1  0.5593520E-006  0.4586501E+02  0.7818608E-02  0.1532232E+00
          2   -1    0    0  502    0  0.00000000000E+00  0.00000000000E+00  0.83450149255E+03  0.83450149255E+03  0.00000000000E+00 0. -1.
          1   -1    0    0  501    0 -0.00000000000E+00 -0.00000000000E+00 -0.13186257549E+03  0.13186257549E+03  0.00000000000E+00 0. -1.
         25    2    1    2    0    0 -0.10889996837E+02  0.66538133851E+02  0.22860680033E+02  0.14385353636E+03  0.12500125577E+03 0.  0.
          2    1    1    2  501    0  0.20161478933E+02 -0.21821768724E+02 -0.67546576505E+02  0.73791698859E+02  0.00000000000E+00 0. -1.
          1    1    1    2  502    0 -0.92714820957E+01 -0.44716365127E+02  0.74732481354E+03  0.74871883282E+03  0.00000000000E+00 0. -1.
         22    1    3    3    0    0 -0.36678073344E+01 -0.37272467422E+02  0.70267088871E+00  0.37459089481E+02  0.00000000000E+00 0. -1.
         22    1    3    3    0    0 -0.72221895030E+01  0.10381060127E+03  0.22158009144E+02  0.10639444688E+03  0.00000000000E+00 0. -1.
</event>
<event>
 7    1  0.5593520E-006  0.9192911E+02  0.7818608E-02  0.1355973E+00
          2   -1    0    0  502    0  0.00000000000E+00  0.00000000000E+00  0.10821360906E+04  0.10821360906E+04  0.00000000000E+00 0. -1.
          1   -1    0    0  501    0 -0.00000000000E+00 -0.00000000000E+00 -0.32062760722E+03  0.32062760722E+03  0.00000000000E+00 0. -1.
         25    2    1    2    0    0  0.33713075718E+02  0.47398936146E+02  0.90124219087E+02  0.16471487897E+03  0.12500154345E+03 0.  0.
          2    1    1    2  501    0 -0.48694674162E+01 -0.94446273250E+02 -0.27461406040E+03  0.29044223593E+03  0.00000000000E+00 0. -1.
          1    1    1    2  502    0 -0.28843608302E+02  0.47047337104E+02  0.94599832470E+03  0.94760658292E+03  0.00000000000E+00 0. -1.
         22    1    3    3    0    0 -0.40634308546E+02 -0.86659247699E+01  0.12222446331E+02  0.43308584339E+02  0.00000000000E+00 0.  1.
         22    1    3    3    0    0  0.74347384264E+02  0.56064860916E+02  0.77901772756E+02  0.12140629463E+03  0.00000000000E+00 0.  1.
</event>
<event>
 7    1  0.5593520E-006  0.1456266E+03  0.7818608E-02  0.1222600E+00
          2   -1    0    0  502    0  0.00000000000E+00  0.00000000000E+00  0.13926207920E+04  0.13926207920E+04  0.00000000000E+00 0. -1.
          1   -1    0    0  501    0 -0.00000000000E+00 -0.00000000000E+00 -0.75941901780E+03  0.75941901780E+03  0.00000000000E+00 0. -1.
         25    2    1    2    0    0 -0.20234958024E+03 -0.62962961907E+02  0.32976807902E+03  0.41144048655E+03  0.12500640318E+03 0.  0.
          2    1    1    2  501    0  0.11290918353E+03 -0.46388638705E+02 -0.70845630331E+03  0.71889548839E+03  0.00000000000E+00 0. -1.
          1    1    1    2  502    0  0.89440396710E+02  0.10935160061E+03  0.10118899985E+04  0.10217038349E+04  0.00000000000E+00 0. -1.
         22    1    3    3    0    0 -0.14270680392E+03 -0.91206364903E+02  0.28556924961E+03  0.33201450150E+03  0.00000000000E+00 0. -1.
         22    1    3    3    0    0 -0.59642776321E+02  0.28243402996E+02  0.44198829410E+02  0.79425985051E+02  0.00000000000E+00 0. -1.
</event>
<event>
 7    1  0.5593520E-006  0.9657007E+02  0.7818608E-02  0.1321567E+00
          2   -1    0    0  502    0  0.00000000000E+00  0.00000000000E+00  0.27087831837E+03  0.27087831837E+03  0.00000000000E+00 0. -1.
          1   -1    0    0  501    0 -0.00000000000E+00 -0.00000000000E+00 -0.26572260883E+03  0.26572260883E+03  0.00000000000E+00 0. -1.
         25    2    1    2    0    0  0.91817543819E+02 -0.26740851330E+02 -0.18321196900E+02  0.15845354112E+03  0.12500529571E+03 0.  0.
          2    1    1    2  501    0 -0.91144573136E+02 -0.44073238567E+02 -0.15556559112E+03  0.18560828836E+03  0.00000000000E+00 0. -1.
          1    1    1    2  502    0 -0.67297068304E+00  0.70814089897E+02  0.17904249756E+03  0.19253909772E+03  0.00000000000E+00 0. -1.
         22    1    3    3    0    0  0.95845109456E+02 -0.61996089447E+02  0.77653195418E+01  0.11441197621E+03  0.00000000000E+00 0.  1.
         22    1    3    3    0    0 -0.40275656368E+01  0.35255238117E+02 -0.26086516442E+02  0.44041564910E+02  0.00000000000E+00 0.  1.
</event>
<event>
 7    1  0.5593520E-006  0.2354373E+03  0.7818608E-02  0.1277747E+00
          2   -1    0    0  502    0  0.00000000000E+00  0.00000000000E+00  0.14698409988E+04  0.14698409988E+04  0.00000000000E+00 0. -1.
          1   -1    0    0  501    0 -0.00000000000E+00 -0.00000000000E+00 -0.38224405094E+03  0.38224405094E+03  0.00000000000E+00 0. -1.
         25    2    1    2    0    0  0.60718572065E+02  0.21251433263E+03 -0.17925744603E+00  0.25391286968E+03  0.12499050639E+03 0.  0.
          2    1    1    2  501    0 -0.28104049434E+02 -0.24132694224E+03 -0.19691973026E+03  0.31273936562E+03  0.00000000000E+00 0. -1.
          1    1    1    2  502    0 -0.32614522631E+02  0.28812609604E+02  0.12846959356E+04  0.12854328145E+04  0.00000000000E+00 0. -1.
         22    1    3    3    0    0 -0.70837170041E+01  0.70415747058E+02 -0.52371751900E+02  0.88041790517E+02  0.00000000000E+00 0. -1.
         22    1    3    3    0    0  0.67802289069E+02  0.14209858558E+03  0.52192494454E+02  0.16587107916E+03  0.00000000000E+00 0. -1.
</event>
<event>
 7    1  0.5593520E-006  0.8958952E+02  0.7818608E-02  0.1391685E+00
          2   -1    0    0  502    0  0.00000000000E+00  0.00000000000E+00  0.45608228520E+03  0.45608228520E+03  0.00000000000E+00 0. -1.
          1   -1    0    0  501    0 -0.00000000000E+00 -0.00000000000E+00 -0.12517813280E+03  0.12517813280E+03  0.00000000000E+00 0. -1.
         25    2    1    2    0    0  0.11615320827E+03 -0.13208567153E+02  0.18038755404E+03  0.24865537322E+03  0.12499516367E+03 0.  0.
          2    1    1    2  501    0 -0.85818032257E+02 -0.16132116420E+02 -0.67608319094E+02  0.11043488874E+03  0.00000000000E+00 0. -1.
          1    1    1    2  502    0 -0.30335176013E+02  0.29340683572E+02  0.21812491746E+03  0.22217015604E+03  0.00000000000E+00 0. -1.
         22    1    3    3    0    0  0.91204619983E+02  0.47381328365E+02  0.87487230114E+02  0.13497143556E+03  0.00000000000E+00 0.  1.
         22    1    3    3    0    0  0.24948588287E+02 -0.60589895517E+02  0.92900323921E+02  0.11368393766E+03  0.00000000000E+00 0.  1.
</event>
<event>
 7    1  0.5593520E-006  0.1734127E+03  0.7818608E-02  0.1377996E+00
          2   -1    0    0  502    0  0.00000000000E+00  0.00000000000E+00  0.10606745092E+03  0.10606745092E+03  0.00000000000E+00 0. -1.
          1   -1    0    0  501    0 -0.00000000000E+00 -0.00000000000E+00 -0.17111383253E+04  0.17111383253E+04  0.00000000000E+00 0. -1.
         25    2    1    2    0    0 -0.14526046960E+03 -0.42754329935E+02 -0.87633422917E+02  0.21501837722E+03  0.12499899589E+03 0.  0.
          2    1    1    2  501    0  0.16960440226E+03  0.43607292904E+02 -0.15509234266E+04  0.15607788839E+04  0.00000000000E+00 0. -1.
          1    1    1    2  502    0 -0.24343932661E+02 -0.85296296958E+00  0.33485975065E+02  0.41408515178E+02  0.00000000000E+00 0. -1.
         22    1    3    3    0    0 -0.18559069069E+02  0.31347279992E+02 -0.52824014636E+02  0.64167495899E+02  0.00000000000E+00 0.  1.
         22    1    3    3    0    0 -0.12670140053E+03 -0.74101609927E+02 -0.34809408281E+02  0.15085088132E+03  0.00000000000E+00 0.  1.
</event>
<event>
 7    1  0.5593520E-006  0.1853273E+03  0.7818608E-02  0.1339006E+00
          2   -1    0    0  502    0  0.00000000000E+00  0.00000000000E+00  0.83792473002E+03  0.83792473002E+03  0.00000000000E+00 0. -1.
          1   -1    0    0  501    0 -0.00000000000E+00 -0.00000000000E+00 -0.98919635944E+03  0.98919635944E+03  0.00000000000E+00 0. -1.
         25    2    1    2    0    0  0.29237234099E+02  0.20639983658E+03 -0.36424190021E+03  0.43789497845E+03  0.12499656748E+03 0.  0.
          2    1    1    2  501    0 -0.21893997131E+02 -0.17560818039E+03 -0.57449031834E+03  0.60112952515E+03  0.00000000000E+00 0. -1.
          1    1    1    2  502    0 -0.73432369679E+01 -0.30791656186E+02  0.78746058914E+03  0.78809658587E+03  0.00000000000E+00 0. -1.
         22    1    3    3    0    0  0.15344484074E+02  0.44070352248E+02 -0.20438592539E+03  0.20964554762E+03  0.00000000000E+00 0. -1.
         22    1    3    3    0    0  0.13892750025E+02  0.16232948433E+03 -0.15985597482E+03  0.22824943083E+03  0.00000000000E+00 0. -1.
</event>
<event>
 7    1  0.5593520E-006  0.5597790E+02  0.7818608E-02  0.1439738E+00
          2   -1    0    0  502    0  0.00000000000E+00  0.00000000000E+00  0.93034778616E+02  0.93034778616E+02  0.00000000000E+00 0. -1.
          1   -1    0    0  501    0 -0.00000000000E+00 -0.00000000000E+00 -0.96562610931E+03  0.96562610931E+03  0.00000000000E+00 0. -1.
         25    2    1    2    0    0 -0.59616143323E+02  0.68250377786E+02 -0.21560388562E+02  0.15588796912E+03  0.12499603973E+03 0.  0.
          2    1    1    2  501    0  0.19556366353E+02 -0.42257312628E+02 -0.85367693614E+03  0.85494587152E+03  0.00000000000E+00 0. -1.
          1    1    1    2  502    0  0.40059776970E+02 -0.25993065158E+02  0.26459940110E+01  0.47827047280E+02  0.00000000000E+00 0. -1.
         22    1    3    3    0    0 -0.29942872688E+02  0.92482850617E+02  0.20126217995E+02  0.99270931968E+02  0.00000000000E+00 0.  1.
         22    1    3    3    0    0 -0.29673270635E+02 -0.24232472831E+02 -0.41686606557E+02  0.56617037153E+02  0.00000000000E+00 0.  1.
</event>
<event>
 7    1  0.5593520E-006  0.4277636E+02  0.7818608E-02  0.1529133E+00
          2   -1    0    0  502    0  0.00000000000E+00  0.00000000000E+00  0.26538047946E+03  0.26538047946E+03  0.00000000000E+00 0. -1.
          1   -1    0    0  501    0 -0.00000000000E+00 -0.00000000000E+00 -0.72414136714E+03  0.72414136714E+03  0.00000000000E+00 0. -1.
         25    2    1    2    0    0  0.66548457990E+02  0.18501617518E+02 -0.50277597095E+02  0.15140511361E+03  0.12499865818E+03 0.  0.
          2    1    1    2  501    0 -0.24345605987E+02 -0.21548690254E+02 -0.62078688119E+03  0.62163768100E+03  0.00000000000E+00 0. -1.
          1    1    1    2  502    0 -0.42202852003E+02  0.30470727360E+01  0.21230359060E+03  0.21647905199E+03  0.00000000000E+00 0. -1.
         22    1    3    3    0    0  0.52293684242E+02 -0.50293780067E+02 -0.26002643229E+02  0.77072895235E+02  0.00000000000E+00 0.  1.
         22    1    3    3    0    0  0.14254773749E+02  0.68795397585E+02 -0.24274953866E+02  0.74332218376E+02  0.00000000000E+00 0.  1.
</event>
<event>
 7    1  0.5593520E-006  0.8306891E+02  0.7818608E-02  0.1349862E+00
          2   -1    0    0  502    0  0.00000000000E+00  0.00000000000E+00  0.45315833508E+03  0.45315833508E+03  0.00000000000E+00 0. -1.
          1   -1    0    0  501    0 -0.00000000000E+00 -0.00000000000E+00 -0.53402217191E+03  0.53402217191E+03  0.00000000000E+00 0. -1.
         25    2    1    2    0    0  0.72838638765E+02 -0.57639751863E+02 -0.40067461264E+03  0.42987497875E+03  0.12499817538E+03 0.  0.
          2    1    1    2  501    0 -0.84660636564E+02 -0.55896599114E+01 -0.10082837207E+03  0.13177643301E+03  0.00000000000E+00 0. -1.
          1    1    1    2  502    0  0.11821997800E+02  0.63229411774E+02  0.42063914789E+03  0.42552909522E+03  0.00000000000E+00 0. -1.
         22    1    3    3    0    0 -0.79045366258E+01 -0.56918915840E+02 -0.27168971812E+03  0.27770046383E+03  0.00000000000E+00 0. -1.
         22    1    3    3    0    0  0.80743175390E+02 -0.72083602285E+00 -0.12898489452E+03  0.15217451492E+03  0.00000000000E+00 0. -1.
</event>
<event>
 7    1  0.5593520E-006  0.6396431E+02  0.7818608E-02  0.1421995E+00
          2   -1    0    0  502    0  0.00000000000E+00  0.00000000000E+00  0.50193315938E+03  0.50193315938E+03  0.00000000000E+00 0. -1.
          1   -1    0    0  501    0 -0.00000000000E+00 -0.00000000000E+00 -0.15766637497E+04  0.15766637497E+04  0.00000000000E+00 0. -1.
         25    2    1    2    0    0  0.93329457876E+02  0.45104443671E+02 -0.42057926950E+03  0.45084173823E+03  0.12500620964E+03 0.  0.
          2    1    1    2  501    0 -0.46961131792E+02 -0.40380294923E+02 -0.11389943658E+04  0.11406770277E+04  0.00000000000E+00 0. -1.
          1    1    1    2  502    0 -0.46368326084E+02 -0.47241487479E+01  0.48484304501E+03  0.48707814316E+03  0.00000000000E+00 0. -1.
         22    1    3    3    0    0  0.11606145898E+03  0.59392088247E+02 -0.38355018268E+03  0.40510298078E+03  0.00000000000E+00 0.  1.
         22    1    3    3    0    0 -0.22732001104E+02 -0.14287644577E+02 -0.37029086827E+02  0.45738757449E+02  0.00000000000E+00 0.  1.
</event>
<event>
 7    1  0.5593520E-006  0.1102127E+03  0.7818608E-02  0.1327821E+00
          2   -1    0    0  502    0  0.00000000000E+00  0.00000000000E+00  0.87986658055E+03  0.87986658055E+03  0.00000000000E+00 0. -1.
          1   -1    0    0  501    0 -0.00000000000E+00 -0.00000000000E+00 -0.79492956588E+02  0.79492956588E+02  0.00000000000E+00 0. -1.
         25    2    1    2    0    0  0.12233038320E+03 -0.21023025844E+02  0.31329230114E+03  0.35942192325E+03  0.12500145075E+03 0.  0.
          2    1    1    2  501    0 -0.18328186049E+02  0.55768294880E+02 -0.33733327576E+02  0.67704966635E+02  0.00000000000E+00 0. -1.
          1    1    1    2  502    0 -0.10400219715E+03 -0.34745269036E+02  0.52081465040E+03  0.53223264726E+03  0.00000000000E+00 0. -1.
         22    1    3    3    0    0  0.98686318128E+02 -0.47802220390E+02  0.30302107671E+03  0.32225116694E+03  0.00000000000E+00 0. -1.
         22    1    3    3    0    0  0.23644065071E+02  0.26779194547E+02  0.10271224426E+02  0.37170756313E+02  0.00000000000E+00 0. -1.
</event>
<event>
 7    1  0.5593520E-006  0.1221486E+03  0.7818608E-02  0.1278456E+00
          2   -1    0    0  502    0  0.00000000000E+00  0.00000000000E+00  0.38541828538E+04  0.38541828538E+04  0.00000000000E+00 0. -1.
          1   -1    0    0  501    0 -0.00000000000E+00 -0.00000000000E+00 -0.97362471211E+03  0.97362471211E+03  0.00000000000E+00 0. -1.
         25    2    1    2    0    0 -0.17108762380E+03 -0.10765358662E+03  0.52291228461E+03  0.57438834635E+03  0.12499778120E+03 0.  0.
          2    1    1    2  501    0  0.70193956794E+02  0.44879757838E+02 -0.94498535701E+03  0.94865099441E+03  0.00000000000E+00 0. -1.
          1    1    1    2  502    0  0.10089366700E+03  0.62773828781E+02  0.33026312141E+04  0.33047682252E+04  0.00000000000E+00 0. -1.
         22    1    3    3    0    0 -0.17691080637E+03 -0.11060993602E+03  0.52692103501E+03  0.56672547895E+03  0.00000000000E+00 0.  1.
         22    1    3    3    0    0  0.58231825729E+01  0.29563493977E+01 -0.40087504022E+01  0.76628674024E+01  0.00000000000E+00 0.  1.
</event>
<event>
 7    1  0.5593520E-006  0.4892588E+02  0.7818608E-02  0.1506349E+00
          2   -1    0    0  502    0  0.00000000000E+00  0.00000000000E+00  0.62617681479E+02  0.62617681479E+02  0.00000000000E+00 0. -1.
          1   -1    0    0  501    0 -0.00000000000E+00 -0.00000000000E+00 -0.35428620366E+03  0.35428620366E+03  0.00000000000E+00 0. -1.
         25    2    1    2    0    0  0.24422036793E+02  0.34871833810E+02 -0.23231625771E+03  0.26722209891E+03  0.12499730346E+03 0.  0.
          2    1    1    2  501    0  0.21910245340E+01 -0.54586134048E+02 -0.89526255038E+02  0.10487800990E+03  0.00000000000E+00 0. -1.
          1    1    1    2  502    0 -0.26613061327E+02  0.19714300238E+02  0.30173990568E+02  0.44803776335E+02  0.00000000000E+00 0. -1.
         22    1    3    3    0    0 -0.32699592211E+02  0.58253914630E+02 -0.15114148236E+03  0.16524687468E+03  0.00000000000E+00 0. -1.
         22    1    3    3    0    0  0.57121629004E+02 -0.23382080820E+02 -0.81174775349E+02  0.10197522423E+03  0.00000000000E+00 0. -1.
</event>
<event>
 7    1  0.7168716E-006  0.6876979E+02  0.7818608E-02  0.1416997E+00
          2   -1    0    0  502    0  0.00000000000E+00  0.00000000000E+00  0.10758671697E+04  0.10758671697E+04  0.00000000000E+00 0. -1.
          1   -1    0    0  501    0 -0.00000000000E+00 -0.00000000000E+00 -0.61874417435E+03  0.61874417435E+03  0.00000000000E+00 0. -1.
         25    2    1    2    0    0  0.61934241732E+02 -0.34094659386E+02 -0.25878326270E+03  0.29596014930E+03  0.12500134729E+03 0.  0.
          2    1    1    2  501    0  0.60742803833E+01  0.44640312994E+02 -0.33875965062E+03  0.34174223519E+03  0.00000000000E+00 0. -1.
          1    1    1    2  502    0 -0.68008522116E+02 -0.10545653608E+02  0.10546659086E+04  0.10569089595E+04  0.00000000000E+00 0. -1.
         22    1    3    3    0    0  0.14016658500E+02 -0.68447970385E+02 -0.73007930776E+02  0.10105320045E+03  0.00000000000E+00 0. -1.
         22    1    3    3    0    0  0.47917583233E+02  0.34353310998E+02 -0.18577533192E+03  0.19490694885E+03  0.00000000000E+00 0. -1.
</event>
<event>
 7    1  0.5593520E-006  0.5130092E+02  0.7818608E-02  0.1446645E+00
          2   -1    0    0  502    0  0.00000000000E+00  0.00000000000E+00  0.40214310225E+03  0.40214310225E+03  0.00000000000E+00 0. -1.
          1   -1    0    0  501    0 -0.00000000000E+00 -0.00000000000E+00 -0.10428843626E+03  0.10428843626E+03  0.00000000000E+00 0. -1.
         25    2    1    2    0    0 -0.66506946190E+01 -0.38036288226E+02  0.29549553103E+02  0.13412407327E+03  0.12500039993E+03 0.  0.
          2    1    1    2  501    0  0.47968716605E+02  0.53288884435E+01 -0.38046409013E+02  0.61456684450E+02  0.00000000000E+00 0. -1.
          1    1    1    2  502    0 -0.41318021986E+02  0.32707399782E+02  0.30635152190E+03  0.31085078078E+03  0.00000000000E+00 0. -1.
         22    1    3    3    0    0  0.36852675168E+02 -0.68414758653E+02  0.19536931686E+02  0.80127339706E+02  0.00000000000E+00 0.  1.
         22    1    3    3    0    0 -0.43503369787E+02  0.30378470428E+02  0.10012621417E+02  0.53996733568E+02  0.00000000000E+00 0.  1.
</event>
<event>
 7    1  0.5593520E-006  0.1705824E+03  0.7818608E-02  0.1292971E+00
          2   -1    0    0  502    0  0.00000000000E+00  0.00000000000E+00  0.51119804781E+03  0.51119804781E+03  0.00000000000E+00 0. -1.
          1   -1    0    0  501    0 -0.00000000000E+00 -0.00000000000E+00 -0.27100784258E+04  0.27100784258E+04  0.00000000000E+00 0. -1.
         25    2    1    2    0    0  0.14565991028E+03 -0.38566062234E+02 -0.54925734363E+03  0.58310265814E+03  0.12498371808E+03 0.  0.
          2    1    1    2  501    0  0.25480506715E+02  0.45361279579E+02 -0.21287335379E+04  0.21293692440E+04  0.00000000000E+00 0. -1.
          1    1    1    2  502    0 -0.17114041699E+03 -0.67952173448E+01  0.47911050356E+03  0.50880457145E+03  0.00000000000E+00 0. -1.
         22    1    3    3    0    0  0.85850184583E+02 -0.50704725332E+02 -0.15602140157E+03  0.18515912376E+03  0.00000000000E+00 0. -1.
         22    1    3    3    0    0  0.59809725692E+02  0.12138663098E+02 -0.39323594206E+03  0.39794353438E+03  0.00000000000E+00 0. -1.
</event>
<event>
 7    1  0.5593520E-006  0.8447408E+02  0.7818608E-02  0.1336860E+00
          2   -1    0    0  502    0  0.00000000000E+00  0.00000000000E+00  0.20282919489E+04  0.20282919489E+04  0.00000000000E+00 0. -1.
          1   -1    0    0  501    0 -0.00000000000E+00 -0.00000000000E+00 -0.26278916822E+04  0.26278916822E+04  0.00000000000E+00 0. -1.
         25    2    1    2    0    0 -0.76014031634E+02 -0.24499820169E+02  0.83368985607E+03  0.84678376402E+03  0.12500237078E+03 0.  0.
          2    1    1    2  501    0  0.38688210156E+02 -0.59241498923E+02 -0.26190974151E+04  0.26200529771E+04  0.00000000000E+00 0. -1.
          1    1    1    2  502    0  0.37325821478E+02  0.83741319091E+02  0.11858078257E+04  0.11893468901E+04  0.00000000000E+00 0. -1.
         22    1    3    3    0    0 -0.10360170372E+03  0.99074554466E+01  0.60325804775E+03  0.61216970104E+03  0.00000000000E+00 0. -1.
         22    1    3    3    0    0  0.27587672083E+02 -0.34407275615E+02  0.23043180832E+03  0.23461406299E+03  0.00000000000E+00 0. -1.
</event>
<event>
 7    1  0.5593520E-006  0.3324699E+02  0.7818608E-02  0.1646126E+00
          2   -1    0    0  502    0  0.00000000000E+00  0.00000000000E+00  0.13670769340E+04  0.13670769340E+04  0.00000000000E+00 0. -1.
          1   -1    0    0  501    0 -0.00000000000E+00 -0.00000000000E+00 -0.89459322194E+03  0.89459322194E+03  0.00000000000E+00 0. -1.
         25    2    1    2    0    0  0.16454548996E+02 -0.24480869624E+02  0.16347088290E+03  0.20788975965E+03  0.12500142980E+03 0.  0.
          2    1    1    2  501    0 -0.18442015282E+02 -0.88100772551E+01 -0.87202865447E+03  0.87226813515E+03  0.00000000000E+00 0. -1.
          1    1    1    2  502    0  0.19874662859E+01  0.33290946879E+02  0.11810414836E+04  0.11815122611E+04  0.00000000000E+00 0. -1.
         22    1    3    3    0    0  0.38149204787E+02 -0.10862481854E+02 -0.26989661205E+01  0.39757260419E+02  0.00000000000E+00 0. -1.
         22    1    3    3    0    0 -0.21694655791E+02 -0.13618387770E+02  0.16616984902E+03  0.16813249923E+03  0.00000000000E+00 0. -1.
</event>
<event>
 7    1  0.5593520E-006  0.1417579E+03  0.7818608E-02  0.1218449E+00
          2   -1    0    0  502    0  0.00000000000E+00  0.00000000000E+00  0.24642429578E+03  0.24642429578E+03  0.00000000000E+00 0. -1.
          1   -1    0    0  501    0 -0.00000000000E+00 -0.00000000000E+00 -0.27920391786E+04  0.27920391786E+04  0.00000000000E+00 0. -1.
         25    2    1    2    0    0 -0.98561640773E+02 -0.86982324508E+01 -0.54339937407E+03  0.56630223698E+03  0.12500115036E+03 0.  0.
          2    1    1    2  501    0  0.17731461679E+02  0.12977406810E+03 -0.22125159668E+04  0.22163895453E+04  0.00000000000E+00 0. -1.
          1    1    1    2  502    0  0.80830179095E+02 -0.12107583565E+03  0.21030045801E+03  0.25577169208E+03  0.00000000000E+00 0. -1.
         22    1    3    3    0    0 -0.61703588412E+02 -0.63021223152E+02 -0.38227794440E+03  0.39232057576E+03  0.00000000000E+00 0. -1.
         22    1    3    3    0    0 -0.36858052361E+02  0.54322990701E+02 -0.16112142967E+03  0.17398166122E+03  0.00000000000E+00 0. -1.
</event>
<event>
 7    1  0.5593520E-006  0.6455634E+02  0.7818608E-02  0.1410427E+00
          2   -1    0    0  502    0  0.00000000000E+00  0.00000000000E+00  0.11029459753E+04  0.11029459753E+04  0.00000000000E+00 0. -1.
          1   -1    0    0  501    0 -0.00000000000E+00 -0.00000000000E+00 -0.51583692583E+03  0.51583692583E+03  0.00000000000E+00 0. -1.
         25    2    1    2    0    0 -0.92944132317E+02 -0.45604476328E+02  0.52216620711E+02  0.17049758070E+03  0.12499787820E+03 0.  0.
          2    1    1    2  501    0  0.50451862217E+02 -0.22619753750E+01 -0.45426275971E+03  0.45706144203E+03  0.00000000000E+00 0. -1.
          1    1    1    2  502    0  0.42492270099E+02  0.47866451703E+02  0.98915518847E+03  0.99122387839E+03  0.00000000000E+00 0. -1.
         22    1    3    3    0    0 -0.38853206058E+01  0.13092305015E+02  0.61907799338E+02  0.63396212708E+02  0.00000000000E+00 0. -1.
         22    1    3    3    0    0 -0.89058811711E+02 -0.58696781343E+02 -0.96911786271E+01  0.10710136800E+03  0.00000000000E+00 0. -1.
</event>
<event>
 7    1  0.5593520E-006  0.1216637E+03  0.7818608E-02  0.1275707E+00
          2   -1    0    0  502    0  0.00000000000E+00  0.00000000000E+00  0.11712006612E+04  0.11712006612E+04  0.00000000000E+00 0. -1.
          1   -1    0    0  501    0 -0.00000000000E+00 -0.00000000000E+00 -0.16083388002E+03  0.16083388002E+03  0.00000000000E+00 0. -1.
         25    2    1    2    0    0  0.73831375594E+02  0.18043325052E+03  0.46993334354E+02  0.23630518399E+03  0.12499814635E+03 0.  0.
          2    1    1    2  501    0 -0.59236641746E+02 -0.62173105226E+02 -0.33191481877E+02  0.92066004627E+02  0.00000000000E+00 0. -1.
          1    1    1    2  502    0 -0.14594733848E+02 -0.11826014530E+03  0.99656492872E+03  0.10036633526E+04  0.00000000000E+00 0. -1.
         22    1    3    3    0    0  0.95528488850E+02  0.18275780567E+03  0.54379060655E+02  0.21326788308E+03  0.00000000000E+00 0. -1.
         22    1    3    3    0    0 -0.21697113256E+02 -0.23245551471E+01 -0.73857263006E+01  0.23037300911E+02  0.00000000000E+00 0. -1.
</event>
<event>
 7    1  0.5593520E-006  0.1526350E+03  0.7818608E-02  0.1200378E+00
          2   -1    0    0  502    0  0.00000000000E+00  0.00000000000E+00  0.17248935409E+04  0.17248935409E+04  0.00000000000E+00 0. -1.
          1   -1    0    0  501    0 -0.00000000000E+00 -0.00000000000E+00 -0.35549941791E+03  0.35549941791E+03  0.00000000000E+00 0. -1.
         25    2    1    2    0    0 -0.70756151373E+02  0.26882445471E+03  0.18697206647E+03  0.35756988324E+03  0.12499858940E+03 0.  0.
          2    1    1    2  501    0 -0.12784079226E+02 -0.14700832925E+03 -0.24595697444E+03  0.28682697716E+03  0.00000000000E+00 0. -1.
          1    1    1    2  502    0  0.83540230599E+02 -0.12181612546E+03  0.14283790309E+04  0.14359960984E+04  0.00000000000E+00 0. -1.
         22    1    3    3    0    0 -0.84397427177E+02  0.22879923593E+03  0.19770676611E+03  0.31394264037E+03  0.00000000000E+00 0. -1.
         22    1    3    3    0    0  0.13641275803E+02  0.40025218785E+02 -0.10734699641E+02  0.43627242873E+02  0.00000000000E+00 0. -1.
</event>
<event>
 7    1  0.5593520E-006  0.8287839E+02  0.7818608E-02  0.1343768E+00
          2   -1    0    0  502    0  0.00000000000E+00  0.00000000000E+00  0.26731759494E+03  0.26731759494E+03  0.00000000000E+00 0. -1.
          1   -1    0    0  501    0 -0.00000000000E+00 -0.00000000000E+00 -0.10634368597E+04  0.10634368597E+04  0.00000000000E+00 0. -1.
         25    2    1    2    0    0  0.13431775412E+03  0.16675389388E+02 -0.98556581273E+02  0.20894363409E+03  0.12499885933E+03 0.  0.
          2    1    1    2  501    0 -0.78448136500E+02  0.21966270671E+02 -0.90236580014E+03  0.90603568606E+03  0.00000000000E+00 0. -1.
          1    1    1    2  502    0 -0.55869617617E+02 -0.38641660059E+02  0.20480311665E+03  0.21577513447E+03  0.00000000000E+00 0. -1.
         22    1    3    3    0    0  0.19500253056E+02  0.57303953364E+02 -0.18896614109E+02  0.63412025398E+02  0.00000000000E+00 0. -1.
         22    1    3    3    0    0  0.11481750106E+03 -0.40628563975E+02 -0.79659967164E+02  0.14553160869E+03  0.00000000000E+00 0. -1.
</event>
<event>
 7    1  0.5593520E-006  0.5157719E+02  0.7818608E-02  0.1560749E+00
          2   -1    0    0  502    0  0.00000000000E+00  0.00000000000E+00  0.83109693813E+03  0.83109693813E+03  0.00000000000E+00 0. -1.
          1   -1    0    0  501    0 -0.00000000000E+00 -0.00000000000E+00 -0.28861756127E+03  0.28861756127E+03  0.00000000000E+00 0. -1.
         25    2    1    2    0    0 -0.24622661658E+02  0.53036417220E+02  0.43520806034E+02  0.14467430966E+03  0.12496982955E+03 0.  0.
          2    1    1    2  501    0 -0.12941218289E+02 -0.17764694571E+02 -0.23663027140E+03  0.23764878465E+03  0.00000000000E+00 0. -1.
          1    1    1    2  502    0  0.37563879947E+02 -0.35271722649E+02  0.73558884223E+03  0.73739140509E+03  0.00000000000E+00 0. -1.
         22    1    3    3    0    0  0.10397340038E+02  0.16706894426E+02  0.80015673225E+02  0.82399835940E+02  0.00000000000E+00 0. -1.
         22    1    3    3    0    0 -0.35020001696E+02  0.36329522794E+02 -0.36494867191E+02  0.62274473715E+02  0.00000000000E+00 0. -1.
</event>
<event>
 7    1  0.5593520E-006  0.1320593E+03  0.7818608E-02  0.1349589E+00
          2   -1    0    0  502    0  0.00000000000E+00  0.00000000000E+00  0.48387224217E+04  0.48387224217E+04  0.00000000000E+00 0. -1.
          1   -1    0    0  501    0 -0.00000000000E+00 -0.00000000000E+00 -0.11592801635E+04  0.11592801635E+04  0.00000000000E+00 0. -1.
         25    2    1    2    0    0 -0.12197255493E+03  0.44633502954E+02  0.19225918469E+03  0.26354801572E+03  0.12499803499E+03 0.  0.
          2    1    1    2  501    0 -0.10196112800E+02 -0.39254091509E+02 -0.11223206790E+04  0.11230532271E+04  0.00000000000E+00 0. -1.
          1    1    1    2  502    0  0.13216866773E+03 -0.53794114455E+01  0.46095037526E+04  0.46114013423E+04  0.00000000000E+00 0. -1.
         22    1    3    3    0    0 -0.15998108504E+02 -0.40766155216E+02  0.54213680359E+02  0.69691764397E+02  0.00000000000E+00 0. -1.
         22    1    3    3    0    0 -0.10597444642E+03  0.85399658170E+02  0.13804550433E+03  0.19385625132E+03  0.00000000000E+00 0. -1.
</event>
<event>
 7    1  0.5593520E-006  0.1368969E+03  0.7818608E-02  0.1288283E+00
          2   -1    0    0  502    0  0.00000000000E+00  0.00000000000E+00  0.26511505035E+04  0.26511505035E+04  0.00000000000E+00 0. -1.
          1   -1    0    0  501    0 -0.00000000000E+00 -0.00000000000E+00 -0.63123600571E+03  0.63123600571E+03  0.00000000000E+00 0. -1.
         25    2    1    2    0    0 -0.53151763327E+02  0.48292155241E+02  0.12794976435E+04  0.12875933984E+04  0.12500119119E+03 0.  0.
          2    1    1    2  501    0  0.83962663839E+02 -0.10861572577E+03 -0.61882209580E+03  0.63386740810E+03  0.00000000000E+00 0. -1.
          1    1    1    2  502    0 -0.30810900512E+02  0.60323570529E+02  0.13592389501E+04  0.13609257026E+04  0.00000000000E+00 0. -1.
         22    1    3    3    0    0  0.14943249692E+02  0.14838507146E+02  0.91698083933E+03  0.91722262386E+03  0.00000000000E+00 0. -1.
         22    1    3    3    0    0 -0.68095013019E+02  0.33453648094E+02  0.36251680415E+03  0.37037077458E+03  0.00000000000E+00 0. -1.
</event>
<event>
 7    1  0.5593520E-006  0.4419089E+02  0.7818608E-02  0.1592827E+00
          2   -1    0    0  502    0  0.00000000000E+00  0.00000000000E+00  0.25427668691E+03  0.25427668691E+03  0.00000000000E+00 0. -1.
          1   -1    0    0  501    0 -0.00000000000E+00 -0.00000000000E+00 -0.20427913190E+03  0.20427913190E+03  0.00000000000E+00 0. -1.
         25    2    1    2    0    0 -0.49416427098E+02  0.38765791567E+02  0.83991498695E+02  0.16316905490E+03  0.12499919505E+03 0.  0.
          2    1    1    2  501    0  0.13206518110E+02 -0.16359814401E+02 -0.16051819588E+03  0.16188930433E+03  0.00000000000E+00 0. -1.
          1    1    1    2  502    0  0.36209908989E+02 -0.22405977166E+02  0.12652425219E+03  0.13349745958E+03  0.00000000000E+00 0. -1.
         22    1    3    3    0    0 -0.16247345208E+02  0.34906960510E+02  0.11272281234E+03  0.11911718827E+03  0.00000000000E+00 0. -1.
         22    1    3    3    0    0 -0.33169081890E+02  0.38588310570E+01 -0.28731313646E+02  0.44051866639E+02  0.00000000000E+00 0. -1.
</event>
<event>
 7    1  0.7022390E-006  0.1136723E+03  0.7818608E-02  0.1359721E+00
          2   -1    0    0  502    0  0.00000000000E+00  0.00000000000E+00  0.99991499172E+03  0.99991499172E+03  0.00000000000E+00 0. -1.
          1   -1    0    0  501    0 -0.00000000000E+00 -0.00000000000E+00 -0.30392238938E+04  0.30392238938E+04  0.00000000000E+00 0. -1.
         25    2    1    2    0    0  0.30360326112E+02 -0.71126334552E+02 -0.37188798662E+03  0.39988270448E+03  0.12499919153E+03 0.  0.
          2    1    1    2  501    0 -0.64318533246E+02  0.97896820530E+02 -0.26515707893E+04  0.26541567987E+04  0.00000000000E+00 0. -1.
          1    1    1    2  502    0  0.33958207134E+02 -0.26770485978E+02  0.98414987390E+03  0.98509938232E+03  0.00000000000E+00 0. -1.
         22    1    3    3    0    0 -0.11628646414E+02 -0.29679070862E+02 -0.31918184058E+03  0.32076957465E+03  0.00000000000E+00 0.  1.
         22    1    3    3    0    0  0.41988972526E+02 -0.41447263690E+02 -0.52706146036E+02  0.79113129828E+02  0.00000000000E+00 0.  1.
</event>
<event>
 7    1  0.5593520E-006  0.1886617E+03  0.7818608E-02  0.1378667E+00
          2   -1    0    0  502    0  0.00000000000E+00  0.00000000000E+00  0.72846578045E+03  0.72846578045E+03  0.00000000000E+00 0. -1.
          1   -1    0    0  501    0 -0.00000000000E+00 -0.00000000000E+00 -0.20953844786E+03  0.20953844786E+03  0.00000000000E+00 0. -1.
         25    2    1    2    0    0 -0.17060572558E+03  0.62879430740E+02  0.54229958970E+03  0.58547002711E+03  0.12500468487E+03 0.  0.
          2    1    1    2  501    0  0.18390433394E+03 -0.45018955743E+02 -0.13893774757E+03  0.23484294351E+03  0.00000000000E+00 0. -1.
          1    1    1    2  502    0 -0.13298608362E+02 -0.17860474997E+02  0.11556549046E+03  0.11769125769E+03  0.00000000000E+00 0. -1.
         22    1    3    3    0    0 -0.11005450373E+03  0.10076599594E+03  0.36864620841E+03  0.39770064961E+03  0.00000000000E+00 0.  1.
         22    1    3    3    0    0 -0.60551221852E+02 -0.37886565200E+02  0.17365338130E+03  0.18776937750E+03  0.00000000000E+00 0.  1.
</event>
<event>
 7    1  0.5593520E-006  0.1782620E+03  0.7818608E-02  0.1233281E+00
          2   -1    0    0  502    0  0.00000000000E+00  0.00000000000E+00  0.11901847638E+04  0.11901847638E+04  0.00000000000E+00 0. -1.
          1   -1    0    0  501    0 -0.00000000000E+00 -0.00000000000E+00 -0.57431982991E+03  0.57431982991E+03  0.00000000000E+00 0. -1.
         25    2    1    2    0    0  0.16552621590E+03 -0.54849026771E+02  0.14116506372E+03  0.25683143228E+03  0.12500986164E+03 0.  0.
          2    1    1    2  501    0  0.12967752305E+02  0.88326588451E+02 -0.50421400332E+03  0.51205615900E+03  0.00000000000E+00 0. -1.
          1    1    1    2  502    0 -0.17849396820E+03 -0.33477561680E+02  0.97891387353E+03  0.99561700247E+03  0.00000000000E+00 0. -1.
         22    1    3    3    0    0 -0.72124768707E+01 -0.34676002933E+02  0.46158191480E+01  0.35717653736E+02  0.00000000000E+00 0. -1.
         22    1    3    3    0    0  0.17273869277E+03 -0.20173023838E+02  0.13654924457E+03  0.22111377854E+03  0.00000000000E+00 0. -1.
</event>
<event>
 7    1  0.5593520E-006  0.6087762E+02  0.7818608E-02  0.1397060E+00
          2   -1    0    0  502    0  0.00000000000E+00  0.00000000000E+00  0.17978292580E+04  0.17978292580E+04  0.00000000000E+00 0. -1.
          1   -1    0    0  501    0 -0.00000000000E+00 -0.00000000000E+00 -0.19259295016E+04  0.19259295016E+04  0.00000000000E+00 0. -1.
         25    2    1    2    0    0  0.10699589654E+03  0.30596015897E+02  0.28679103957E+03  0.33205080001E+03  0.12499758134E+03 0.  0.
          2    1    1    2  501    0 -0.47895575903E+02 -0.37470273230E+02 -0.19022189267E+04  0.19031907032E+04  0.00000000000E+00 0. -1.
          1    1    1    2  502    0 -0.59100320633E+02  0.68742573328E+01  0.14873276436E+04  0.14885172564E+04  0.00000000000E+00 0. -1.
         22    1    3    3    0    0  0.71919096178E+02  0.79478016761E+02  0.18497418220E+03  0.21378624751E+03  0.00000000000E+00 0. -1.
         22    1    3    3    0    0  0.35076800358E+02 -0.48882000864E+02  0.10181685737E+03  0.11826455250E+03  0.00000000000E+00 0. -1.
</event>
<event>
 7    1  0.5593520E-006  0.1276257E+03  0.7818608E-02  0.1314206E+00
          2   -1    0    0  502    0  0.00000000000E+00  0.00000000000E+00  0.20579479254E+04  0.20579479254E+04  0.00000000000E+00 0. -1.
          1   -1    0    0  501    0 -0.00000000000E+00 -0.00000000000E+00 -0.20300761184E+04  0.20300761184E+04  0.00000000000E+00 0. -1.
         25    2    1    2    0    0  0.75261347346E+02  0.27773321383E+01  0.14649926471E+03  0.20678296659E+03  0.12500070693E+03 0.  0.
          2    1    1    2  501    0  0.55131256597E+02  0.15392353837E+02 -0.19972204968E+04  0.19980405634E+04  0.00000000000E+00 0. -1.
          1    1    1    2  502    0 -0.13039260394E+03 -0.18169685976E+02  0.18785930391E+04  0.18832005138E+04  0.00000000000E+00 0. -1.
         22    1    3    3    0    0  0.52158757083E+02  0.62652892084E+02  0.87764664682E+02  0.11978546320E+03  0.00000000000E+00 0. -1.
         22    1    3    3    0    0  0.23102590264E+02 -0.59875559946E+02  0.58734600031E+02  0.86997503392E+02  0.00000000000E+00 0. -1.
</event>
<event>
 7    1  0.5593520E-006  0.1964061E+03  0.7818608E-02  0.1193944E+00
          2   -1    0    0  502    0  0.00000000000E+00  0.00000000000E+00  0.54343165716E+03  0.54343165716E+03  0.00000000000E+00 0. -1.
          1   -1    0    0  501    0 -0.00000000000E+00 -0.00000000000E+00 -0.11472189018E+04  0.11472189018E+04  0.00000000000E+00 0. -1.
         25    2    1    2    0    0  0.18794403546E+03  0.19091329044E+03 -0.24465740216E+02  0.29663930272E+03  0.12500183417E+03 0.  0.
          2    1    1    2  501    0 -0.11476545584E+02 -0.12248157063E+03 -0.96054375958E+03  0.96838926074E+03  0.00000000000E+00 0. -1.
          1    1    1    2  502    0 -0.17646748987E+03 -0.68431719811E+02  0.38122225514E+03  0.42562199552E+03  0.00000000000E+00 0. -1.
         22    1    3    3    0    0  0.91936686036E+02  0.46050679388E+02  0.41318719612E+02  0.11081631604E+03  0.00000000000E+00 0.  1.
         22    1    3    3    0    0  0.96007349420E+02  0.14486261105E+03 -0.65784459828E+02  0.18582298668E+03  0.00000000000E+00 0.  1.
</event>
<event>
 7    1  0.5593520E-006  0.5156719E+02  0.7818608E-02  0.1484856E+00
          2   -1    0    0  502    0  0.00000000000E+00  0.00000000000E+00  0.58718636964E+03  0.58718636964E+03  0.00000000000E+00 0. -1.
          1   -1    0    0  501    0 -0.00000000000E+00 -0.00000000000E+00 -0.59599789841E+02  0.59599789841E+02  0.00000000000E+00 0. -1.
         25    2    1    2    0    0  0.32502965694E+02  0.34860291441E+02  0.72369945425E+02  0.15209908966E+03  0.12500016551E+03 0.  0.
          2    1    1    2  501    0 -0.29194030519E+01 -0.56165486899E+02  0.22720775521E+02  0.60657385973E+02  0.00000000000E+00 0. -1.
          1    1    1    2  502    0 -0.29583562642E+02  0.21305195458E+02  0.43249585885E+03  0.43402968384E+03  0.00000000000E+00 0. -1.
         22    1    3    3    0    0  0.64448781187E+02 -0.14103607550E+02  0.65949514694E+02  0.93283951625E+02  0.00000000000E+00 0.  1.
         22    1    3    3    0    0 -0.31945815492E+02  0.48963898991E+02  0.64204307304E+01  0.58815138040E+02  0.00000000000E+00 0.  1.
</event>
<event>
 7    1  0.5593520E-006  0.1273142E+03  0.7818608E-02  0.1324894E+00
          2   -1    0    0  502    0  0.00000000000E+00  0.00000000000E+00  0.11176751676E+04  0.11176751676E+04  0.00000000000E+00 0. -1.
          1   -1    0    0  501    0 -0.00000000000E+00 -0.00000000000E+00 -0.15971849564E+03  0.15971849564E+03  0.00000000000E+00 0. -1.
         25    2    1    2    0    0 -0.16536894911E+03 -0.44573928315E+02  0.36992276891E+03  0.42638037556E+03  0.12499458105E+03 0.  0.
          2    1    1    2  501    0  0.11353619677E+03  0.50322911520E+02 -0.10095952013E+03  0.16004901782E+03  0.00000000000E+00 0. -1.
          1    1    1    2  502    0  0.51832752343E+02 -0.57489832056E+01  0.68899342314E+03  0.69096426981E+03  0.00000000000E+00 0. -1.
         22    1    3    3    0    0 -0.51204796824E+02 -0.20459189368E+02  0.26099104931E+03  0.26675238980E+03  0.00000000000E+00 0.  1.
         22    1    3    3    0    0 -0.11416415229E+03 -0.24114738947E+02  0.10893171960E+03  0.15962798576E+03  0.00000000000E+00 0.  1.
</event>
<event>
 7    1  0.5593520E-006  0.2936959E+02  0.7818608E-02  0.1629885E+00
          2   -1    0    0  502    0  0.00000000000E+00  0.00000000000E+00  0.22374095810E+03  0.22374095810E+03  0.00000000000E+00 0. -1.
          1   -1    0    0  501    0 -0.00000000000E+00 -0.00000000000E+00 -0.18409622127E+03  0.18409622127E+03  0.00000000000E+00 0. -1.
         25    2    1    2    0    0  0.34283961991E+02  0.19215159045E+02 -0.33701756009E+01  0.13107597146E+03  0.12499975929E+03 0.  0.
          2    1    1    2  501    0 -0.24006594826E+02  0.82791757982E+01 -0.11411851828E+03  0.11690978386E+03  0.00000000000E+00 0. -1.
          1    1    1    2  502    0 -0.10277367164E+02 -0.27494334843E+02  0.15713343072E+03  0.15985142406E+03  0.00000000000E+00 0. -1.
         22    1    3    3    0    0  0.24761297548E+02  0.25248077791E+02 -0.61997773225E+02  0.71374443418E+02  0.00000000000E+00 0. -1.
         22    1    3    3    0    0  0.95226644430E+01 -0.60329187461E+01  0.58627597624E+02  0.59701528037E+02  0.00000000000E+00 0. -1.
</event>
<event>
 7    1  0.5593520E-006  0.1361615E+03  0.7818608E-02  0.1296965E+00
          2   -1    0    0  502    0  0.00000000000E+00  0.00000000000E+00  0.26586893417E+04  0.26586893417E+04  0.00000000000E+00 0. -1.
          1   -1    0    0  501    0 -0.00000000000E+00 -0.00000000000E+00 -0.23662922040E+02  0.23662922040E+02  0.00000000000E+00 0. -1.
         25    2    1    2    0    0  0.15584279617E+02  0.94208753929E+02  0.40341365604E+03  0.43299532409E+03  0.12499685481E+03 0.  0.
          2    1    1    2  501    0  0.54356914538E+02  0.31462837550E+02  0.14785273286E+03  0.16063939405E+03  0.00000000000E+00 0. -1.
          1    1    1    2  502    0 -0.69941194155E+02 -0.12567159148E+03  0.20837600308E+04  0.20887175456E+04  0.00000000000E+00 0. -1.
         22    1    3    3    0    0  0.54061220160E+02  0.41990375785E+00  0.17340915328E+03  0.18164120206E+03  0.00000000000E+00 0. -1.
         22    1    3    3    0    0 -0.38476940543E+02  0.93788850171E+02  0.23000450277E+03  0.25135412203E+03  0.00000000000E+00 0. -1.
</event>
<event>
 7    1  0.5593520E-006  0.6826654E+02  0.7818608E-02  0.1490483E+00
          2   -1    0    0  502    0  0.00000000000E+00  0.00000000000E+00  0.17420652998E+04  0.17420652998E+04  0.00000000000E+00 0. -1.
          1   -1    0    0  501    0 -0.00000000000E+00 -0.00000000000E+00 -0.23985084722E+03  0.23985084722E+03  0.00000000000E+00 0. -1.
         25    2    1    2    0    0 -0.37148407913E+02 -0.19519345193E+02  0.77657300040E+03  0.78768756790E+03  0.12500028256E+03 0.  0.
          2    1    1    2  501    0  0.60923921906E+02  0.31170326891E+02 -0.22910884923E+03  0.23911122586E+03  0.00000000000E+00 0. -1.
          1    1    1    2  502    0 -0.23775513993E+02 -0.11650981698E+02  0.95475030143E+03  0.95511735327E+03  0.00000000000E+00 0. -1.
         22    1    3    3    0    0 -0.10092675477E+02  0.31758752642E+02  0.61715424593E+03  0.61805326934E+03  0.00000000000E+00 0.  1.
         22    1    3    3    0    0 -0.27055732436E+02 -0.51278097835E+02  0.15941875446E+03  0.16963429857E+03  0.00000000000E+00 0.  1.
</event>
<event>
 7    1  0.5593520E-006  0.1371653E+03  0.7818608E-02  0.1218123E+00
          2   -1    0    0  502    0  0.00000000000E+00  0.00000000000E+00  0.31794401471E+03  0.31794401471E+03  0.00000000000E+00 0. -1.
          1   -1    0    0  501    0 -0.00000000000E+00 -0.00000000000E+00 -0.60875472446E+03  0.60875472446E+03  0.00000000000E+00 0. -1.
         25    2    1    2    0    0  0.34083634179E+02 -0.30267894129E+02 -0.29042630268E+02  0.13617533691E+03  0.12498963347E+03 0.  0.
          2    1    1    2  501    0 -0.16210069214E+03 -0.15135267243E+02 -0.49474397395E+03  0.52084288463E+03  0.00000000000E+00 0. -1.
          1    1    1    2  502    0  0.12801705796E+03  0.45403161372E+02  0.23297589446E+03  0.26968051764E+03  0.00000000000E+00 0. -1.
         22    1    3    3    0    0  0.72837812371E+02  0.10912805713E+01  0.90898697335E+01  0.73410922457E+02  0.00000000000E+00 0.  1.
         22    1    3    3    0    0 -0.38754178192E+02 -0.31359174700E+02 -0.38132500001E+02  0.62764414452E+02  0.00000000000E+00 0.  1.
</event>
<event>
 7    1  0.5593520E-006  0.4242278E+02  0.7818608E-02  0.1517074E+00
          2   -1    0    0  502    0  0.00000000000E+00  0.00000000000E+00  0.38848207072E+03  0.38848207072E+03  0.00000000000E+00 0. -1.
          1   -1    0    0  501    0 -0.00000000000E+00 -0.00000000000E+00 -0.48260989036E+03  0.48260989036E+03  0.00000000000E+00 0. -1.
         25    2    1    2    0    0  0.37736176021E+02 -0.38187606368E+02  0.32072560126E+03  0.34838421279E+03  0.12499734460E+03 0.  0.
          2    1    1    2  501    0 -0.24574991571E+01  0.42357573354E+02 -0.46185038888E+03  0.46379519729E+03  0.00000000000E+00 0. -1.
          1    1    1    2  502    0 -0.35278676864E+02 -0.41699669861E+01  0.46996967984E+02  0.58912551002E+02  0.00000000000E+00 0. -1.
         22    1    3    3    0    0 -0.11244423170E+02  0.38380348533E+02  0.14666570021E+03  0.15202077432E+03  0.00000000000E+00 0. -1.
         22    1    3    3    0    0  0.48980599191E+02 -0.76567954900E+02  0.17405990105E+03  0.19636343847E+03  0.00000000000E+00 0. -1.
</event>
<event>
 7    1  0.5593520E-006  0.1382160E+03  0.7818608E-02  0.1298750E+00
          2   -1    0    0  502    0  0.00000000000E+00  0.00000000000E+00  0.29608811324E+04  0.29608811324E+04  0.00000000000E+00 0. -1.
          1   -1    0    0  501    0 -0.00000000000E+00 -0.00000000000E+00 -0.15281823063E+02  0.15281823063E+02  0.00000000000E+00 0. -1.
         25    2    1    2    0    0  0.11594058889E+03  0.41030325703E+02  0.11258148764E+04  0.11393892566E+04  0.12499213683E+03 0.  0.
          2    1    1    2  501    0 -0.63535916956E+01  0.60526364282E+02  0.17623789775E+03  0.18645000805E+03  0.00000000000E+00 0. -1.
          1    1    1    2  502    0 -0.10958699720E+03 -0.10155668999E+03  0.16435465352E+04  0.16503236908E+04  0.00000000000E+00 0. -1.
         22    1    3    3    0    0  0.14069097866E+02  0.40400819707E+02  0.70959820399E+03  0.71088661322E+03  0.00000000000E+00 0. -1.
         22    1    3    3    0    0  0.10187149103E+03  0.62950599634E+00  0.41621667240E+03  0.42850264333E+03  0.00000000000E+00 0. -1.
</event>
<event>
 7    1  0.5593520E-006  0.7727779E+02  0.7818608E-02  0.1357063E+00
          2   -1    0    0  502    0  0.00000000000E+00  0.00000000000E+00  0.38566537085E+03  0.38566537085E+03  0.00000000000E+00 0. -1.
          1   -1    0    0  501    0 -0.00000000000E+00 -0.00000000000E+00 -0.17304179744E+04  0.17304179744E+04  0.00000000000E+00 0. -1.
         25    2    1    2    0    0 -0.17582712186E+02  0.18548509403E+01  0.11827467147E+03  0.17299188025E+03  0.12499880192E+03 0.  0.
          2    1    1    2  501    0  0.63497123490E+01  0.77016478249E+02 -0.16955445432E+04  0.16973046735E+04  0.00000000000E+00 0. -1.
          1    1    1    2  502    0  0.11232999837E+02 -0.78871329189E+02  0.23251726819E+03  0.24578679147E+03  0.00000000000E+00 0. -1.
         22    1    3    3    0    0 -0.43714088427E+02  0.11793790515E+02 -0.59442641119E+01  0.45665624900E+02  0.00000000000E+00 0.  1.
         22    1    3    3    0    0  0.26131376241E+02 -0.99389395744E+01  0.12421893558E+03  0.12732625535E+03  0.00000000000E+00 0.  1.
</event>
<event>
 7    1  0.5593520E-006  0.5116464E+02  0.7818608E-02  0.1565435E+00
          2   -1    0    0  502    0  0.00000000000E+00  0.00000000000E+00  0.77152409255E+03  0.77152409255E+03  0.00000000000E+00 0. -1.
          1   -1    0    0  501    0 -0.00000000000E+00 -0.00000000000E+00 -0.26655167140E+03  0.26655167140E+03  0.00000000000E+00 0. -1.
         25    2    1    2    0    0  0.25103299265E+02 -0.26693714760E+02  0.52888937555E+03  0.54469489284E+03  0.12500329863E+03 0.  0.
          2    1    1    2  501    0 -0.19395550428E+02  0.47432647444E+02 -0.25560760891E+03  0.26069386865E+03  0.00000000000E+00 0. -1.
          1    1    1    2  502    0 -0.57077488363E+01 -0.20738932683E+02  0.23169065451E+03  0.23268700246E+03  0.00000000000E+00 0. -1.
         22    1    3    3    0    0 -0.35441303359E+02  0.16130429951E+02  0.72271260831E+02  0.82093921190E+02  0.00000000000E+00 0. -1.
         22    1    3    3    0    0  0.60544602623E+02 -0.42824144712E+02  0.45661811472E+03  0.46260097165E+03  0.00000000000E+00 0. -1.
</event>
<event>
 7    1  0.5593520E-006  0.1030662E+03  0.7818608E-02  0.1298355E+00
          2   -1    0    0  502    0  0.00000000000E+00  0.00000000000E+00  0.76061442520E+03  0.76061442520E+03  0.00000000000E+00 0. -1.
          1   -1    0    0  501    0 -0.00000000000E+00 -0.00000000000E+00 -0.29076257260E+03  0.29076257260E+03  0.00000000000E+00 0. -1.
         25    2    1    2    0    0  0.63277610666E+01 -0.98926051276E+02  0.85022215580E+01  0.15976408639E+03  0.12500348534E+03 0.  0.
          2    1    1    2  501    0  0.75093488041E+02  0.32721333925E+02 -0.20306408583E+03  0.21896287493E+03  0.00000000000E+00 0. -1.
          1    1    1    2  502    0 -0.81421249108E+02  0.66204717350E+02  0.66441371688E+03  0.67265003648E+03  0.00000000000E+00 0. -1.
         22    1    3    3    0    0  0.82305557151E+01 -0.95329847206E+02 -0.45259464008E+02  0.10584866980E+03  0.00000000000E+00 0.  1.
         22    1    3    3    0    0 -0.19027946485E+01 -0.35962040695E+01  0.53761685566E+02  0.53915416590E+02  0.00000000000E+00 0.  1.
</event>
<event>
 7    1  0.5593520E-006  0.4052500E+02  0.7818608E-02  0.1572536E+00
          2   -1    0    0  502    0  0.00000000000E+00  0.00000000000E+00  0.88745226953E+03  0.88745226953E+03  0.00000000000E+00 0. -1.
          1   -1    0    0  501    0 -0.00000000000E+00 -0.00000000000E+00 -0.18928425589E+04  0.18928425589E+04  0.00000000000E+00 0. -1.
         25    2    1    2    0    0  0.14312519101E+02 -0.38710628190E+02  0.38710879754E+02  0.13721057083E+03  0.12499939039E+03 0.  0.
          2    1    1    2  501    0 -0.25975185493E+02 -0.18163910172E+00 -0.18429856069E+04  0.18431686550E+04  0.00000000000E+00 0. -1.
          1    1    1    2  502    0  0.11662666392E+02  0.38892267291E+02  0.79888443786E+03  0.79991560260E+03  0.00000000000E+00 0. -1.
         22    1    3    3    0    0 -0.47319329007E+02  0.15188518880E+02  0.16699493333E+02  0.52427884575E+02  0.00000000000E+00 0. -1.
         22    1    3    3    0    0  0.61631848107E+02 -0.53899147070E+02  0.22011386421E+02  0.84782686252E+02  0.00000000000E+00 0. -1.
</event>
<event>
 7    1  0.5593520E-006  0.1451670E+03  0.7818608E-02  0.1380941E+00
          2   -1    0    0  502    0  0.00000000000E+00  0.00000000000E+00  0.12538150729E+03  0.12538150729E+03  0.00000000000E+00 0. -1.
          1   -1    0    0  501    0 -0.00000000000E+00 -0.00000000000E+00 -0.93528951166E+03  0.93528951166E+03  0.00000000000E+00 0. -1.
         25    2    1    2    0    0 -0.36716826425E+02 -0.15772079332E+03 -0.16906042682E+03  0.26538375979E+03  0.12499255200E+03 0.  0.
          2    1    1    2  501    0  0.21967924757E+02  0.18011077801E+02 -0.65360600202E+03  0.65422304646E+03  0.00000000000E+00 0. -1.
          1    1    1    2  502    0  0.14748901668E+02  0.13970971552E+03  0.12758424479E+02  0.14106421270E+03  0.00000000000E+00 0. -1.
         22    1    3    3    0    0 -0.56912030594E+02 -0.30732748953E+02 -0.18264782147E+02  0.67209250490E+02  0.00000000000E+00 0.  1.
         22    1    3    3    0    0  0.20195204169E+02 -0.12698804437E+03 -0.15079564468E+03  0.19817450930E+03  0.00000000000E+00 0.  1.
</event>
<event>
 7    1  0.5593520E-006  0.1339201E+03  0.7818608E-02  0.1310584E+00
          2   -1    0    0  502    0  0.00000000000E+00  0.00000000000E+00  0.26451484443E+04  0.26451484443E+04  0.00000000000E+00 0. -1.
          1   -1    0    0  501    0 -0.00000000000E+00 -0.00000000000E+00 -0.19988046585E+03  0.19988046585E+03  0.00000000000E+00 0. -1.
         25    2    1    2    0    0  0.38251688552E+02 -0.15251033413E+03 -0.10191561631E+03  0.22524557510E+03  0.12500473015E+03 0.  0.
          2    1    1    2  501    0 -0.52870825594E+02  0.19536826113E+02 -0.11565796792E+02  0.57539372859E+02  0.00000000000E+00 0. -1.
          1    1    1    2  502    0  0.14619137041E+02  0.13297350802E+03  0.25587493915E+04  0.25622439621E+04  0.00000000000E+00 0. -1.
         22    1    3    3    0    0 -0.39741529121E+02 -0.14840654629E+02 -0.17300035319E+02  0.45814030479E+02  0.00000000000E+00 0. -1.
         22    1    3    3    0    0  0.77993217674E+02 -0.13766967950E+03 -0.84615580991E+02  0.17943154462E+03  0.00000000000E+00 0. -1.
</event>
<event>
 7    1  0.5593520E-006  0.1321770E+03  0.7818608E-02  0.1313209E+00
          2   -1    0    0  502    0  0.00000000000E+00  0.00000000000E+00  0.57102968365E+03  0.57102968365E+03  0.00000000000E+00 0. -1.
          1   -1    0    0  501    0 -0.00000000000E+00 -0.00000000000E+00 -0.11903619246E+03  0.11903619246E+03  0.00000000000E+00 0. -1.
         25    2    1    2    0    0 -0.11319154286E+03 -0.22448709985E+02  0.11237383763E+03  0.20388036430E+03  0.12499221419E+03 0.  0.
          2    1    1    2  501    0  0.14007715399E+03 -0.26410855318E+02  0.53580171811E+00  0.14254623612E+03  0.00000000000E+00 0. -1.
          1    1    1    2  502    0 -0.26885611131E+02  0.48859565304E+02  0.33908385185E+03  0.34363927569E+03  0.00000000000E+00 0. -1.
         22    1    3    3    0    0 -0.12026487689E+03  0.74069752410E+01  0.42846529895E+02  0.12788404521E+03  0.00000000000E+00 0.  1.
         22    1    3    3    0    0  0.70733340257E+01 -0.29855685226E+02  0.69527307733E+02  0.75996319089E+02  0.00000000000E+00 0.  1.
</event>
<event>
 7    1  0.5593520E-006  0.5142674E+03  0.7818608E-02  0.1100101E+00
          2   -1    0    0  502    0  0.00000000000E+00  0.00000000000E+00  0.20455927704E+04  0.20455927704E+04  0.00000000000E+00 0. -1.
          1   -1    0    0  501    0 -0.00000000000E+00 -0.00000000000E+00 -0.11240295977E+04  0.11240295977E+04  0.00000000000E+00 0. -1.
         25    2    1    2    0    0 -0.18599273853E+03 -0.35954773626E+03  0.77604193173E+02  0.43071344217E+03  0.12499514003E+03 0.  0.
          2    1    1    2  501    0  0.24510085324E+03  0.49078825421E+03 -0.86478699984E+03  0.10241113679E+04  0.00000000000E+00 0. -1.
          1    1    1    2  502    0 -0.59108114711E+02 -0.13124051795E+03  0.17087459794E+04  0.17147975580E+04  0.00000000000E+00 0. -1.
         22    1    3    3    0    0 -0.36316463840E+02 -0.12080250953E+03 -0.29007592872E+02  0.12943559131E+03  0.00000000000E+00 0. -1.
         22    1    3    3    0    0 -0.14967627469E+03 -0.23874522673E+03  0.10661178604E+03  0.30127785085E+03  0.00000000000E+00 0. -1.
</event>
<event>
 7    1  0.5593520E-006  0.7187787E+02  0.7818608E-02  0.1398059E+00
          2   -1    0    0  502    0  0.00000000000E+00  0.00000000000E+00  0.34094988000E+03  0.34094988000E+03  0.00000000000E+00 0. -1.
          1   -1    0    0  501    0 -0.00000000000E+00 -0.00000000000E+00 -0.76504642518E+03  0.76504642518E+03  0.00000000000E+00 0. -1.
         25    2    1    2    0    0 -0.22478874608E+02 -0.27314414407E+02 -0.99959547525E+02  0.16390476592E+03  0.12498593565E+03 0.  0.
          2    1    1    2  501    0  0.19690995343E+02 -0.45953432107E+02 -0.62775662088E+03  0.62974425625E+03  0.00000000000E+00 0. -1.
          1    1    1    2  502    0  0.27878792650E+01  0.73267846513E+02  0.30361962322E+03  0.31234728302E+03  0.00000000000E+00 0. -1.
         22    1    3    3    0    0 -0.42549865525E+02 -0.44238354484E+01  0.14729423158E+02  0.45243975100E+02  0.00000000000E+00 0.  1.
         22    1    3    3    0    0  0.20070990916E+02 -0.22890578958E+02 -0.11468897068E+03  0.11866079082E+03  0.00000000000E+00 0.  1.
</event>
<event>
 7    1  0.5593520E-006  0.6899589E+02  0.7818608E-02  0.1370318E+00
          2   -1    0    0  502    0  0.00000000000E+00  0.00000000000E+00  0.73432277737E+02  0.73432277737E+02  0.00000000000E+00 0. -1.
          1   -1    0    0  501    0 -0.00000000000E+00 -0.00000000000E+00 -0.39344979906E+04  0.39344979906E+04  0.00000000000E+00 0. -1.
         25    2    1    2    0    0  0.39846344173E+02  0.96877472243E+02 -0.14550493690E+04  0.14641608220E+04  0.12500108264E+03 0.  0.
          2    1    1    2  501    0 -0.57691979814E+02 -0.30408315087E+02 -0.24571591680E+04  0.24580244521E+04  0.00000000000E+00 0. -1.
          1    1    1    2  502    0  0.17845635641E+02 -0.66469157156E+02  0.51142824193E+02  0.85744994203E+02  0.00000000000E+00 0. -1.
         22    1    3    3    0    0 -0.89538586746E+01 -0.21766162407E+02 -0.87590278597E+02  0.90697267411E+02  0.00000000000E+00 0. -1.
         22    1    3    3    0    0  0.48800202848E+02  0.11864363465E+03 -0.13674590904E+04  0.13734635546E+04  0.00000000000E+00 0. -1.
</event>
<event>
 7    1  0.5593520E-006  0.3817094E+02  0.7818608E-02  0.1549448E+00
          2   -1    0    0  502    0  0.00000000000E+00  0.00000000000E+00  0.10927165835E+04  0.10927165835E+04  0.00000000000E+00 0. -1.
          1   -1    0    0  501    0 -0.00000000000E+00 -0.00000000000E+00 -0.44984813510E+02  0.44984813510E+02  0.00000000000E+00 0. -1.
         25    2    1    2    0    0 -0.20747174109E+01 -0.13695399320E+02  0.49169962925E+03  0.50752829513E+03  0.12499830615E+03 0.  0.
          2    1    1    2  501    0  0.24931122793E+02 -0.19929938495E+02 -0.29361695645E+02  0.43369027004E+02  0.00000000000E+00 0. -1.
          1    1    1    2  502    0 -0.22856405382E+02  0.33625337815E+02  0.58539383640E+03  0.58680407488E+03  0.00000000000E+00 0. -1.
         22    1    3    3    0    0 -0.42329936130E+02 -0.53962671400E+02  0.28421568411E+03  0.29237364535E+03  0.00000000000E+00 0. -1.
         22    1    3    3    0    0  0.40255218720E+02  0.40267272081E+02  0.20748394513E+03  0.21515464978E+03  0.00000000000E+00 0. -1.
</event>
<event>
 7    1  0.5593520E-006  0.5255897E+02  0.7818608E-02  0.1568336E+00
          2   -1    0    0  502    0  0.00000000000E+00  0.00000000000E+00  0.14102443297E+03  0.14102443297E+03  0.00000000000E+00 0. -1.
          1   -1    0    0  501    0 -0.00000000000E+00 -0.00000000000E+00 -0.65259083333E+03  0.65259083333E+03  0.00000000000E+00 0. -1.
         25    2    1    2    0    0 -0.12903958684E+02 -0.38417744385E+02 -0.16111619665E+03  0.20790871715E+03  0.12500068244E+03 0.  0.
          2    1    1    2  501    0  0.33153825842E+02  0.41982763647E+02 -0.46563657735E+03  0.46869942477E+03  0.00000000000E+00 0. -1.
          1    1    1    2  502    0 -0.20249867158E+02 -0.35650192620E+01  0.11518637364E+03  0.11700712438E+03  0.00000000000E+00 0. -1.
         22    1    3    3    0    0  0.33480001107E+02 -0.68292798056E+02 -0.88036058100E+02  0.11634072488E+03  0.00000000000E+00 0. -1.
         22    1    3    3    0    0 -0.46383959791E+02  0.29875053671E+02 -0.73080138553E+02  0.91567992271E+02  0.00000000000E+00 0. -1.
</event>
<event>
 7    1  0.5593520E-006  0.3339381E+02  0.7818608E-02  0.1633177E+00
          2   -1    0    0  502    0  0.00000000000E+00  0.00000000000E+00  0.23303071836E+03  0.23303071836E+03  0.00000000000E+00 0. -1.
          1   -1    0    0  501    0 -0.00000000000E+00 -0.00000000000E+00 -0.23800071077E+03  0.23800071077E+03  0.00000000000E+00 0. -1.
         25    2    1    2    0    0 -0.56412597685E+01 -0.13191554831E+02 -0.42117801611E+02  0.13269791802E+03  0.12501594820E+03 0.  0.
          2    1    1    2  501    0  0.77562426842E+01 -0.20494489947E+02 -0.14826399687E+03  0.14987460154E+03  0.00000000000E+00 0. -1.
          1    1    1    2  502    0 -0.21149829157E+01  0.33686044778E+02  0.18541180607E+03  0.18845890957E+03  0.00000000000E+00 0. -1.
         22    1    3    3    0    0 -0.26839342695E+02 -0.60011816617E+02 -0.47378522603E+02  0.81033899412E+02  0.00000000000E+00 0.  1.
         22    1    3    3    0    0  0.21198082926E+02  0.46820261786E+02  0.52607209919E+01  0.51664018608E+02  0.00000000000E+00 0.  1.
</event>
<event>
 7    1  0.5593520E-006  0.1527809E+03  0.7818608E-02  0.1308571E+00
          2   -1    0    0  502    0  0.00000000000E+00  0.00000000000E+00  0.55489149402E+03  0.55489149402E+03  0.00000000000E+00 0. -1.
          1   -1    0    0  501    0 -0.00000000000E+00 -0.00000000000E+00 -0.93867679075E+03  0.93867679075E+03  0.00000000000E+00 0. -1.
         25    2    1    2    0    0  0.15947624606E+03  0.11901205551E+03  0.30099218763E+03  0.38186338575E+03  0.12500722357E+03 0.  0.
          2    1    1    2  501    0 -0.11182593372E+03 -0.10284456292E+03 -0.88873737582E+03  0.90162972818E+03  0.00000000000E+00 0. -1.
          1    1    1    2  502    0 -0.47650312340E+02 -0.16167492592E+02  0.20395989145E+03  0.21007517084E+03  0.00000000000E+00 0. -1.
         22    1    3    3    0    0  0.55548754616E+02  0.11552714852E+03  0.13646302911E+03  0.18722805478E+03  0.00000000000E+00 0.  1.
         22    1    3    3    0    0  0.10392749144E+03  0.34849069892E+01  0.16452915853E+03  0.19463533097E+03  0.00000000000E+00 0.  1.
</event>
<event>
 7    1  0.5593520E-006  0.4959091E+02  0.7818608E-02  0.1450134E+00
          2   -1    0    0  502    0  0.00000000000E+00  0.00000000000E+00  0.53774753320E+03  0.53774753320E+03  0.00000000000E+00 0. -1.
          1   -1    0    0  501    0 -0.00000000000E+00 -0.00000000000E+00 -0.38298494742E+03  0.38298494742E+03  0.00000000000E+00 0. -1.
         25    2    1    2    0    0 -0.10650578760E+02  0.27940181342E+02  0.24049709286E+02  0.13075827154E+03  0.12500099399E+03 0.  0.
          2    1    1    2  501    0  0.49531397738E+02  0.28419556105E+01 -0.32641521077E+03  0.33016408935E+03  0.00000000000E+00 0. -1.
          1    1    1    2  502    0 -0.38880818978E+02 -0.30782136952E+02  0.45712808727E+03  0.45981011973E+03  0.00000000000E+00 0. -1.
         22    1    3    3    0    0 -0.35997639233E+02  0.47333235401E+01  0.66726376624E+02  0.75964753139E+02  0.00000000000E+00 0.  1.
         22    1    3    3    0    0  0.25347060473E+02  0.23206857801E+02 -0.42676667338E+02  0.54793518401E+02  0.00000000000E+00 0.  1.
</event>
<event>
 7    1  0.5593520E-006  0.3671363E+02  0.7818608E-02  0.1593715E+00
          2   -1    0    0  502    0  0.00000000000E+00  0.00000000000E+00  0.12136114509E+04  0.12136114509E+04  0.00000000000E+00 0. -1.
          1   -1    0    0  501    0 -0.00000000000E+00 -0.00000000000E+00 -0.12354084428E+04  0.12354084428E+04  0.00000000000E+00 0. -1.
         25    2    1    2    0    0  0.13832252134E+01 -0.18042200306E+02 -0.61415900404E+02  0.14044923320E+03  0.12500655975E+03 0.  0.
          2    1    1    2  501    0  0.23487537734E+02 -0.90511727651E+01 -0.11340481746E+04  0.11343274882E+04  0.00000000000E+00 0. -1.
          1    1    1    2  502    0 -0.24870762947E+02  0.27093373071E+02  0.11736670831E+04  0.11742431723E+04  0.00000000000E+00 0. -1.
         22    1    3    3    0    0 -0.44869038294E+02  0.34036509435E+02 -0.22361910370E+02  0.60595128578E+02  0.00000000000E+00 0.  1.
         22    1    3    3    0    0  0.46252263508E+02 -0.52078709741E+02 -0.39053990035E+02  0.79854104625E+02  0.00000000000E+00 0.  1.
</event>
<event>
 7    1  0.5593520E-006  0.1255499E+03  0.7818608E-02  0.1291424E+00
          2   -1    0    0  502    0  0.00000000000E+00  0.00000000000E+00  0.32900451887E+04  0.32900451887E+04  0.00000000000E+00 0. -1.
          1   -1    0    0  501    0 -0.00000000000E+00 -0.00000000000E+00 -0.82575873889E+02  0.82575873889E+02  0.00000000000E+00 0. -1.
         25    2    1    2    0    0  0.34050698304E+02  0.50457631390E+02  0.75528486876E+03  0.76797517175E+03  0.12500083526E+03 0.  0.
          2    1    1    2  501    0 -0.92745807274E+02 -0.91668225283E+02 -0.19559798728E+02  0.13186141975E+03  0.00000000000E+00 0. -1.
          1    1    1    2  502    0  0.58695108969E+02  0.41210593892E+02  0.24717442448E+04  0.24727844711E+04  0.00000000000E+00 0. -1.
         22    1    3    3    0    0 -0.29710353528E+02 -0.10513811866E+02  0.42319428709E+03  0.42436617440E+03  0.00000000000E+00 0. -1.
         22    1    3    3    0    0  0.63761051832E+02  0.60971443256E+02  0.33209058167E+03  0.34360899735E+03  0.00000000000E+00 0. -1.
</event>
<event>
 7    1  0.5593520E-006  0.1152228E+03  0.7818608E-02  0.1369513E+00
          2   -1    0    0  502    0  0.00000000000E+00  0.00000000000E+00  0.28606360956E+03  0.28606360956E+03  0.00000000000E+00 0. -1.
          1   -1    0    0  501    0 -0.00000000000E+00 -0.00000000000E+00 -0.29102844639E+04  0.29102844639E+04  0.00000000000E+00 0. -1.
         25    2    1    2    0    0  0.21400647018E+02 -0.14090231291E+03 -0.69394579719E+03  0.71937254827E+03  0.12499857714E+03 0.  0.
          2    1    1    2  501    0 -0.29172115114E+02  0.26352150298E+02 -0.21913851295E+04  0.21917377202E+04  0.00000000000E+00 0. -1.
          1    1    1    2  502    0  0.77714680965E+01  0.11455016261E+03  0.26111007241E+03  0.28523780498E+03  0.00000000000E+00 0. -1.
         22    1    3    3    0    0  0.59773022023E+02 -0.13764171313E+03 -0.57986415222E+03  0.59896618468E+03  0.00000000000E+00 0. -1.
         22    1    3    3    0    0 -0.38372375005E+02 -0.32605997826E+01 -0.11408164497E+03  0.12040636359E+03  0.00000000000E+00 0. -1.
</event>
<event>
 7    1  0.5593520E-006  0.1279284E+03  0.7818608E-02  0.1347880E+00
          2   -1    0    0  502    0  0.00000000000E+00  0.00000000000E+00  0.22859146810E+04  0.22859146810E+04  0.00000000000E+00 0. -1.
          1   -1    0    0  501    0 -0.00000000000E+00 -0.00000000000E+00 -0.14958402391E+04  0.14958402391E+04  0.00000000000E+00 0. -1.
         25    2    1    2    0    0 -0.12057912801E+03  0.11763890674E+03  0.17415829395E+03  0.27264349993E+03  0.12500051284E+03 0.  0.
          2    1    1    2  501    0  0.84274618789E+02 -0.95576847286E+02 -0.14435720646E+04  0.14491850988E+04  0.00000000000E+00 0. -1.
          1    1    1    2  502    0  0.36304509225E+02 -0.22062059457E+02  0.20594882125E+04  0.20599263213E+04  0.00000000000E+00 0. -1.
         22    1    3    3    0    0 -0.16184496367E+02  0.26985529578E+02  0.12015925584E+03  0.12421112467E+03  0.00000000000E+00 0. -1.
         22    1    3    3    0    0 -0.10439463165E+03  0.90653377164E+02  0.53999038116E+02  0.14843237526E+03  0.00000000000E+00 0. -1.
</event>
<event>
 7    1  0.5593520E-006  0.5918128E+02  0.7818608E-02  0.1426994E+00
          2   -1    0    0  502    0  0.00000000000E+00  0.00000000000E+00  0.11297700799E+04  0.11297700799E+04  0.00000000000E+00 0. -1.
          1   -1    0    0  501    0 -0.00000000000E+00 -0.00000000000E+00 -0.97171684340E+02  0.97171684340E+02  0.00000000000E+00 0. -1.
         25    2    1    2    0    0 -0.49903800544E+02  0.89275161748E+02  0.52882279540E+03  0.55293664577E+03  0.12499976595E+03 0.  0.
          2    1    1    2  501    0  0.17601992704E+02 -0.45179540904E+02 -0.76819872965E+02  0.90842247583E+02  0.00000000000E+00 0. -1.
          1    1    1    2  502    0  0.32301807840E+02 -0.44095620843E+02  0.58059547312E+03  0.58316287088E+03  0.00000000000E+00 0. -1.
         22    1    3    3    0    0 -0.44943655976E+02  0.68527159318E+02  0.52488450980E+03  0.53124349634E+03  0.00000000000E+00 0. -1.
         22    1    3    3    0    0 -0.49601445673E+01  0.20748002430E+02  0.39382856079E+01  0.21693149436E+02  0.00000000000E+00 0. -1.
</event>
<event>
 7    1  0.5593520E-006  0.1200346E+03  0.7818608E-02  0.1443302E+00
          2   -1    0    0  502    0  0.00000000000E+00  0.00000000000E+00  0.44550113614E+03  0.44550113614E+03  0.00000000000E+00 0. -1.
          1   -1    0    0  501    0 -0.00000000000E+00 -0.00000000000E+00 -0.10654925333E+03  0.10654925333E+03  0.00000000000E+00 0. -1.
         25    2    1    2    0    0 -0.48590522592E+02 -0.11069711003E+03  0.14455825668E+03  0.22613290209E+03  0.12499644307E+03 0.  0.
          2    1    1    2  501    0  0.28349741366E+02  0.11681495035E+03 -0.98253699281E+01  0.12060670942E+03  0.00000000000E+00 0. -1.
          1    1    1    2  502    0  0.20240781225E+02 -0.61178403195E+01  0.20421899606E+03  0.20531077796E+03  0.00000000000E+00 0. -1.
         22    1    3    3    0    0  0.42132919712E+02 -0.43956864939E+02  0.57930046665E+02  0.84043317434E+02  0.00000000000E+00 0.  1.
         22    1    3    3    0    0 -0.90723442304E+02 -0.66740245096E+02  0.86628210014E+02  0.14208958466E+03  0.00000000000E+00 0.  1.
</event>
<event>
 7    1  0.5593520E-006  0.9192420E+02  0.7818608E-02  0.1332952E+00
          2   -1    0    0  502    0  0.00000000000E+00  0.00000000000E+00  0.88776616150E+02  0.88776616150E+02  0.00000000000E+00 0. -1.
          1   -1    0    0  501    0 -0.00000000000E+00 -0.00000000000E+00 -0.15142237494E+04  0.15142237494E+04  0.00000000000E+00 0. -1.
         25    2    1    2    0    0 -0.24207648235E+02  0.65228886525E+02 -0.84550510900E+02  0.16617634296E+03  0.12499988078E+03 0.  0.
          2    1    1    2  501    0 -0.66953586948E+02 -0.65951084167E+01 -0.13256631649E+04  0.13273692421E+04  0.00000000000E+00 0. -1.
          1    1    1    2  502    0  0.91161235183E+02 -0.58633778108E+02 -0.15233457463E+02  0.10945478044E+03  0.00000000000E+00 0. -1.
         22    1    3    3    0    0  0.28551204227E+01  0.58908557507E+02 -0.11233658416E+03  0.12687741328E+03  0.00000000000E+00 0. -1.
         22    1    3    3    0    0 -0.27062768658E+02  0.63203290176E+01  0.27786073264E+02  0.39298929676E+02  0.00000000000E+00 0. -1.
</event>
<event>
 7    1  0.5593520E-006  0.3653220E+02  0.7818608E-02  0.1561973E+00
          2   -1    0    0  502    0  0.00000000000E+00  0.00000000000E+00  0.64543971955E+02  0.64543971955E+02  0.00000000000E+00 0. -1.
          1   -1    0    0  501    0 -0.00000000000E+00 -0.00000000000E+00 -0.23021836522E+04  0.23021836522E+04  0.00000000000E+00 0. -1.
         25    2    1    2    0    0 -0.38883780898E+02  0.45379230399E+02 -0.22773377883E+02  0.14040885605E+03  0.12499918859E+03 0.  0.
          2    1    1    2  501    0  0.98483227710E+01 -0.35132011129E+02 -0.21779137171E+04  0.21782193202E+04  0.00000000000E+00 0. -1.
          1    1    1    2  502    0  0.29035458127E+02 -0.10247219270E+02 -0.36952585196E+02  0.48099447856E+02  0.00000000000E+00 0. -1.
         22    1    3    3    0    0 -0.75791101075E+02  0.48671919037E+01  0.99238434797E+01  0.76592840583E+02  0.00000000000E+00 0.  1.
         22    1    3    3    0    0  0.36907320177E+02  0.40512038495E+02 -0.32697221362E+02  0.63816015470E+02  0.00000000000E+00 0.  1.
</event>
<event>
 7    1  0.7123765E-006  0.9973744E+02  0.7818608E-02  0.1331009E+00
          2   -1    0    0  502    0  0.00000000000E+00  0.00000000000E+00  0.19063656789E+04  0.19063656789E+04  0.00000000000E+00 0. -1.
          1   -1    0    0  501    0 -0.00000000000E+00 -0.00000000000E+00 -0.13365181778E+04  0.13365181778E+04  0.00000000000E+00 0. -1.
         25    2    1    2    0    0  0.12911442322E+03 -0.77613680421E+02 -0.96758048836E+02  0.21836258439E+03  0.12500272227E+03 0.  0.
          2    1    1    2  501    0 -0.66247514970E+02  0.72520881193E+02 -0.11763715643E+04  0.11804651917E+04  0.00000000000E+00 0. -1.
          1    1    1    2  502    0 -0.62866908251E+02  0.50927992282E+01  0.18429771143E+04  0.18440560806E+04  0.00000000000E+00 0. -1.
         22    1    3    3    0    0  0.12366320864E+03 -0.29851062295E+02 -0.11034861262E+03  0.16840573446E+03  0.00000000000E+00 0. -1.
         22    1    3    3    0    0  0.54512145778E+01 -0.47762618127E+02  0.13590563784E+02  0.49956849927E+02  0.00000000000E+00 0. -1.
</event>
<event>
 7    1  0.5593520E-006  0.1044735E+03  0.7818608E-02  0.1460934E+00
          2   -1    0    0  502    0  0.00000000000E+00  0.00000000000E+00  0.34792901139E+03  0.34792901139E+03  0.00000000000E+00 0. -1.
          1   -1    0    0  501    0 -0.00000000000E+00 -0.00000000000E+00 -0.63147288896E+03  0.63147288896E+03  0.00000000000E+00 0. -1.
         25    2    1    2    0    0 -0.20642963905E+02 -0.11557782330E+03  0.10315377547E+03  0.20012577945E+03  0.12500104404E+03 0.  0.
          2    1    1    2  501    0  0.26597111365E+01  0.10408239965E+03 -0.57773929339E+03  0.58704591908E+03  0.00000000000E+00 0. -1.
          1    1    1    2  502    0  0.17983252769E+02  0.11495423653E+02  0.19104164035E+03  0.19223020182E+03  0.00000000000E+00 0. -1.
         22    1    3    3    0    0  0.32172962834E+01 -0.14526827495E+01 -0.25937325154E+02  0.26176442056E+02  0.00000000000E+00 0. -1.
         22    1    3    3    0    0 -0.23860260189E+02 -0.11412514055E+03  0.12909110062E+03  0.17394933740E+03  0.00000000000E+00 0. -1.
</event>
<event>
 7    1  0.5593520E-006  0.8181964E+02  0.7818608E-02  0.1330278E+00
          2   -1    0    0  502    0  0.00000000000E+00  0.00000000000E+00  0.76929606786E+03  0.76929606786E+03  0.00000000000E+00 0. -1.
          1   -1    0    0  501    0 -0.00000000000E+00 -0.00000000000E+00 -0.39498151114E+03  0.39498151114E+03  0.00000000000E+00 0. -1.
         25    2    1    2    0    0 -0.52120607422E+02 -0.92374375577E+02  0.30248800642E+02  0.16669435113E+03  0.12498973469E+03 0.  0.
          2    1    1    2  501    0 -0.27490738260E+02  0.72332838230E+02 -0.31961270460E+03  0.32884656166E+03  0.00000000000E+00 0. -1.
          1    1    1    2  502    0  0.79611345681E+02  0.20041537347E+02  0.66367846067E+03  0.66873666621E+03  0.00000000000E+00 0. -1.
         22    1    3    3    0    0  0.17714796074E+02  0.99070501804E+01  0.37492695829E+02  0.42634092974E+02  0.00000000000E+00 0.  1.
         22    1    3    3    0    0 -0.69835403496E+02 -0.10228142576E+03 -0.72438951869E+01  0.12406025816E+03  0.00000000000E+00 0.  1.
</event>
<event>
 7    1  0.5593520E-006  0.4645619E+02  0.7818608E-02  0.1576311E+00
          2   -1    0    0  502    0  0.00000000000E+00  0.00000000000E+00  0.37880596132E+02  0.37880596132E+02  0.00000000000E+00 0. -1.
          1   -1    0    0  501    0 -0.00000000000E+00 -0.00000000000E+00 -0.76238656210E+03  0.76238656210E+03  0.00000000000E+00 0. -1.
         25    2    1    2    0    0 -0.49015421468E+02  0.37258762401E+02 -0.27681247092E+03  0.30990467762E+03  0.12500015294E+03 0.  0.
          2    1    1    2  501    0  0.26886037208E+02 -0.36819774392E+02 -0.46184605926E+03  0.46409087175E+03  0.00000000000E+00 0. -1.
          1    1    1    2  502    0  0.22129384260E+02 -0.43898800848E+00  0.14152564220E+02  0.26271608862E+02  0.00000000000E+00 0. -1.
         22    1    3    3    0    0  0.25370374534E+02 -0.28371552290E+02 -0.10255369206E+03  0.10938857637E+03  0.00000000000E+00 0. -1.
         22    1    3    3    0    0 -0.74385796003E+02  0.65630314690E+02 -0.17425877886E+03  0.20051610126E+03  0.00000000000E+00 0. -1.
</event>
<event>
 7    1  0.5593520E-006  0.5536480E+02  0.7818608E-02  0.1443439E+00
          2   -1    0    0  502    0  0.00000000000E+00  0.00000000000E+00  0.40486369372E+03  0.40486369372E+03  0.00000000000E+00 0. -1.
          1   -1    0    0  501    0 -0.00000000000E+00 -0.00000000000E+00 -0.98788088808E+02  0.98788088808E+02  0.00000000000E+00 0. -1.
         25    2    1    2    0    0  0.90687503882E+02 -0.32616689968E+02  0.18770744994E+03  0.24524877324E+03  0.12499920875E+03 0.  0.
          2    1    1    2  501    0 -0.53056594212E+02  0.65143621537E+01 -0.56415809947E+02  0.77718612415E+02  0.00000000000E+00 0. -1.
          1    1    1    2  502    0 -0.37630909670E+02  0.26102327815E+02  0.17478396493E+03  0.18068439688E+03  0.00000000000E+00 0. -1.
         22    1    3    3    0    0  0.10351750884E+03  0.96032294244E+01  0.16649826829E+03  0.19629001502E+03  0.00000000000E+00 0.  1.
         22    1    3    3    0    0 -0.12830004953E+02 -0.42219919393E+02  0.21209181642E+02  0.48958758221E+02  0.00000000000E+00 0.  1.
</event>
<event>
 7    1  0.5593520E-006  0.5087342E+02  0.7818608E-02  0.1458409E+00
          2   -1    0    0  502    0  0.00000000000E+00  0.00000000000E+00  0.16801269768E+04  0.16801269768E+04  0.00000000000E+00 0. -1.
          1   -1    0    0  501    0 -0.00000000000E+00 -0.00000000000E+00 -0.13775122939E+03  0.13775122939E+03  0.00000000000E+00 0. -1.
         25    2    1    2    0    0  0.35543691998E+02 -0.14159655162E+02  0.13998004083E+02  0.13147182612E+03  0.12500018828E+03 0.  0.
          2    1    1    2  501    0  0.57204878803E+01  0.44274476064E+02 -0.72268472435E+02  0.84945190096E+02  0.00000000000E+00 0. -1.
          1    1    1    2  502    0 -0.41264179878E+02 -0.30114820902E+02  0.16006462158E+04  0.16014611900E+04  0.00000000000E+00 0. -1.
         22    1    3    3    0    0  0.80362623959E+02 -0.17212144241E+02  0.23657198603E+02  0.85522349621E+02  0.00000000000E+00 0.  1.
         22    1    3    3    0    0 -0.44818931961E+02  0.30524890789E+01 -0.96591945203E+01  0.45949476499E+02  0.00000000000E+00 0.  1.
</event>
<event>
 7    1  0.5593520E-006  0.1921077E+03  0.7818608E-02  0.1205980E+00
          2   -1    0    0  502    0  0.00000000000E+00  0.00000000000E+00  0.12458815342E+04  0.12458815342E+04  0.00000000000E+00 0. -1.
          1   -1    0    0  501    0 -0.00000000000E+00 -0.00000000000E+00 -0.68265368243E+03  0.68265368243E+03  0.00000000000E+00 0. -1.
         25    2    1    2    0    0 -0.12167254258E+03  0.26696265780E+02  0.12407219662E+03  0.21573615866E+03  0.12502512529E+03 0.  0.
          2    1    1    2  501    0 -0.82685249934E+02 -0.73090194734E+02 -0.62171262404E+03  0.63143140088E+03  0.00000000000E+00 0. -1.
          1    1    1    2  502    0  0.20435779252E+03  0.46393928954E+02  0.10608682792E+04  0.10813676571E+04  0.00000000000E+00 0. -1.
         22    1    3    3    0    0  0.13224493921E+02 -0.14671736433E+01  0.64065267490E+02  0.65432395161E+02  0.00000000000E+00 0.  1.
         22    1    3    3    0    0 -0.13489703650E+03  0.28163439423E+02  0.60006929135E+02  0.15030376350E+03  0.00000000000E+00 0.  1.
</event>
<event>
 7    1  0.5593520E-006  0.1411083E+03  0.7818608E-02  0.1302408E+00
          2   -1    0    0  502    0  0.00000000000E+00  0.00000000000E+00  0.12049971824E+03  0.12049971824E+03  0.00000000000E+00 0. -1.
          1   -1    0    0  501    0 -0.00000000000E+00 -0.00000000000E+00 -0.42381670482E+03  0.42381670482E+03  0.00000000000E+00 0. -1.
         25    2    1    2    0    0  0.11663077760E+03 -0.17955611347E+02 -0.11911197968E+03  0.20913632510E+03  0.12500078604E+03 0.  0.
          2    1    1    2  501    0  0.36519278581E+02  0.44591164224E+02 -0.16950658598E+03  0.17903773995E+03  0.00000000000E+00 0. -1.
          1    1    1    2  502    0 -0.15315005618E+03 -0.26635552877E+02 -0.14698420921E+02  0.15614235801E+03  0.00000000000E+00 0. -1.
         22    1    3    3    0    0  0.80526906006E+02  0.18870362469E+02 -0.13218996722E+03  0.15593223081E+03  0.00000000000E+00 0.  1.
         22    1    3    3    0    0  0.36103871596E+02 -0.36825973816E+02  0.13077987542E+02  0.53204094296E+02  0.00000000000E+00 0.  1.
</event>
<event>
 7    1  0.5593520E-006  0.6772236E+02  0.7818608E-02  0.1427626E+00
          2   -1    0    0  502    0  0.00000000000E+00  0.00000000000E+00  0.16507526897E+04  0.16507526897E+04  0.00000000000E+00 0. -1.
          1   -1    0    0  501    0 -0.00000000000E+00 -0.00000000000E+00 -0.14434168144E+04  0.14434168144E+04  0.00000000000E+00 0. -1.
         25    2    1    2    0    0  0.64152166866E+02  0.14190312752E+02 -0.14219044675E+02  0.14193090229E+03  0.12500133720E+03 0.  0.
          2    1    1    2  501    0 -0.22983307165E+01 -0.42106266446E+02 -0.13642904154E+04  0.13649419612E+04  0.00000000000E+00 0. -1.
          1    1    1    2  502    0 -0.61853836150E+02  0.27915953695E+02  0.15858453354E+04  0.15872966406E+04  0.00000000000E+00 0. -1.
         22    1    3    3    0    0  0.74953284384E+02 -0.36854340532E+02  0.10527662714E+02  0.84184731027E+02  0.00000000000E+00 0.  1.
         22    1    3    3    0    0 -0.10801117518E+02  0.51044653283E+02 -0.24746707389E+02  0.57746171259E+02  0.00000000000E+00 0.  1.
</event>
<event>
 7    1  0.5934307E-006  0.6755880E+02  0.7818608E-02  0.1385286E+00
          2   -1    0    0  502    0  0.00000000000E+00  0.00000000000E+00  0.21146128630E+04  0.21146128630E+04  0.00000000000E+00 0. -1.
          1   -1    0    0  501    0 -0.00000000000E+00 -0.00000000000E+00 -0.26413377495E+03  0.26413377495E+03  0.00000000000E+00 0. -1.
         25    2    1    2    0    0 -0.24582945875E+02 -0.74629116444E+02 -0.37023325177E+02  0.15221714996E+03  0.12500203153E+03 0.  0.
          2    1    1    2  501    0 -0.36733299870E+02  0.46074557744E+02 -0.16381839088E+03  0.17409384073E+03  0.00000000000E+00 0. -1.
          1    1    1    2  502    0  0.61316245745E+02  0.28554558700E+02  0.20513208041E+04  0.20524356472E+04  0.00000000000E+00 0. -1.
         22    1    3    3    0    0 -0.58848514337E+02 -0.90222819324E+02 -0.38889983750E+02  0.11452395209E+03  0.00000000000E+00 0.  1.
         22    1    3    3    0    0  0.34265568462E+02  0.15593702879E+02  0.18666585729E+01  0.37693197871E+02  0.00000000000E+00 0.  1.
</event>
<event>
 7    1  0.5593520E-006  0.1962737E+03  0.7818608E-02  0.1232487E+00
          2   -1    0    0  502    0  0.00000000000E+00  0.00000000000E+00  0.19788860030E+04  0.19788860030E+04  0.00000000000E+00 0. -1.
          1   -1    0    0  501    0 -0.00000000000E+00 -0.00000000000E+00 -0.17712455625E+04  0.17712455625E+04  0.00000000000E+00 0. -1.
         25    2    1    2    0    0  0.21807806032E+02 -0.26325970655E+03 -0.16694245621E+03  0.33656537450E+03  0.12500085650E+03 0.  0.
          2    1    1    2  501    0 -0.47566620004E+02  0.18567850899E+03 -0.15125586559E+04  0.15246549707E+04  0.00000000000E+00 0. -1.
          1    1    1    2  502    0  0.25758813973E+02  0.77581197568E+02  0.18871415526E+04  0.18889112203E+04  0.00000000000E+00 0. -1.
         22    1    3    3    0    0  0.28645546380E+02 -0.27564594130E+03 -0.16429690651E+03  0.32217188855E+03  0.00000000000E+00 0. -1.
         22    1    3    3    0    0 -0.68377403484E+01  0.12386234750E+02 -0.26455496965E+01  0.14393485942E+02  0.00000000000E+00 0. -1.
</event>
<event>
 7    1  0.5593520E-006  0.2765851E+03  0.7818608E-02  0.1233296E+00
          2   -1    0    0  502    0  0.00000000000E+00  0.00000000000E+00  0.12616760375E+04  0.12616760375E+04  0.00000000000E+00 0. -1.
          1   -1    0    0  501    0 -0.00000000000E+00 -0.00000000000E+00 -0.95009400404E+03  0.95009400404E+03  0.00000000000E+00 0. -1.
         25    2    1    2    0    0 -0.19139027765E+03  0.16365948679E+03 -0.40440462847E+03  0.49252636905E+03  0.12499781875E+03 0.  0.
          2    1    1    2  501    0  0.24796885256E+03 -0.17407516455E+03 -0.45511156551E+03  0.54673325472E+03  0.00000000000E+00 0. -1.
          1    1    1    2  502    0 -0.56578574907E+02  0.10415677753E+02  0.11710982274E+04  0.11725104178E+04  0.00000000000E+00 0. -1.
         22    1    3    3    0    0  0.17556263885E+02  0.96804794406E+01 -0.44351681421E+02  0.48672432944E+02  0.00000000000E+00 0. -1.
         22    1    3    3    0    0 -0.20894654153E+03  0.15397900735E+03 -0.36005294705E+03  0.44385393611E+03  0.00000000000E+00 0. -1.
</event>
<event>
 7    1  0.5593520E-006  0.6484772E+02  0.7818608E-02  0.1455256E+00
          2   -1    0    0  502    0  0.00000000000E+00  0.00000000000E+00  0.52220780965E+03  0.52220780965E+03  0.00000000000E+00 0. -1.
          1   -1    0    0  501    0 -0.00000000000E+00 -0.00000000000E+00 -0.45337395954E+04  0.45337395954E+04  0.00000000000E+00 0. -1.
         25    2    1    2    0    0 -0.11027171163E+02 -0.65021213805E+02  0.13353472439E+03  0.19443667457E+03  0.12499896420E+03 0.  0.
          2    1    1    2  501    0  0.42903151235E+02  0.48643274240E+02 -0.45021581339E+04  0.45026253132E+04  0.00000000000E+00 0. -1.
          1    1    1    2  502    0 -0.31875980072E+02  0.16377939566E+02  0.35709162373E+03  0.35888541730E+03  0.00000000000E+00 0. -1.
         22    1    3    3    0    0 -0.18854960361E+02  0.20730632472E+02  0.96879841013E+02  0.10085123821E+03  0.00000000000E+00 0. -1.
         22    1    3    3    0    0  0.78277891984E+01 -0.85751846278E+02  0.36654883379E+02  0.93585436363E+02  0.00000000000E+00 0. -1.
</event>
<event>
 7    1  0.5593520E-006  0.1197666E+03  0.7818608E-02  0.1342824E+00
          2   -1    0    0  502    0  0.00000000000E+00  0.00000000000E+00  0.25633778450E+04  0.25633778450E+04  0.00000000000E+00 0. -1.
          1   -1    0    0  501    0 -0.00000000000E+00 -0.00000000000E+00 -0.23929318433E+04  0.23929318433E+04  0.00000000000E+00 0. -1.
         25    2    1    2    0    0 -0.99219507399E+01  0.12324423944E+03 -0.15876752580E+04  0.15973787314E+04  0.12497399245E+03 0.  0.
          2    1    1    2  501    0  0.54631508770E+02 -0.10752621163E+03 -0.79564026916E+03  0.80472972223E+03  0.00000000000E+00 0. -1.
          1    1    1    2  502    0 -0.44709558031E+02 -0.15718027808E+02  0.25537615289E+04  0.25542012347E+04  0.00000000000E+00 0. -1.
         22    1    3    3    0    0  0.54460760072E+02  0.84767971569E+02 -0.92746089419E+03  0.93291762425E+03  0.00000000000E+00 0.  1.
         22    1    3    3    0    0 -0.64382710812E+02  0.38476267867E+02 -0.66021436384E+03  0.66446110711E+03  0.00000000000E+00 0.  1.
</event>
<event>
 7    1  0.5593520E-006  0.1026749E+03  0.7818608E-02  0.1398829E+00
          2   -1    0    0  502    0  0.00000000000E+00  0.00000000000E+00  0.25955392092E+04  0.25955392092E+04  0.00000000000E+00 0. -1.
          1   -1    0    0  501    0 -0.00000000000E+00 -0.00000000000E+00 -0.64887691044E+03  0.64887691044E+03  0.00000000000E+00 0. -1.
         25    2    1    2    0    0 -0.45677127046E+02 -0.59429950756E+02  0.53187035734E+03  0.55147909811E+03  0.12499919862E+03 0.  0.
          2    1    1    2  501    0  0.41857121002E+02  0.94005132706E+02 -0.63478167325E+03  0.64306823607E+03  0.00000000000E+00 0. -1.
          1    1    1    2  502    0  0.38200060442E+01 -0.34575181950E+02  0.20495736147E+04  0.20498687855E+04  0.00000000000E+00 0. -1.
         22    1    3    3    0    0 -0.22267437684E+02 -0.31442246775E+02  0.50424178296E+03  0.50571160689E+03  0.00000000000E+00 0.  1.
         22    1    3    3    0    0 -0.23409689361E+02 -0.27987703981E+02  0.27628574379E+02  0.45767491218E+02  0.00000000000E+00 0.  1.
</event>
<event>
 7    1  0.5593520E-006  0.1001915E+03  0.7818608E-02  0.1345670E+00
          2   -1    0    0  502    0  0.00000000000E+00  0.00000000000E+00  0.12624490310E+04  0.12624490310E+04  0.00000000000E+00 0. -1.
          1   -1    0    0  501    0 -0.00000000000E+00 -0.00000000000E+00 -0.35999809666E+03  0.35999809666E+03  0.00000000000E+00 0. -1.
         25    2    1    2    0    0 -0.10338385710E+01  0.13091748740E+03  0.47804533116E+03  0.51116775604E+03  0.12499871534E+03 0.  0.
          2    1    1    2  501    0 -0.35694027646E+02 -0.42212274563E+02 -0.33818277039E+03  0.34267116295E+03  0.00000000000E+00 0. -1.
          1    1    1    2  502    0  0.36727866217E+02 -0.88705212836E+02  0.76258837354E+03  0.76860820865E+03  0.00000000000E+00 0. -1.
         22    1    3    3    0    0 -0.50742776536E+02  0.33568204469E+02  0.94839125371E+02  0.11267703148E+03  0.00000000000E+00 0. -1.
         22    1    3    3    0    0  0.49708937965E+02  0.97349282929E+02  0.38320620579E+03  0.39849072456E+03  0.00000000000E+00 0. -1.
</event>
<event>
 7    1  0.5593520E-006  0.7072935E+02  0.7818608E-02  0.1366965E+00
          2   -1    0    0  502    0  0.00000000000E+00  0.00000000000E+00  0.60261941772E+03  0.60261941772E+03  0.00000000000E+00 0. -1.
          1   -1    0    0  501    0 -0.00000000000E+00 -0.00000000000E+00 -0.77234090198E+03  0.77234090198E+03  0.00000000000E+00 0. -1.
         25    2    1    2    0    0  0.10135255718E+00  0.13166956435E+03 -0.63663198031E+02  0.19239282067E+03  0.12500044085E+03 0.  0.
          2    1    1    2  501    0  0.13553337761E+02 -0.67699926633E+02 -0.64046340186E+03  0.64417415515E+03  0.00000000000E+00 0. -1.
          1    1    1    2  502    0 -0.13654690318E+02 -0.63969637719E+02  0.53440511564E+03  0.53839334389E+03  0.00000000000E+00 0. -1.
         22    1    3    3    0    0 -0.11213977748E+02  0.40886943370E+02  0.37069336712E+02  0.56317236787E+02  0.00000000000E+00 0. -1.
         22    1    3    3    0    0  0.11315330305E+02  0.90782620981E+02 -0.10073253474E+03  0.13607558388E+03  0.00000000000E+00 0. -1.
</event>
<event>
 7    1  0.5593520E-006  0.2170321E+03  0.7818608E-02  0.1186019E+00
          2   -1    0    0  502    0  0.00000000000E+00  0.00000000000E+00  0.13802838916E+04  0.13802838916E+04  0.00000000000E+00 0. -1.
          1   -1    0    0  501    0 -0.00000000000E+00 -0.00000000000E+00 -0.53311503293E+03  0.53311503293E+03  0.00000000000E+00 0. -1.
         25    2    1    2    0    0 -0.68166213127E+02  0.22740476253E+03  0.81379159226E+01  0.26842254606E+03  0.12499951570E+03 0.  0.
          2    1    1    2  501    0  0.12045750788E+03 -0.15979472693E+02 -0.38396762350E+03  0.40273625445E+03  0.00000000000E+00 0. -1.
          1    1    1    2  502    0 -0.52291294749E+02 -0.21142528983E+03  0.12229985662E+04  0.12422401240E+04  0.00000000000E+00 0. -1.
         22    1    3    3    0    0 -0.63288112317E+02  0.86767250135E+02 -0.47069947537E+02  0.11725835074E+03  0.00000000000E+00 0. -1.
         22    1    3    3    0    0 -0.48781008101E+01  0.14063751239E+03  0.55207863460E+02  0.15116419532E+03  0.00000000000E+00 0. -1.
</event>
<event>
 7    1  0.5593520E-006  0.3497608E+02  0.7818608E-02  0.1583603E+00
          2   -1    0    0  502    0  0.00000000000E+00  0.00000000000E+00  0.72439179228E+02  0.72439179228E+02  0.00000000000E+00 0. -1.
          1   -1    0    0  501    0 -0.00000000000E+00 -0.00000000000E+00 -0.13868410845E+04  0.13868410845E+04  0.00000000000E+00 0. -1.
         25    2    1    2    0    0  0.28132970155E+02 -0.47914498661E+02 -0.10640953982E+04  0.10728523382E+04  0.12500344003E+03 0.  0.
          2    1    1    2  501    0 -0.24581145740E+02  0.20035603357E+02 -0.31463452431E+03  0.31622862302E+03  0.00000000000E+00 0. -1.
          1    1    1    2  502    0 -0.35518244158E+01  0.27878895304E+02  0.64328017255E+02  0.70199302447E+02  0.00000000000E+00 0. -1.
         22    1    3    3    0    0 -0.43573723385E+02  0.87609176947E+01 -0.40997709066E+03  0.41237924040E+03  0.00000000000E+00 0.  1.
         22    1    3    3    0    0  0.71706693540E+02 -0.56675416355E+02 -0.65411830755E+03  0.66047309785E+03  0.00000000000E+00 0.  1.
</event>
<event>
 7    1  0.5593520E-006  0.4429578E+02  0.7818608E-02  0.1531534E+00
          2   -1    0    0  502    0  0.00000000000E+00  0.00000000000E+00  0.28086633248E+03  0.28086633248E+03  0.00000000000E+00 0. -1.
          1   -1    0    0  501    0 -0.00000000000E+00 -0.00000000000E+00 -0.63131032542E+03  0.63131032542E+03  0.00000000000E+00 0. -1.
         25    2    1    2    0    0 -0.58091728471E+02  0.11343728590E+02  0.76731878175E+01  0.13851871676E+03  0.12500091194E+03 0.  0.
          2    1    1    2  501    0  0.41655696973E+02  0.14827225227E+02 -0.56386810267E+03  0.56559904606E+03  0.00000000000E+00 0. -1.
          1    1    1    2  502    0  0.16436031498E+02 -0.26170953817E+02  0.20575092191E+03  0.20805889508E+03  0.00000000000E+00 0. -1.
         22    1    3    3    0    0 -0.91400995792E+02  0.34519702403E+02  0.42231878582E+01  0.97793594890E+02  0.00000000000E+00 0.  1.
         22    1    3    3    0    0  0.33309267322E+02 -0.23175973813E+02  0.34499999592E+01  0.40725121871E+02  0.00000000000E+00 0.  1.
</event>
<event>
 7    1  0.5593520E-006  0.1427988E+03  0.7818608E-02  0.1305078E+00
          2   -1    0    0  502    0  0.00000000000E+00  0.00000000000E+00  0.33742280581E+03  0.33742280581E+03  0.00000000000E+00 0. -1.
          1   -1    0    0  501    0 -0.00000000000E+00 -0.00000000000E+00 -0.69765336146E+03  0.69765336146E+03  0.00000000000E+00 0. -1.
         25    2    1    2    0    0  0.34145298665E+02  0.11799112779E+03  0.21850265211E+02  0.17661236440E+03  0.12500674186E+03 0.  0.
          2    1    1    2  501    0 -0.89600661123E+02 -0.11430252203E+03 -0.60836160770E+03  0.62545758508E+03  0.00000000000E+00 0. -1.
          1    1    1    2  502    0  0.55455362458E+02 -0.36886057586E+01  0.22628078684E+03  0.23300621779E+03  0.00000000000E+00 0. -1.
         22    1    3    3    0    0 -0.42909172435E+02  0.25187023401E+02  0.25550639639E+02  0.55932266295E+02  0.00000000000E+00 0. -1.
         22    1    3    3    0    0  0.77054471101E+02  0.92804104384E+02 -0.37003744279E+01  0.12068009810E+03  0.00000000000E+00 0. -1.
</event>
<event>
 7    1  0.5593520E-006  0.9518729E+02  0.7818608E-02  0.1423044E+00
          2   -1    0    0  502    0  0.00000000000E+00  0.00000000000E+00  0.13178833258E+04  0.13178833258E+04  0.00000000000E+00 0. -1.
          1   -1    0    0  501    0 -0.00000000000E+00 -0.00000000000E+00 -0.75387917306E+02  0.75387917306E+02  0.00000000000E+00 0. -1.
         25    2    1    2    0    0  0.67439793916E+02  0.40532980164E+02  0.11130535004E+04  0.11228110579E+04  0.12500211538E+03 0.  0.
          2    1    1    2  501    0 -0.93006604783E+02 -0.22879665383E+02 -0.35853541806E+02  0.10227015245E+03  0.00000000000E+00 0. -1.
          1    1    1    2  502    0  0.25566810867E+02 -0.17653314781E+02  0.16529544996E+03  0.16819003276E+03  0.00000000000E+00 0. -1.
         22    1    3    3    0    0 -0.34528514466E+02  0.26096964179E+02  0.40523972422E+03  0.40754448093E+03  0.00000000000E+00 0. -1.
         22    1    3    3    0    0  0.10196830838E+03  0.14436015985E+02  0.70781377614E+03  0.71526657700E+03  0.00000000000E+00 0. -1.
</event>
<event>
 7    1  0.5593520E-006  0.1136368E+03  0.7818608E-02  0.1297327E+00
          2   -1    0    0  502    0  0.00000000000E+00  0.00000000000E+00  0.79753547955E+03  0.79753547955E+03  0.00000000000E+00 0. -1.
          1   -1    0    0  501    0 -0.00000000000E+00 -0.00000000000E+00 -0.31055836353E+03  0.31055836353E+03  0.00000000000E+00 0. -1.
         25    2    1    2    0    0  0.72768711639E+02 -0.13686061371E+03  0.56960274440E+02  0.20711684792E+03  0.12500721119E+03 0.  0.
          2    1    1    2  501    0 -0.70757581742E+02  0.24876529106E+02 -0.22462860696E+03  0.23681952652E+03  0.00000000000E+00 0. -1.
          1    1    1    2  502    0 -0.20111298973E+01  0.11198408461E+03  0.65464544854E+03  0.66415746863E+03  0.00000000000E+00 0. -1.
         22    1    3    3    0    0  0.62312895446E+01 -0.10492853516E+03  0.77399949871E+02  0.13053573725E+03  0.00000000000E+00 0. -1.
         22    1    3    3    0    0  0.66537422095E+02 -0.31932078550E+02 -0.20439675431E+02  0.76581110669E+02  0.00000000000E+00 0. -1.
</event>
<event>
 7    1  0.5593520E-006  0.5925840E+02  0.7818608E-02  0.1507597E+00
          2   -1    0    0  502    0  0.00000000000E+00  0.00000000000E+00  0.98705562146E+03  0.98705562146E+03  0.00000000000E+00 0. -1.
          1   -1    0    0  501    0 -0.00000000000E+00 -0.00000000000E+00 -0.32210397734E+03  0.32210397734E+03  0.00000000000E+00 0. -1.
         25    2    1    2    0    0 -0.39315469701E+02  0.27029217345E+02 -0.32157214350E+02  0.13759859216E+03  0.12499200527E+03 0.  0.
          2    1    1    2  501    0  0.29963813744E+02 -0.52478815571E+02 -0.23317685478E+03  0.24088026449E+03  0.00000000000E+00 0. -1.
          1    1    1    2  502    0  0.93516559568E+01  0.25449598225E+02  0.93028571325E+03  0.93068074214E+03  0.00000000000E+00 0. -1.
         22    1    3    3    0    0 -0.55310707346E+02 -0.36016341757E+02 -0.23349316634E+01  0.66044705515E+02  0.00000000000E+00 0.  1.
         22    1    3    3    0    0  0.15995237645E+02  0.63045559103E+02 -0.29822282687E+02  0.71553886649E+02  0.00000000000E+00 0.  1.
</event>
<event>
 7    1  0.5593520E-006  0.1131631E+03  0.7818608E-02  0.1293496E+00
          2   -1    0    0  502    0  0.00000000000E+00  0.00000000000E+00  0.50690313703E+03  0.50690313703E+03  0.00000000000E+00 0. -1.
          1   -1    0    0  501    0 -0.00000000000E+00 -0.00000000000E+00 -0.91253071495E+03  0.91253071495E+03  0.00000000000E+00 0. -1.
         25    2    1    2    0    0 -0.12253487144E+03 -0.47413499474E+01  0.11006931023E+03  0.20682491851E+03  0.12499607492E+03 0.  0.
          2    1    1    2  501    0  0.28836851737E+02  0.72521596835E+02 -0.85272677612E+03  0.85629078048E+03  0.00000000000E+00 0. -1.
          1    1    1    2  502    0  0.93698019708E+02 -0.67780246888E+02  0.33702988797E+03  0.35631815299E+03  0.00000000000E+00 0. -1.
         22    1    3    3    0    0 -0.48980192959E+02 -0.53497220201E+02  0.97004556342E+01  0.73178621953E+02  0.00000000000E+00 0.  1.
         22    1    3    3    0    0 -0.73554678486E+02  0.48755870253E+02  0.10036885460E+03  0.13364629656E+03  0.00000000000E+00 0.  1.
</event>
<event>
 7    1  0.5593520E-006  0.9410104E+02  0.7818608E-02  0.1295655E+00
          2   -1    0    0  502    0  0.00000000000E+00  0.00000000000E+00  0.24890560740E+04  0.24890560740E+04  0.00000000000E+00 0. -1.
          1   -1    0    0  501    0 -0.00000000000E+00 -0.00000000000E+00 -0.16783181605E+03  0.16783181605E+03  0.00000000000E+00 0. -1.
         25    2    1    2    0    0  0.14655873685E+02  0.56407351687E+02  0.53480940812E+03  0.55230662546E+03  0.12499968620E+03 0.  0.
          2    1    1    2  501    0  0.77331766257E+02 -0.56943993845E+02 -0.14339338932E+03  0.17258182004E+03  0.00000000000E+00 0. -1.
          1    1    1    2  502    0 -0.91987639942E+02  0.53664215757E+00  0.19298082391E+04  0.19319994445E+04  0.00000000000E+00 0. -1.
         22    1    3    3    0    0 -0.54052888532E+02  0.12110457979E+02  0.24528891682E+03  0.25146576441E+03  0.00000000000E+00 0. -1.
         22    1    3    3    0    0  0.68708762217E+02  0.44296893708E+02  0.28952049130E+03  0.30084086105E+03  0.00000000000E+00 0. -1.
</event>
<event>
 7    1  0.5593520E-006  0.7631562E+02  0.7818608E-02  0.1379338E+00
          2   -1    0    0  502    0  0.00000000000E+00  0.00000000000E+00  0.20277828986E+04  0.20277828986E+04  0.00000000000E+00 0. -1.
          1   -1    0    0  501    0 -0.00000000000E+00 -0.00000000000E+00 -0.19097644533E+02  0.19097644533E+02  0.00000000000E+00 0. -1.
         25    2    1    2    0    0 -0.75287533668E+02  0.34032317899E+02  0.41435018059E+03  0.44061674427E+03  0.12502252513E+03 0.  0.
          2    1    1    2  501    0  0.35337812675E+02 -0.71466238020E+02  0.28940176663E+03  0.30018255563E+03  0.00000000000E+00 0. -1.
          1    1    1    2  502    0  0.39949720993E+02  0.37433920121E+02  0.13049333069E+04  0.13060812433E+04  0.00000000000E+00 0. -1.
         22    1    3    3    0    0 -0.66311407915E+02  0.41908223933E+02  0.42010135468E+03  0.42736243431E+03  0.00000000000E+00 0. -1.
         22    1    3    3    0    0 -0.89761257525E+01 -0.78759060341E+01 -0.57511740848E+01  0.13254309968E+02  0.00000000000E+00 0. -1.
</event>
<event>
 7    1  0.5593520E-006  0.4047705E+03  0.7818608E-02  0.1143321E+00
          2   -1    0    0  502    0  0.00000000000E+00  0.00000000000E+00  0.94881344308E+03  0.94881344308E+03  0.00000000000E+00 0. -1.
          1   -1    0    0  501    0 -0.00000000000E+00 -0.00000000000E+00 -0.26083020042E+04  0.26083020042E+04  0.00000000000E+00 0. -1.
         25    2    1    2    0    0  0.44243830976E+03  0.37008536278E+02 -0.81513401473E+02  0.46839168363E+03  0.12500017991E+03 0.  0.
          2    1    1    2  501    0 -0.39775120642E+03  0.59858787623E+02 -0.23121313209E+04  0.23468575461E+04  0.00000000000E+00 0. -1.
          1    1    1    2  502    0 -0.44687103341E+02 -0.96867323901E+02  0.73415616124E+03  0.74186621754E+03  0.00000000000E+00 0. -1.
         22    1    3    3    0    0  0.21824726268E+03  0.47675102310E+02 -0.96719259677E+02  0.24343253324E+03  0.00000000000E+00 0. -1.
         22    1    3    3    0    0  0.22419104708E+03 -0.10666566032E+02  0.15205858204E+02  0.22495915039E+03  0.00000000000E+00 0. -1.
</event>
<event>
 7    1  0.5593520E-006  0.2153297E+03  0.7818608E-02  0.1186322E+00
          2   -1    0    0  502    0  0.00000000000E+00  0.00000000000E+00  0.24504934197E+03  0.24504934197E+03  0.00000000000E+00 0. -1.
          1   -1    0    0  501    0 -0.00000000000E+00 -0.00000000000E+00 -0.13320571135E+04  0.13320571135E+04  0.00000000000E+00 0. -1.
         25    2    1    2    0    0  0.16817944117E+03  0.19786681573E+03 -0.70706426641E+02  0.29672467931E+03  0.12494212798E+03 0.  0.
          2    1    1    2  501    0 -0.12205754375E+03  0.90724752424E+00 -0.10638753179E+04  0.10708545929E+04  0.00000000000E+00 0. -1.
          1    1    1    2  502    0 -0.46121897424E+02 -0.19877406325E+03  0.47573972969E+02  0.20952718331E+03  0.00000000000E+00 0. -1.
         22    1    3    3    0    0  0.14972881725E+03  0.20650947252E+03 -0.88173426916E+02  0.26988781775E+03  0.00000000000E+00 0.  1.
         22    1    3    3    0    0  0.18450623919E+02 -0.86426567967E+01  0.17467000276E+02  0.26836861555E+02  0.00000000000E+00 0.  1.
</event>
<event>
 7    1  0.5593520E-006  0.9128174E+02  0.7818608E-02  0.1416255E+00
          2   -1    0    0  502    0  0.00000000000E+00  0.00000000000E+00  0.91672773149E+02  0.91672773149E+02  0.00000000000E+00 0. -1.
          1   -1    0    0  501    0 -0.00000000000E+00 -0.00000000000E+00 -0.23129510966E+03  0.23129510966E+03  0.00000000000E+00 0. -1.
         25    2    1    2    0    0  0.10429130581E+03 -0.11528815322E+02 -0.46752442711E+02  0.16976958603E+03  0.12500532546E+03 0.  0.
          2    1    1    2  501    0 -0.80132739730E+02  0.35645985676E+02 -0.66940949889E+02  0.11033124237E+03  0.00000000000E+00 0. -1.
          1    1    1    2  502    0 -0.24158566078E+02 -0.24117170354E+02 -0.25928943906E+02  0.42867054400E+02  0.00000000000E+00 0. -1.
         22    1    3    3    0    0  0.57745954585E+02  0.30647500803E+02 -0.76197378528E+02  0.10039873043E+03  0.00000000000E+00 0.  1.
         22    1    3    3    0    0  0.46545351223E+02 -0.42176316125E+02  0.29444935817E+02  0.69370855607E+02  0.00000000000E+00 0.  1.
</event>
<event>
 7    1  0.5593520E-006  0.6016685E+02  0.7818608E-02  0.1456304E+00
          2   -1    0    0  502    0  0.00000000000E+00  0.00000000000E+00  0.49554633484E+03  0.49554633484E+03  0.00000000000E+00 0. -1.
          1   -1    0    0  501    0 -0.00000000000E+00 -0.00000000000E+00 -0.41307661511E+03  0.41307661511E+03  0.00000000000E+00 0. -1.
         25    2    1    2    0    0  0.33401302828E+02  0.36233764565E+02 -0.14084471703E+03  0.19468323219E+03  0.12504316798E+03 0.  0.
          2    1    1    2  501    0 -0.62239296323E+02 -0.10982513431E+02 -0.24043811000E+03  0.24860577296E+03  0.00000000000E+00 0. -1.
          1    1    1    2  502    0  0.28837993495E+02 -0.25251251134E+02  0.46375254676E+03  0.46533394480E+03  0.00000000000E+00 0. -1.
         22    1    3    3    0    0  0.53296750641E+02  0.44919179893E+02 -0.15418182052E+03  0.16920493530E+03  0.00000000000E+00 0.  1.
         22    1    3    3    0    0 -0.19895447814E+02 -0.86854153284E+01  0.13337103492E+02  0.25478296895E+02  0.00000000000E+00 0.  1.
</event>
<event>
 7    1  0.5593520E-006  0.1683938E+03  0.7818608E-02  0.1398339E+00
          2   -1    0    0  502    0  0.00000000000E+00  0.00000000000E+00  0.23423522466E+04  0.23423522466E+04  0.00000000000E+00 0. -1.
          1   -1    0    0  501    0 -0.00000000000E+00 -0.00000000000E+00 -0.14989784823E+03  0.14989784823E+03  0.00000000000E+00 0. -1.
         25    2    1    2    0    0 -0.10196832421E+03 -0.13472545108E+03  0.80100514429E+03  0.82812017384E+03  0.12500117932E+03 0.  0.
          2    1    1    2  501    0  0.83929733974E+02  0.14603843746E+03 -0.84211035783E+02  0.18831602164E+03  0.00000000000E+00 0. -1.
          1    1    1    2  502    0  0.18038590238E+02 -0.11312986381E+02  0.14756602899E+04  0.14758138993E+04  0.00000000000E+00 0. -1.
         22    1    3    3    0    0 -0.67630337813E+02 -0.15551748552E+03  0.62538106159E+03  0.64796683796E+03  0.00000000000E+00 0.  1.
         22    1    3    3    0    0 -0.34337986399E+02  0.20792034442E+02  0.17562408270E+03  0.18015333588E+03  0.00000000000E+00 0.  1.
</event>
<event>
 7    1  0.5593520E-006  0.1061831E+03  0.7818608E-02  0.1403493E+00
          2   -1    0    0  502    0  0.00000000000E+00  0.00000000000E+00  0.37686175841E+03  0.37686175841E+03  0.00000000000E+00 0. -1.
          1   -1    0    0  501    0 -0.00000000000E+00 -0.00000000000E+00 -0.20983159703E+03  0.20983159703E+03  0.00000000000E+00 0. -1.
         25    2    1    2    0    0 -0.11082888613E+03  0.11743260377E+02  0.74093335444E+02  0.18312882359E+03  0.12500159002E+03 0.  0.
          2    1    1    2  501    0  0.13304961419E+02  0.29562972721E+02 -0.14210853540E+03  0.14575948405E+03  0.00000000000E+00 0. -1.
          1    1    1    2  502    0  0.97523924709E+02 -0.41306233097E+02  0.23504536134E+03  0.25780504780E+03  0.00000000000E+00 0. -1.
         22    1    3    3    0    0  0.27174916630E+02  0.11380535509E+02  0.13543505092E+02  0.32425595022E+02  0.00000000000E+00 0.  1.
         22    1    3    3    0    0 -0.13800380276E+03  0.36272486733E+00  0.60549830352E+02  0.15070322857E+03  0.00000000000E+00 0.  1.
</event>
<event>
 7    1  0.5593520E-006  0.8707438E+02  0.7818608E-02  0.1445448E+00
          2   -1    0    0  502    0  0.00000000000E+00  0.00000000000E+00  0.11893108924E+04  0.11893108924E+04  0.00000000000E+00 0. -1.
          1   -1    0    0  501    0 -0.00000000000E+00 -0.00000000000E+00 -0.48849936799E+03  0.48849936799E+03  0.00000000000E+00 0. -1.
         25    2    1    2    0    0 -0.63791492808E+02  0.77411434506E+02  0.20668735255E+03  0.26154648503E+03  0.12500006952E+03 0.  0.
          2    1    1    2  501    0  0.71280095523E+02 -0.49717715081E+02 -0.45675633863E+03  0.46495059533E+03  0.00000000000E+00 0. -1.
          1    1    1    2  502    0 -0.74886027141E+01 -0.27693719425E+02  0.95088051049E+03  0.95131318003E+03  0.00000000000E+00 0. -1.
         22    1    3    3    0    0 -0.51564018526E+02  0.45599021960E+02  0.21559781751E+03  0.22631954782E+03  0.00000000000E+00 0.  1.
         22    1    3    3    0    0 -0.12227474282E+02  0.31812412546E+02 -0.89104649615E+01  0.35226937210E+02  0.00000000000E+00 0.  1.
</event>
<event>
 7    1  0.5593520E-006  0.5692035E+02  0.7818608E-02  0.1514316E+00
          2   -1    0    0  502    0  0.00000000000E+00  0.00000000000E+00  0.26892408723E+03  0.26892408723E+03  0.00000000000E+00 0. -1.
          1   -1    0    0  501    0 -0.00000000000E+00 -0.00000000000E+00 -0.27832466245E+03  0.27832466245E+03  0.00000000000E+00 0. -1.
         25    2    1    2    0    0 -0.63213575145E+02 -0.98846678297E+01  0.29701743410E+02  0.14352582275E+03  0.12499522188E+03 0.  0.
          2    1    1    2  501    0  0.16011584519E+02 -0.21705282350E+02 -0.21613023337E+03  0.21780672143E+03  0.00000000000E+00 0. -1.
          1    1    1    2  502    0  0.47201990626E+02  0.31589950180E+02  0.17702791474E+03  0.18591620551E+03  0.00000000000E+00 0. -1.
         22    1    3    3    0    0 -0.50908141126E+02  0.21673640304E+02 -0.38479061098E+02  0.67394537315E+02  0.00000000000E+00 0. -1.
         22    1    3    3    0    0 -0.12305434018E+02 -0.31558308134E+02  0.68180804508E+02  0.76131285435E+02  0.00000000000E+00 0. -1.
</event>
<event>
 7    1  0.5593520E-006  0.5434631E+02  0.7818608E-02  0.1425163E+00
          2   -1    0    0  502    0  0.00000000000E+00  0.00000000000E+00  0.11404206134E+02  0.11404206134E+02  0.00000000000E+00 0. -1.
          1   -1    0    0  501    0 -0.00000000000E+00 -0.00000000000E+00 -0.20527361044E+04  0.20527361044E+04  0.00000000000E+00 0. -1.
         25    2    1    2    0    0  0.11858337566E+02  0.41832117061E+02 -0.87677710896E+03  0.88670899884E+03  0.12499681447E+03 0.  0.
          2    1    1    2  501    0 -0.53533904410E+02  0.10035652657E+01 -0.10145137259E+04  0.10159256794E+04  0.00000000000E+00 0. -1.
          1    1    1    2  502    0  0.41675566844E+02 -0.42835682327E+02 -0.15004106347E+03  0.16150563234E+03  0.00000000000E+00 0. -1.
         22    1    3    3    0    0  0.46915207506E+02  0.69312230845E+02 -0.45943547828E+03  0.46699698151E+03  0.00000000000E+00 0. -1.
         22    1    3    3    0    0 -0.35056869940E+02 -0.27480113784E+02 -0.41734163068E+03  0.41971201732E+03  0.00000000000E+00 0. -1.
</event>
<event>
 7    1  0.5593520E-006  0.3437344E+02  0.7818608E-02  0.1604539E+00
          2   -1    0    0  502    0  0.00000000000E+00  0.00000000000E+00  0.31625368514E+03  0.31625368514E+03  0.00000000000E+00 0. -1.
          1   -1    0    0  501    0 -0.00000000000E+00 -0.00000000000E+00 -0.82832448008E+02  0.82832448008E+02  0.00000000000E+00 0. -1.
         25    2    1    2    0    0 -0.44093064359E+02 -0.22432534758E+02 -0.87762055348E+01  0.13472279584E+03  0.12500317194E+03 0.  0.
          2    1    1    2  501    0  0.18924365949E+02  0.23417659584E+02  0.11398219442E+02  0.32193754261E+02  0.00000000000E+00 0. -1.
          1    1    1    2  502    0  0.25168698411E+02 -0.98512482680E+00  0.23079922323E+03  0.23216958305E+03  0.00000000000E+00 0. -1.
         22    1    3    3    0    0 -0.14056107848E+01  0.21830742491E+02  0.46911541484E+02  0.51761470070E+02  0.00000000000E+00 0. -1.
         22    1    3    3    0    0 -0.42687453575E+02 -0.44263277249E+02 -0.55687747019E+02  0.82961325770E+02  0.00000000000E+00 0. -1.
</event>
<event>
 7    1  0.5593520E-006  0.1132852E+03  0.7818608E-02  0.1298212E+00
          2   -1    0    0  502    0  0.00000000000E+00  0.00000000000E+00  0.99157363055E+03  0.99157363055E+03  0.00000000000E+00 0. -1.
          1   -1    0    0  501    0 -0.00000000000E+00 -0.00000000000E+00 -0.10190890825E+03  0.10190890825E+03  0.00000000000E+00 0. -1.
         25    2    1    2    0    0  0.53381953463E+02 -0.52084387975E+02  0.18795788904E+03  0.23772962594E+03  0.12499916227E+03 0.  0.
          2    1    1    2  501    0 -0.27924089957E+02  0.12222985188E+03 -0.22781306362E+02  0.12743186183E+03  0.00000000000E+00 0. -1.
          1    1    1    2  502    0 -0.25457863506E+02 -0.70145463905E+02  0.72448813962E+03  0.72832105102E+03  0.00000000000E+00 0. -1.
         22    1    3    3    0    0 -0.60816190524E+01 -0.27060133474E+01  0.15258029413E+03  0.15272542276E+03  0.00000000000E+00 0. -1.
         22    1    3    3    0    0  0.59463572515E+02 -0.49378374627E+02  0.35377594913E+02  0.85004203184E+02  0.00000000000E+00 0. -1.
</event>
<event>
 7    1  0.5593520E-006  0.6352048E+02  0.7818608E-02  0.1395022E+00
          2   -1    0    0  502    0  0.00000000000E+00  0.00000000000E+00  0.22485352628E+04  0.22485352628E+04  0.00000000000E+00 0. -1.
          1   -1    0    0  501    0 -0.00000000000E+00 -0.00000000000E+00 -0.12414191879E+03  0.12414191879E+03  0.00000000000E+00 0. -1.
         25    2    1    2    0    0 -0.12416097404E+02 -0.10361110750E+03  0.50035761044E+03  0.52618637142E+03  0.12499975230E+03 0.  0.
          2    1    1    2  501    0 -0.23799892014E+02  0.58363757812E+02 -0.10177252036E+03  0.11970968627E+03  0.00000000000E+00 0. -1.
          1    1    1    2  502    0  0.36215989418E+02  0.45247349692E+02  0.17258082539E+04  0.17267811239E+04  0.00000000000E+00 0. -1.
         22    1    3    3    0    0 -0.59089727941E+02 -0.36503862806E+02  0.13526814619E+03  0.15205788148E+03  0.00000000000E+00 0.  1.
         22    1    3    3    0    0  0.46673630537E+02 -0.67107244698E+02  0.36508946425E+03  0.37412848994E+03  0.00000000000E+00 0.  1.
</event>
<event>
 7    1  0.5593520E-006  0.7042318E+02  0.7818608E-02  0.1410119E+00
          2   -1    0    0  502    0  0.00000000000E+00  0.00000000000E+00  0.27058426430E+04  0.27058426430E+04  0.00000000000E+00 0. -1.
          1   -1    0    0  501    0 -0.00000000000E+00 -0.00000000000E+00 -0.92923373864E+02  0.92923373864E+02  0.00000000000E+00 0. -1.
         25    2    1    2    0    0  0.74723008398E+02 -0.44211727021E+02  0.23072905813E+04  0.23123049545E+04  0.12500468458E+03 0.  0.
          2    1    1    2  501    0 -0.45643492732E+02 -0.83820091353E+01 -0.81989430955E+02  0.94211747114E+02  0.00000000000E+00 0. -1.
          1    1    1    2  502    0 -0.29079515667E+02  0.52593736156E+02  0.38761811877E+03  0.39224931525E+03  0.00000000000E+00 0. -1.
         22    1    3    3    0    0 -0.21987105236E+02  0.24824322339E+02  0.55596614882E+03  0.55695425163E+03  0.00000000000E+00 0. -1.
         22    1    3    3    0    0  0.96710113634E+02 -0.69036049360E+02  0.17513244325E+04  0.17553507028E+04  0.00000000000E+00 0. -1.
</event>
<event>
 7    1  0.5593520E-006  0.4077892E+02  0.7818608E-02  0.1589807E+00
          2   -1    0    0  502    0  0.00000000000E+00  0.00000000000E+00  0.75973963156E+03  0.75973963156E+03  0.00000000000E+00 0. -1.
          1   -1    0    0  501    0 -0.00000000000E+00 -0.00000000000E+00 -0.46606155325E+03  0.46606155325E+03  0.00000000000E+00 0. -1.
         25    2    1    2    0    0 -0.31180710665E+02  0.45483249237E+02  0.15204357620E+02  0.13745988906E+03  0.12499234349E+03 0.  0.
          2    1    1    2  501    0  0.87069882268E+01 -0.39696269959E+02 -0.40371630786E+03  0.40575665457E+03  0.00000000000E+00 0. -1.
          1    1    1    2  502    0  0.22473722438E+02 -0.57869792771E+01  0.68219002855E+03  0.68258464118E+03  0.00000000000E+00 0. -1.
         22    1    3    3    0    0 -0.26734068186E+02  0.88967434502E+02  0.11039249455E+02  0.93550947788E+02  0.00000000000E+00 0. -1.
         22    1    3    3    0    0 -0.44466424782E+01 -0.43484185265E+02  0.41651081644E+01  0.43908941271E+02  0.00000000000E+00 0. -1.
</event>
<event>
 7    1  0.5593520E-006  0.9887342E+02  0.7818608E-02  0.1293916E+00
          2   -1    0    0  502    0  0.00000000000E+00  0.00000000000E+00  0.48756957646E+03  0.48756957646E+03  0.00000000000E+00 0. -1.
          1   -1    0    0  501    0 -0.00000000000E+00 -0.00000000000E+00 -0.27270448661E+03  0.27270448661E+03  0.00000000000E+00 0. -1.
         25    2    1    2    0    0 -0.28125734452E+02  0.18012347535E+02  0.41331851178E+02  0.13582576527E+03  0.12499925995E+03 0.  0.
          2    1    1    2  501    0 -0.81763453662E+02 -0.35090014190E+02 -0.20842924527E+03  0.22662595115E+03  0.00000000000E+00 0. -1.
          1    1    1    2  502    0  0.10988918811E+03  0.17077666655E+02  0.38196248394E+03  0.39782234666E+03  0.00000000000E+00 0. -1.
         22    1    3    3    0    0 -0.39427355723E+02  0.67745225543E+02  0.25181655522E+02  0.82328899774E+02  0.00000000000E+00 0. -1.
         22    1    3    3    0    0  0.11301621270E+02 -0.49732878008E+02  0.16150195656E+02  0.53496865497E+02  0.00000000000E+00 0. -1.
</event>
<event>
 7    1  0.5593520E-006  0.8067263E+02  0.7818608E-02  0.1410908E+00
          2   -1    0    0  502    0  0.00000000000E+00  0.00000000000E+00  0.89490423505E+03  0.89490423505E+03  0.00000000000E+00 0. -1.
          1   -1    0    0  501    0 -0.00000000000E+00 -0.00000000000E+00 -0.43081002156E+02  0.43081002156E+02  0.00000000000E+00 0. -1.
         25    2    1    2    0    0 -0.34804069389E+02 -0.58934237536E+02  0.26902363481E+03  0.30443575292E+03  0.12499137558E+03 0.  0.
          2    1    1    2  501    0  0.72632862304E+02  0.45149639629E+02  0.49665665360E+02  0.98897426461E+02  0.00000000000E+00 0. -1.
          1    1    1    2  502    0 -0.37828792915E+02  0.13784597907E+02  0.53313393272E+03  0.53465205782E+03  0.00000000000E+00 0. -1.
         22    1    3    3    0    0  0.34947096725E+02 -0.49233793130E+02  0.65541478091E+02  0.89112015496E+02  0.00000000000E+00 0. -1.
         22    1    3    3    0    0 -0.69751166113E+02 -0.97004444061E+01  0.20348215672E+03  0.21532373742E+03  0.00000000000E+00 0. -1.
</event>
<event>
 7    1  0.5593520E-006  0.1193936E+03  0.7818608E-02  0.1392449E+00
          2   -1    0    0  502    0  0.00000000000E+00  0.00000000000E+00  0.96332250633E+03  0.96332250633E+03  0.00000000000E+00 0. -1.
          1   -1    0    0  501    0 -0.00000000000E+00 -0.00000000000E+00 -0.30882006730E+03  0.30882006730E+03  0.00000000000E+00 0. -1.
         25    2    1    2    0    0 -0.11324379337E+03 -0.20312089865E+02  0.61437874418E+03  0.63743518451E+03  0.12500254168E+03 0.  0.
          2    1    1    2  501    0  0.11908163266E+03 -0.10616707144E+02 -0.28448033402E+03  0.30858096207E+03  0.00000000000E+00 0. -1.
          1    1    1    2  502    0 -0.58378392926E+01  0.30928797009E+02  0.32460402888E+03  0.32612642704E+03  0.00000000000E+00 0. -1.
         22    1    3    3    0    0  0.17642565014E+02  0.24770484749E+02  0.85823499529E+02  0.91052238229E+02  0.00000000000E+00 0.  1.
         22    1    3    3    0    0 -0.13088635838E+03 -0.45082574614E+02  0.52855524465E+03  0.54638294629E+03  0.00000000000E+00 0.  1.
</event>
<event>
 7    1  0.5593520E-006  0.1012950E+03  0.7818608E-02  0.1338623E+00
          2   -1    0    0  502    0  0.00000000000E+00  0.00000000000E+00  0.22924691264E+04  0.22924691264E+04  0.00000000000E+00 0. -1.
          1   -1    0    0  501    0 -0.00000000000E+00 -0.00000000000E+00 -0.59831653549E+03  0.59831653549E+03  0.00000000000E+00 0. -1.
         25    2    1    2    0    0 -0.90797510691E+02 -0.11485916061E+03  0.35834519907E+03  0.40678421920E+03  0.12500121827E+03 0.  0.
          2    1    1    2  501    0  0.53355014215E+02  0.23018614683E+02 -0.57133474016E+03  0.57428216016E+03  0.00000000000E+00 0. -1.
          1    1    1    2  502    0  0.37442496477E+02  0.91840545932E+02  0.19071421320E+04  0.19097192826E+04  0.00000000000E+00 0. -1.
         22    1    3    3    0    0 -0.98359862709E+02 -0.13646949984E+03  0.29739738225E+03  0.34167790380E+03  0.00000000000E+00 0.  1.
         22    1    3    3    0    0  0.75623520173E+01  0.21610339224E+02  0.60947816821E+02  0.65106315398E+02  0.00000000000E+00 0.  1.
</event>
<event>
 7    1  0.5593520E-006  0.1165116E+03  0.7818608E-02  0.1359806E+00
          2   -1    0    0  502    0  0.00000000000E+00  0.00000000000E+00  0.17692294956E+04  0.17692294956E+04  0.00000000000E+00 0. -1.
          1   -1    0    0  501    0 -0.00000000000E+00 -0.00000000000E+00 -0.96627810820E+03  0.96627810820E+03  0.00000000000E+00 0. -1.
         25    2    1    2    0    0 -0.37849567361E+02 -0.14669583718E+03  0.69531333056E+03  0.72252238538E+03  0.12500284527E+03 0.  0.
          2    1    1    2  501    0  0.48292019131E+02  0.10585225604E+03 -0.94869924168E+03  0.95580702570E+03  0.00000000000E+00 0. -1.
          1    1    1    2  502    0 -0.10442451770E+02  0.40843581140E+02  0.10563372985E+04  0.10571781927E+04  0.00000000000E+00 0. -1.
         22    1    3    3    0    0 -0.69388077880E+01  0.25219713490E+01 -0.28561807473E+01  0.79161329869E+01  0.00000000000E+00 0.  1.
         22    1    3    3    0    0 -0.30910759573E+02 -0.14921780853E+03  0.69816951131E+03  0.71460625239E+03  0.00000000000E+00 0.  1.
</event>
<event>
 7    1  0.5593520E-006  0.8934924E+02  0.7818608E-02  0.1331927E+00
          2   -1    0    0  502    0  0.00000000000E+00  0.00000000000E+00  0.17541144995E+04  0.17541144995E+04  0.00000000000E+00 0. -1.
          1   -1    0    0  501    0 -0.00000000000E+00 -0.00000000000E+00 -0.18597136382E+04  0.18597136382E+04  0.00000000000E+00 0. -1.
         25    2    1    2    0    0 -0.25694800439E+02 -0.56508420851E+02 -0.10458833288E+02  0.13995402059E+03  0.12499726512E+03 0.  0.
          2    1    1    2  501    0  0.87154934093E+02  0.23335330951E+02 -0.17826439792E+04  0.17849257903E+04  0.00000000000E+00 0. -1.
          1    1    1    2  502    0 -0.61460133654E+02  0.33173089900E+02  0.16875036738E+04  0.16889483269E+04  0.00000000000E+00 0. -1.
         22    1    3    3    0    0  0.49337453424E+02 -0.32764579326E+02  0.60746686783E+01  0.59536573367E+02  0.00000000000E+00 0.  1.
         22    1    3    3    0    0 -0.75032253863E+02 -0.23743841526E+02 -0.16533501967E+02  0.80417447221E+02  0.00000000000E+00 0.  1.
</event>
<event>
 7    1  0.5593520E-006  0.8353050E+02  0.7818608E-02  0.1324693E+00
          2   -1    0    0  502    0  0.00000000000E+00  0.00000000000E+00  0.91283651460E+02  0.91283651460E+02  0.00000000000E+00 0. -1.
          1   -1    0    0  501    0 -0.00000000000E+00 -0.00000000000E+00 -0.35360717312E+04  0.35360717312E+04  0.00000000000E+00 0. -1.
         25    2    1    2    0    0  0.11697105227E+03 -0.11850317789E+02 -0.10718037995E+04  0.10854544251E+04  0.12500106920E+03 0.  0.
          2    1    1    2  501    0 -0.61535555985E+02 -0.50537341979E+02 -0.24360144280E+04  0.24373155194E+04  0.00000000000E+00 0. -1.
          1    1    1    2  502    0 -0.55435496287E+02  0.62387659768E+02  0.63030147781E+02  0.10458543813E+03  0.00000000000E+00 0. -1.
         22    1    3    3    0    0  0.10638948898E+03 -0.56285741349E+02 -0.63813918893E+03  0.64939081645E+03  0.00000000000E+00 0.  1.
         22    1    3    3    0    0  0.10581563296E+02  0.44435423561E+02 -0.43366461053E+03  0.43606360864E+03  0.00000000000E+00 0.  1.
</event>
<event>
 7    1  0.5593520E-006  0.8258975E+02  0.7818608E-02  0.1327161E+00
          2   -1    0    0  502    0  0.00000000000E+00  0.00000000000E+00  0.18174558698E+04  0.18174558698E+04  0.00000000000E+00 0. -1.
          1   -1    0    0  501    0 -0.00000000000E+00 -0.00000000000E+00 -0.23398466145E+02  0.23398466145E+02  0.00000000000E+00 0. -1.
         25    2    1    2    0    0 -0.45773199048E+02  0.60996768647E+02  0.11653110415E+04  0.11744751456E+04  0.12500500971E+03 0.  0.
          2    1    1    2  501    0 -0.54790291512E+02 -0.61798792260E+02  0.10772756053E+03  0.13574348628E+03  0.00000000000E+00 0. -1.
          1    1    1    2  502    0  0.10056349056E+03  0.80202361311E+00  0.52101880155E+03  0.53063570408E+03  0.00000000000E+00 0. -1.
         22    1    3    3    0    0 -0.62037163481E+02  0.20277355436E+01  0.90280023772E+03  0.90493148392E+03  0.00000000000E+00 0.  1.
         22    1    3    3    0    0  0.16263964433E+02  0.58969033104E+02  0.26251080382E+03  0.26954366163E+03  0.00000000000E+00 0.  1.
</event>
<event>
 7    1  0.5593520E-006  0.4698664E+02  0.7818608E-02  0.1546155E+00
          2   -1    0    0  502    0  0.00000000000E+00  0.00000000000E+00  0.80543092404E+03  0.80543092404E+03  0.00000000000E+00 0. -1.
          1   -1    0    0  501    0 -0.00000000000E+00 -0.00000000000E+00 -0.93849913646E+03  0.93849913646E+03  0.00000000000E+00 0. -1.
         25    2    1    2    0    0 -0.15341074217E+02  0.66722972402E+02  0.10658584361E+02  0.14291919687E+03  0.12499995123E+03 0.  0.
          2    1    1    2  501    0 -0.68896850207E+01 -0.25573694395E+02 -0.87141689231E+03  0.87181929424E+03  0.00000000000E+00 0. -1.
          1    1    1    2  502    0  0.22230759237E+02 -0.41149278007E+02  0.72769009553E+03  0.72919156939E+03  0.00000000000E+00 0. -1.
         22    1    3    3    0    0 -0.62244688998E+02  0.70513048408E+02  0.16531777892E+02  0.95497596747E+02  0.00000000000E+00 0. -1.
         22    1    3    3    0    0  0.46903614781E+02 -0.37900760062E+01 -0.58731935309E+01  0.47421600120E+02  0.00000000000E+00 0. -1.
</event>
<event>
 7    1  0.5593520E-006  0.3613445E+02  0.7818608E-02  0.1545911E+00
          2   -1    0    0  502    0  0.00000000000E+00  0.00000000000E+00  0.75382612830E+03  0.75382612830E+03  0.00000000000E+00 0. -1.
          1   -1    0    0  501    0 -0.00000000000E+00 -0.00000000000E+00 -0.84845692175E+03  0.84845692175E+03  0.00000000000E+00 0. -1.
         25    2    1    2    0    0  0.39736289809E+02  0.52404793251E+02  0.35838408970E+03  0.38521270181E+03  0.12499773919E+03 0.  0.
          2    1    1    2  501    0 -0.30619214106E+02 -0.19137355501E+02 -0.83387248527E+03  0.83465387817E+03  0.00000000000E+00 0. -1.
          1    1    1    2  502    0 -0.91170757036E+01 -0.33267437750E+02  0.38085760212E+03  0.38241647007E+03  0.00000000000E+00 0. -1.
         22    1    3    3    0    0  0.21684497378E+02 -0.35989098957E+02  0.58320845198E+02  0.71880133937E+02  0.00000000000E+00 0. -1.
         22    1    3    3    0    0  0.18051792432E+02  0.88393892208E+02  0.30006324450E+03  0.31333256787E+03  0.00000000000E+00 0. -1.
</event>
<event>
 7    1  0.5593520E-006  0.4244750E+02  0.7818608E-02  0.1496082E+00
          2   -1    0    0  502    0  0.00000000000E+00  0.00000000000E+00  0.33069581103E+04  0.33069581103E+04  0.00000000000E+00 0. -1.
          1   -1    0    0  501    0 -0.00000000000E+00 -0.00000000000E+00 -0.82283084604E+01  0.82283084604E+01  0.00000000000E+00 0. -1.
         25    2    1    2    0    0 -0.47204916738E+02  0.37073140871E+02  0.16945354901E+04  0.17001994987E+04  0.12500034535E+03 0.  0.
          2    1    1    2  501    0  0.40708349621E+02  0.45318564962E+01  0.77036476076E+02  0.87248645253E+02  0.00000000000E+00 0. -1.
          1    1    1    2  502    0  0.64965671171E+01 -0.41604997367E+02  0.15271578356E+04  0.15277382747E+04  0.00000000000E+00 0. -1.
         22    1    3    3    0    0 -0.18873932941E+02 -0.43188803690E+01  0.35754652471E+02  0.40660462929E+02  0.00000000000E+00 0. -1.
         22    1    3    3    0    0 -0.28330983797E+02  0.41392021240E+02  0.16587808376E+04  0.16595390358E+04  0.00000000000E+00 0. -1.
</event>
<event>
 7    1  0.5593520E-006  0.1201672E+03  0.7818608E-02  0.1272301E+00
          2   -1    0    0  502    0  0.00000000000E+00  0.00000000000E+00  0.18136478725E+03  0.18136478725E+03  0.00000000000E+00 0. -1.
          1   -1    0    0  501    0 -0.00000000000E+00 -0.00000000000E+00 -0.91411342650E+03  0.91411342650E+03  0.00000000000E+00 0. -1.
         25    2    1    2    0    0 -0.22764954435E+02 -0.97743926342E+02 -0.13065794080E+03  0.20680619383E+03  0.12500074410E+03 0.  0.
          2    1    1    2  501    0 -0.85090193673E+02  0.28813105396E+02 -0.71340546864E+03  0.71903956691E+03  0.00000000000E+00 0. -1.
          1    1    1    2  502    0  0.10785514811E+03  0.68930820946E+02  0.11131477019E+03  0.16963245300E+03  0.00000000000E+00 0. -1.
         22    1    3    3    0    0 -0.36500106972E+02 -0.10702941636E+03 -0.48588447396E+02  0.12307879994E+03  0.00000000000E+00 0. -1.
         22    1    3    3    0    0  0.13735152537E+02  0.92854900137E+01 -0.82069493406E+02  0.83727393892E+02  0.00000000000E+00 0. -1.
</event>
<event>
 7    1  0.5593520E-006  0.1385753E+03  0.7818608E-02  0.1374632E+00
          2   -1    0    0  502    0  0.00000000000E+00  0.00000000000E+00  0.13931915970E+04  0.13931915970E+04  0.00000000000E+00 0. -1.
          1   -1    0    0  501    0 -0.00000000000E+00 -0.00000000000E+00 -0.12188630976E+04  0.12188630976E+04  0.00000000000E+00 0. -1.
         25    2    1    2    0    0  0.16122520536E+03 -0.45316818411E+02 -0.44465028850E+03  0.49130987628E+03  0.12499733834E+03 0.  0.
          2    1    1    2  501    0 -0.25559924799E+02  0.18127038331E+02 -0.74705988639E+03  0.74771677334E+03  0.00000000000E+00 0. -1.
          1    1    1    2  502    0 -0.13566528056E+03  0.27189780080E+02  0.13660386743E+04  0.13730280449E+04  0.00000000000E+00 0. -1.
         22    1    3    3    0    0  0.57857728500E+02 -0.14547618123E+02 -0.32415056971E+03  0.32959481455E+03  0.00000000000E+00 0. -1.
         22    1    3    3    0    0  0.10336747686E+03 -0.30769200288E+02 -0.12049971879E+03  0.16171506172E+03  0.00000000000E+00 0. -1.
</event>
<event>
 7    1  0.5593520E-006  0.5831717E+02  0.7818608E-02  0.1451194E+00
          2   -1    0    0  502    0  0.00000000000E+00  0.00000000000E+00  0.12677010136E+04  0.12677010136E+04  0.00000000000E+00 0. -1.
          1   -1    0    0  501    0 -0.00000000000E+00 -0.00000000000E+00 -0.42128640680E+03  0.42128640680E+03  0.00000000000E+00 0. -1.
         25    2    1    2    0    0  0.87995456919E+02 -0.44361147700E+02  0.18325591048E+03  0.24273101532E+03  0.12499802083E+03 0.  0.
          2    1    1    2  501    0 -0.53591294183E+02  0.21957872902E+02 -0.38900471080E+03  0.39329230862E+03  0.00000000000E+00 0. -1.
          1    1    1    2  502    0 -0.34404162736E+02  0.22403274798E+02  0.10521634072E+04  0.10529640965E+04  0.00000000000E+00 0. -1.
         22    1    3    3    0    0  0.54013214138E+02 -0.81683218092E+02  0.15898484763E+03  0.18672374567E+03  0.00000000000E+00 0.  1.
         22    1    3    3    0    0  0.33982242781E+02  0.37322070392E+02  0.24271062849E+02  0.56007269658E+02  0.00000000000E+00 0.  1.
</event>
<event>
 7    1  0.5593520E-006  0.1466589E+03  0.7818608E-02  0.1212828E+00
          2   -1    0    0  502    0  0.00000000000E+00  0.00000000000E+00  0.42242332751E+03  0.42242332751E+03  0.00000000000E+00 0. -1.
          1   -1    0    0  501    0 -0.00000000000E+00 -0.00000000000E+00 -0.35252012601E+03  0.35252012601E+03  0.00000000000E+00 0. -1.
         25    2    1    2    0    0  0.13829162538E+03 -0.50854224535E+02  0.80249674304E+02  0.20923021596E+03  0.12500618881E+03 0.  0.
          2    1    1    2  501    0 -0.11112437990E+03 -0.95708951239E+02 -0.24627815407E+03  0.28663872789E+03  0.00000000000E+00 0. -1.
          1    1    1    2  502    0 -0.27167245473E+02  0.14656317577E+03  0.23593168127E+03  0.27907450967E+03  0.00000000000E+00 0. -1.
         22    1    3    3    0    0  0.11811657023E+02 -0.10538989169E+01  0.72085280034E+02  0.73054182235E+02  0.00000000000E+00 0.  1.
         22    1    3    3    0    0  0.12647996835E+03 -0.49800325618E+02  0.81643942703E+01  0.13617603372E+03  0.00000000000E+00 0.  1.
</event>
<event>
 7    1  0.5593520E-006  0.9131691E+02  0.7818608E-02  0.1346117E+00
          2   -1    0    0  502    0  0.00000000000E+00  0.00000000000E+00  0.69143344192E+03  0.69143344192E+03  0.00000000000E+00 0. -1.
          1   -1    0    0  501    0 -0.00000000000E+00 -0.00000000000E+00 -0.25450845387E+04  0.25450845387E+04  0.00000000000E+00 0. -1.
         25    2    1    2    0    0 -0.38769502519E+01  0.33683783618E+02 -0.15533154510E+02  0.13044402350E+03  0.12499894542E+03 0.  0.
          2    1    1    2  501    0  0.23537975650E+01  0.60374947380E+02 -0.24682345848E+04  0.24689740056E+04  0.00000000000E+00 0. -1.
          1    1    1    2  502    0  0.15231526869E+01 -0.94058730998E+02  0.63011664261E+03  0.63709995147E+03  0.00000000000E+00 0. -1.
         22    1    3    3    0    0 -0.28680761139E+02 -0.25038449773E+02 -0.46066340696E+02  0.59763013408E+02  0.00000000000E+00 0. -1.
         22    1    3    3    0    0  0.24803810887E+02  0.58722233391E+02  0.30533186185E+02  0.70681010091E+02  0.00000000000E+00 0. -1.
</event>
<event>
 7    1  0.5593520E-006  0.1552693E+03  0.7818608E-02  0.1277193E+00
          2   -1    0    0  502    0  0.00000000000E+00  0.00000000000E+00  0.75717020628E+03  0.75717020628E+03  0.00000000000E+00 0. -1.
          1   -1    0    0  501    0 -0.00000000000E+00 -0.00000000000E+00 -0.33329996299E+03  0.33329996299E+03  0.00000000000E+00 0. -1.
         25    2    1    2    0    0  0.11228957122E+03 -0.17186758145E+03  0.92334020796E+02  0.25747466101E+03  0.12498086376E+03 0.  0.
          2    1    1    2  501    0 -0.57986353701E+02  0.32223118322E+02 -0.23644985134E+03  0.24557947547E+03  0.00000000000E+00 0. -1.
          1    1    1    2  502    0 -0.54303217515E+02  0.13964446313E+03  0.56798607384E+03  0.58741603280E+03  0.00000000000E+00 0. -1.
         22    1    3    3    0    0  0.11178119664E+03 -0.71450928732E+02  0.83303091377E+02  0.15665144803E+03  0.00000000000E+00 0.  1.
         22    1    3    3    0    0  0.50837458124E+00 -0.10041665272E+03  0.90309294189E+01  0.10082321298E+03  0.00000000000E+00 0.  1.
</event>
<event>
 7    1  0.5593520E-006  0.1067067E+03  0.7818608E-02  0.1294040E+00
          2   -1    0    0  502    0  0.00000000000E+00  0.00000000000E+00  0.17017754502E+04  0.17017754502E+04  0.00000000000E+00 0. -1.
          1   -1    0    0  501    0 -0.00000000000E+00 -0.00000000000E+00 -0.57027433947E+03  0.57027433947E+03  0.00000000000E+00 0. -1.
         25    2    1    2    0    0  0.70885472385E+02  0.75442293145E+02  0.76780099673E+02  0.17954454915E+03  0.12499908654E+03 0.  0.
          2    1    1    2  501    0 -0.10815793301E+03 -0.20118694654E+01 -0.51216105727E+03  0.52346072888E+03  0.00000000000E+00 0. -1.
          1    1    1    2  502    0  0.37272460629E+02 -0.73430423680E+02  0.15668820683E+04  0.15690445116E+04  0.00000000000E+00 0. -1.
         22    1    3    3    0    0 -0.81251371829E+01  0.49826503670E+02  0.82029032244E+02  0.96319574611E+02  0.00000000000E+00 0. -1.
         22    1    3    3    0    0  0.79010609568E+02  0.25615789475E+02 -0.52489325709E+01  0.83224974544E+02  0.00000000000E+00 0. -1.
</event>
<event>
 7    1  0.5593520E-006  0.2024245E+03  0.7818608E-02  0.1300128E+00
          2   -1    0    0  502    0  0.00000000000E+00  0.00000000000E+00  0.16645575361E+04  0.16645575361E+04  0.00000000000E+00 0. -1.
          1   -1    0    0  501    0 -0.00000000000E+00 -0.00000000000E+00 -0.37083313144E+03  0.37083313144E+03  0.00000000000E+00 0. -1.
         25    2    1    2    0    0 -0.10914425734E+03  0.13399157149E+03  0.16845736009E+02  0.21395242718E+03  0.12500260850E+03 0.  0.
          2    1    1    2  501    0  0.14090097032E+03 -0.15997187680E+03 -0.23023221325E+03  0.31376895452E+03  0.00000000000E+00 0. -1.
          1    1    1    2  502    0 -0.31756712975E+02  0.25980305310E+02  0.15071108819E+04  0.15076692859E+04  0.00000000000E+00 0. -1.
         22    1    3    3    0    0 -0.81984924893E+01 -0.23472171947E+02 -0.58394505194E+01  0.25539328836E+02  0.00000000000E+00 0. -1.
         22    1    3    3    0    0 -0.10094576485E+03  0.15746374344E+03  0.22685186529E+02  0.18841309834E+03  0.00000000000E+00 0. -1.
</event>
<event>
 7    1  0.5593520E-006  0.1134835E+03  0.7818608E-02  0.1323172E+00
          2   -1    0    0  502    0  0.00000000000E+00  0.00000000000E+00  0.41659281392E+03  0.41659281392E+03  0.00000000000E+00 0. -1.
          1   -1    0    0  501    0 -0.00000000000E+00 -0.00000000000E+00 -0.90516228419E+03  0.90516228419E+03  0.00000000000E+00 0. -1.
         25    2    1    2    0    0 -0.13296549627E+03 -0.15921054780E+02 -0.31064255205E+03  0.36063294079E+03  0.12499607853E+03 0.  0.
          2    1    1    2  501    0  0.26033859983E+02  0.53399649607E+02 -0.55972300023E+03  0.56286687718E+03  0.00000000000E+00 0. -1.
          1    1    1    2  502    0  0.10693163629E+03 -0.37478594827E+02  0.38179608202E+03  0.39825528013E+03  0.00000000000E+00 0. -1.
         22    1    3    3    0    0  0.46573427444E+01 -0.20816227275E+01 -0.14389334927E+03  0.14398374894E+03  0.00000000000E+00 0. -1.
         22    1    3    3    0    0 -0.13762283902E+03 -0.13839432052E+02 -0.16674920279E+03  0.21664919185E+03  0.00000000000E+00 0. -1.
</event>
<event>
 7    1  0.5593520E-006  0.4577419E+02  0.7818608E-02  0.1493588E+00
          2   -1    0    0  502    0  0.00000000000E+00  0.00000000000E+00  0.38665951303E+03  0.38665951303E+03  0.00000000000E+00 0. -1.
          1   -1    0    0  501    0 -0.00000000000E+00 -0.00000000000E+00 -0.12853552301E+04  0.12853552301E+04  0.00000000000E+00 0. -1.
         25    2    1    2    0    0 -0.71141639483E+02  0.43748244478E+01 -0.42785229538E+03  0.45140162185E+03  0.12500226231E+03 0.  0.
          2    1    1    2  501    0  0.37898033173E+02 -0.24078656494E+02 -0.84413414016E+03  0.84532744496E+03  0.00000000000E+00 0. -1.
          1    1    1    2  502    0  0.33243606310E+02  0.19703832047E+02  0.37329071847E+03  0.37528567633E+03  0.00000000000E+00 0. -1.
         22    1    3    3    0    0  0.95517582443E+01 -0.25867916508E+01 -0.29929134427E+03  0.29945489866E+03  0.00000000000E+00 0. -1.
         22    1    3    3    0    0 -0.80693397728E+02  0.69616160987E+01 -0.12856095111E+03  0.15194672319E+03  0.00000000000E+00 0. -1.
</event>
<event>
 7    1  0.5593520E-006  0.6452134E+02  0.7818608E-02  0.1410815E+00
          2   -1    0    0  502    0  0.00000000000E+00  0.00000000000E+00  0.32565078185E+03  0.32565078185E+03  0.00000000000E+00 0. -1.
          1   -1    0    0  501    0 -0.00000000000E+00 -0.00000000000E+00 -0.13435210010E+04  0.13435210010E+04  0.00000000000E+00 0. -1.
         25    2    1    2    0    0  0.10966767976E+02  0.60313680648E+02  0.85165104691E+02  0.16320771365E+03  0.12500261063E+03 0.  0.
          2    1    1    2  501    0 -0.50084116155E+02 -0.54273324498E+01 -0.12983604361E+04  0.12993374068E+04  0.00000000000E+00 0. -1.
          1    1    1    2  502    0  0.39117348179E+02 -0.54886348198E+02  0.19532511225E+03  0.20662666242E+03  0.00000000000E+00 0. -1.
         22    1    3    3    0    0 -0.82367928697E+01  0.26047946148E+02 -0.30564187805E+02  0.40994021900E+02  0.00000000000E+00 0.  1.
         22    1    3    3    0    0  0.19203560845E+02  0.34265734500E+02  0.11572929250E+03  0.12221369175E+03  0.00000000000E+00 0.  1.
</event>
<event>
 7    1  0.5593520E-006  0.7572493E+02  0.7818608E-02  0.1499396E+00
          2   -1    0    0  502    0  0.00000000000E+00  0.00000000000E+00  0.10161763624E+04  0.10161763624E+04  0.00000000000E+00 0. -1.
          1   -1    0    0  501    0 -0.00000000000E+00 -0.00000000000E+00 -0.25346000632E+03  0.25346000632E+03  0.00000000000E+00 0. -1.
         25    2    1    2    0    0 -0.47546239881E+02 -0.62783051137E+02  0.41202014443E+03  0.43770758742E+03  0.12499990493E+03 0.  0.
          2    1    1    2  501    0 -0.13432115593E+02  0.17977608504E+02 -0.23766470139E+03  0.23872185996E+03  0.00000000000E+00 0. -1.
          1    1    1    2  502    0  0.60978355474E+02  0.44805442633E+02  0.58836091301E+03  0.59320692130E+03  0.00000000000E+00 0. -1.
         22    1    3    3    0    0 -0.89772389780E+02 -0.31600574219E+02  0.27225903172E+03  0.28841404025E+03  0.00000000000E+00 0. -1.
         22    1    3    3    0    0  0.42226149899E+02 -0.31182476918E+02  0.13976111271E+03  0.14929354718E+03  0.00000000000E+00 0. -1.
</event>
<event>
 7    1  0.5593520E-006  0.5073734E+02  0.7818608E-02  0.1454268E+00
          2   -1    0    0  502    0  0.00000000000E+00  0.00000000000E+00  0.71071645374E+03  0.71071645374E+03  0.00000000000E+00 0. -1.
          1   -1    0    0  501    0 -0.00000000000E+00 -0.00000000000E+00 -0.68087101233E+02  0.68087101233E+02  0.00000000000E+00 0. -1.
         25    2    1    2    0    0 -0.30219218442E+01 -0.67240411177E+02  0.45091557136E+03  0.47273715415E+03  0.12500063806E+03 0.  0.
          2    1    1    2  501    0 -0.32956257716E+02  0.32287093710E+02 -0.44789929141E+02  0.64301703674E+02  0.00000000000E+00 0. -1.
          1    1    1    2  502    0  0.35978179560E+02  0.34953317467E+02  0.23650371029E+03  0.24176469715E+03  0.00000000000E+00 0. -1.
         22    1    3    3    0    0 -0.35181793406E+02 -0.90785087589E+02  0.25829723501E+03  0.27603831678E+03  0.00000000000E+00 0.  1.
         22    1    3    3    0    0  0.32159871562E+02  0.23544676412E+02  0.19261833635E+03  0.19669883737E+03  0.00000000000E+00 0.  1.
</event>
<event>
 7    1  0.5593520E-006  0.8319919E+02  0.7818608E-02  0.1321864E+00
          2   -1    0    0  502    0  0.00000000000E+00  0.00000000000E+00  0.14543133540E+04  0.14543133540E+04  0.00000000000E+00 0. -1.
          1   -1    0    0  501    0 -0.00000000000E+00 -0.00000000000E+00 -0.50838481269E+03  0.50838481269E+03  0.00000000000E+00 0. -1.
         25    2    1    2    0    0 -0.52742199999E+02  0.11377277745E+03  0.14041979391E+03  0.22598548980E+03  0.12500295409E+03 0.  0.
          2    1    1    2  501    0  0.75213485802E+02 -0.34931905558E+02 -0.46057301770E+03  0.46797949860E+03  0.00000000000E+00 0. -1.
          1    1    1    2  502    0 -0.22471285803E+02 -0.78840871897E+02  0.12660817651E+04  0.12687331782E+04  0.00000000000E+00 0. -1.
         22    1    3    3    0    0 -0.17264113021E+01  0.12234780803E+03  0.11665231194E+03  0.16905540070E+03  0.00000000000E+00 0.  1.
         22    1    3    3    0    0 -0.51015788697E+02 -0.85750305783E+01  0.23767481970E+02  0.56930089100E+02  0.00000000000E+00 0.  1.
</event>
<event>
 7    1  0.5593520E-006  0.8174591E+02  0.7818608E-02  0.1440491E+00
          2   -1    0    0  502    0  0.00000000000E+00  0.00000000000E+00  0.12249723402E+04  0.12249723402E+04  0.00000000000E+00 0. -1.
          1   -1    0    0  501    0 -0.00000000000E+00 -0.00000000000E+00 -0.27350584966E+03  0.27350584966E+03  0.00000000000E+00 0. -1.
         25    2    1    2    0    0 -0.58239817590E+02 -0.10168466820E+02  0.26684752542E+02  0.14082398579E+03  0.12499617948E+03 0.  0.
          2    1    1    2  501    0  0.75807160767E+02  0.36563608286E+02 -0.20802390499E+03  0.22440492000E+03  0.00000000000E+00 0. -1.
          1    1    1    2  502    0 -0.17567343176E+02 -0.26395141467E+02  0.11328056430E+04  0.11332492841E+04  0.00000000000E+00 0. -1.
         22    1    3    3    0    0  0.13108297257E+02 -0.20750066477E+02 -0.37136161498E+02  0.44513899027E+02  0.00000000000E+00 0.  1.
         22    1    3    3    0    0 -0.71348114848E+02  0.10581599657E+02  0.63820914040E+02  0.96310086764E+02  0.00000000000E+00 0.  1.
</event>
<event>
 7    1  0.5593520E-006  0.8562464E+02  0.7818608E-02  0.1370447E+00
          2   -1    0    0  502    0  0.00000000000E+00  0.00000000000E+00  0.25085530621E+04  0.25085530621E+04  0.00000000000E+00 0. -1.
          1   -1    0    0  501    0 -0.00000000000E+00 -0.00000000000E+00 -0.27626672797E+03  0.27626672797E+03  0.00000000000E+00 0. -1.
         25    2    1    2    0    0  0.58946082324E+02 -0.82048509654E+02  0.59629506434E+03  0.61757459186E+03  0.12499589669E+03 0.  0.
          2    1    1    2  501    0  0.19699969849E+02  0.48657300489E+02 -0.26206299228E+03  0.26726884148E+03  0.00000000000E+00 0. -1.
          1    1    1    2  502    0 -0.78646052173E+02  0.33391209165E+02  0.18980542620E+04  0.18999763567E+04  0.00000000000E+00 0. -1.
         22    1    3    3    0    0  0.40247704846E+02  0.26649088002E+02  0.23111478869E+03  0.23610187883E+03  0.00000000000E+00 0.  1.
         22    1    3    3    0    0  0.18698377478E+02 -0.10869759766E+03  0.36518027565E+03  0.38147271302E+03  0.00000000000E+00 0.  1.
</event>
<event>
 7    1  0.5593520E-006  0.3814705E+02  0.7818608E-02  0.1528686E+00
          2   -1    0    0  502    0  0.00000000000E+00  0.00000000000E+00  0.47094937241E+03  0.47094937241E+03  0.00000000000E+00 0. -1.
          1   -1    0    0  501    0 -0.00000000000E+00 -0.00000000000E+00 -0.28543784304E+04  0.28543784304E+04  0.00000000000E+00 0. -1.
         25    2    1    2    0    0 -0.53066607214E+02  0.40340908371E+02 -0.78982960531E+03  0.80243327397E+03  0.12499960023E+03 0.  0.
          2    1    1    2  501    0  0.36761787031E+02 -0.76116533307E+01 -0.20573560903E+04  0.20576985806E+04  0.00000000000E+00 0. -1.
          1    1    1    2  502    0  0.16304820183E+02 -0.32729255040E+02  0.46375663764E+03  0.46519594824E+03  0.00000000000E+00 0. -1.
         22    1    3    3    0    0 -0.24359699685E+02  0.27631605144E+01 -0.21376846916E+02  0.32526905921E+02  0.00000000000E+00 0. -1.
         22    1    3    3    0    0 -0.28706907529E+02  0.37577747856E+02 -0.76845275840E+03  0.76990636805E+03  0.00000000000E+00 0. -1.
</event>
<event>
 7    1  0.5593520E-006  0.2299475E+03  0.7818608E-02  0.1303352E+00
          2   -1    0    0  502    0  0.00000000000E+00  0.00000000000E+00  0.10799156042E+04  0.10799156042E+04  0.00000000000E+00 0. -1.
          1   -1    0    0  501    0 -0.00000000000E+00 -0.00000000000E+00 -0.59540295625E+03  0.59540295625E+03  0.00000000000E+00 0. -1.
         25    2    1    2    0    0  0.10790061675E+03  0.22392480526E+03 -0.35382871032E+03  0.45011636915E+03  0.12500051210E+03 0.  0.
          2    1    1    2  501    0 -0.34439011164E+02 -0.65909233789E+01 -0.17895545567E+03  0.18235827614E+03  0.00000000000E+00 0. -1.
          1    1    1    2  502    0 -0.73461605587E+02 -0.21733388188E+03  0.10172968140E+04  0.10428439152E+04  0.00000000000E+00 0. -1.
         22    1    3    3    0    0 -0.26062059980E+02  0.33843154999E+02 -0.33532172339E+02  0.54304665476E+02  0.00000000000E+00 0.  1.
         22    1    3    3    0    0  0.13396267673E+03  0.19008165026E+03 -0.32029653798E+03  0.39581170367E+03  0.00000000000E+00 0.  1.
</event>
<event>
 7    1  0.5593520E-006  0.8851748E+02  0.7818608E-02  0.1452902E+00
          2   -1    0    0  502    0  0.00000000000E+00  0.00000000000E+00  0.73857558389E+02  0.73857558389E+02  0.00000000000E+00 0. -1.
          1   -1    0    0  501    0 -0.00000000000E+00 -0.00000000000E+00 -0.97481777328E+03  0.97481777328E+03  0.00000000000E+00 0. -1.
         25    2    1    2    0    0 -0.63629500856E+02 -0.15147908402E+02 -0.33538156982E+03  0.36384577964E+03  0.12499912593E+03 0.  0.
          2    1    1    2  501    0 -0.26475909879E+02  0.35365447446E+01 -0.59011885279E+03  0.59072306657E+03  0.00000000000E+00 0. -1.
          1    1    1    2  502    0  0.90105410735E+02  0.11611363657E+02  0.24540207722E+02  0.94106485456E+02  0.00000000000E+00 0. -1.
         22    1    3    3    0    0  0.29730532897E+02  0.23266770449E+02 -0.12352266852E+03  0.12916306296E+03  0.00000000000E+00 0.  1.
         22    1    3    3    0    0 -0.93360033753E+02 -0.38414678851E+02 -0.21185890129E+03  0.23468271669E+03  0.00000000000E+00 0.  1.
</event>
<event>
 7    1  0.5593520E-006  0.4802906E+02  0.7818608E-02  0.1504842E+00
          2   -1    0    0  502    0  0.00000000000E+00  0.00000000000E+00  0.83571749704E+03  0.83571749704E+03  0.00000000000E+00 0. -1.
          1   -1    0    0  501    0 -0.00000000000E+00 -0.00000000000E+00 -0.81378735983E+03  0.81378735983E+03  0.00000000000E+00 0. -1.
         25    2    1    2    0    0 -0.39441971927E+02  0.68373819014E+02  0.40474274797E+03  0.43089642809E+03  0.12499756568E+03 0.  0.
          2    1    1    2  501    0  0.13921298434E+02 -0.31114112973E+02 -0.79912598654E+03  0.79985263202E+03  0.00000000000E+00 0. -1.
          1    1    1    2  502    0  0.25520673493E+02 -0.37259706042E+02  0.41631337578E+03  0.41875579676E+03  0.00000000000E+00 0. -1.
         22    1    3    3    0    0 -0.12892168987E+02  0.15266930358E+02 -0.17794669541E+01  0.20061248376E+02  0.00000000000E+00 0.  1.
         22    1    3    3    0    0 -0.26549802940E+02  0.53106888656E+02  0.40652221493E+03  0.41083517971E+03  0.00000000000E+00 0.  1.
</event>
<event>
 7    1  0.5593520E-006  0.4949770E+02  0.7818608E-02  0.1564126E+00
          2   -1    0    0  502    0  0.00000000000E+00  0.00000000000E+00  0.18387248456E+03  0.18387248456E+03  0.00000000000E+00 0. -1.
          1   -1    0    0  501    0 -0.00000000000E+00 -0.00000000000E+00 -0.14724483927E+03  0.14724483927E+03  0.00000000000E+00 0. -1.
         25    2    1    2    0    0 -0.63216128369E+01 -0.30516637814E+02 -0.15107300652E+02  0.12970298530E+03  0.12499362340E+03 0.  0.
          2    1    1    2  501    0  0.19012305256E+02  0.48997306534E+02 -0.64406594267E+02  0.83128895000E+02  0.00000000000E+00 0. -1.
          1    1    1    2  502    0 -0.12690692419E+02 -0.18480668720E+02  0.11614154021E+03  0.11828544354E+03  0.00000000000E+00 0. -1.
         22    1    3    3    0    0  0.35814301069E+02  0.88921474655E+01  0.36786118984E+02  0.52105210848E+02  0.00000000000E+00 0. -1.
         22    1    3    3    0    0 -0.42135913906E+02 -0.39408785280E+02 -0.51893419635E+02  0.77597774449E+02  0.00000000000E+00 0. -1.
</event>
<event>
 7    1  0.5593520E-006  0.9780668E+02  0.7818608E-02  0.1454735E+00
          2   -1    0    0  502    0  0.00000000000E+00  0.00000000000E+00  0.53816294435E+03  0.53816294435E+03  0.00000000000E+00 0. -1.
          1   -1    0    0  501    0 -0.00000000000E+00 -0.00000000000E+00 -0.70100745599E+03  0.70100745599E+03  0.00000000000E+00 0. -1.
         25    2    1    2    0    0  0.50965322926E+01  0.77621278632E+02 -0.25700695505E+03  0.29619061344E+03  0.12500106801E+03 0.  0.
          2    1    1    2  501    0 -0.12608058492E+02  0.20246955472E+02 -0.41942202036E+03  0.42009967092E+03  0.00000000000E+00 0. -1.
          1    1    1    2  502    0  0.75115261993E+01 -0.97868234103E+02  0.51358446377E+03  0.52288011599E+03  0.00000000000E+00 0. -1.
         22    1    3    3    0    0  0.42857906104E+00  0.83193787586E+02 -0.69116289783E+02  0.10815938002E+03  0.00000000000E+00 0. -1.
         22    1    3    3    0    0  0.46679532315E+01 -0.55725089545E+01 -0.18789066527E+03  0.18803123341E+03  0.00000000000E+00 0. -1.
</event>
<event>
 7    1  0.5593520E-006  0.1872720E+03  0.7818608E-02  0.1202588E+00
          2   -1    0    0  502    0  0.00000000000E+00  0.00000000000E+00  0.10366069088E+04  0.10366069088E+04  0.00000000000E+00 0. -1.
          1   -1    0    0  501    0 -0.00000000000E+00 -0.00000000000E+00 -0.10296379387E+04  0.10296379387E+04  0.00000000000E+00 0. -1.
         25    2    1    2    0    0 -0.22595068196E+03 -0.18372996656E+03  0.34082120660E+03  0.46539687240E+03  0.12499897075E+03 0.  0.
          2    1    1    2  501    0  0.16541597799E+03  0.83110567199E+02 -0.95292356232E+03  0.97073844458E+03  0.00000000000E+00 0. -1.
          1    1    1    2  502    0  0.60534703968E+02  0.10061939936E+03  0.61907132590E+03  0.63010953053E+03  0.00000000000E+00 0. -1.
         22    1    3    3    0    0 -0.20429970769E+03 -0.10082036376E+03  0.27641241587E+03  0.35819958118E+03  0.00000000000E+00 0.  1.
         22    1    3    3    0    0 -0.21650974269E+02 -0.82909602796E+02  0.64408790724E+02  0.10719729122E+03  0.00000000000E+00 0.  1.
</event>
<event>
 7    1  0.5593520E-006  0.4346810E+02  0.7818608E-02  0.1586394E+00
          2   -1    0    0  502    0  0.00000000000E+00  0.00000000000E+00  0.11741674589E+04  0.11741674589E+04  0.00000000000E+00 0. -1.
          1   -1    0    0  501    0 -0.00000000000E+00 -0.00000000000E+00 -0.19444769514E+03  0.19444769514E+03  0.00000000000E+00 0. -1.
         25    2    1    2    0    0  0.59569315523E+02  0.24382977998E+02  0.38640830441E+03  0.41119216594E+03  0.12499834656E+03 0.  0.
          2    1    1    2  501    0 -0.37499281609E+02 -0.21722592445E+02 -0.17931466095E+03  0.18447713889E+03  0.00000000000E+00 0. -1.
          1    1    1    2  502    0 -0.22070033914E+02 -0.26603855527E+01  0.77262612027E+03  0.77294584918E+03  0.00000000000E+00 0. -1.
         22    1    3    3    0    0  0.63372226250E+02  0.71006919757E+01  0.71573493458E+02  0.95860439453E+02  0.00000000000E+00 0.  1.
         22    1    3    3    0    0 -0.38029107262E+01  0.17282286022E+02  0.31483481095E+03  0.31533172649E+03  0.00000000000E+00 0.  1.
</event>
<event>
 7    1  0.5593520E-006  0.7731382E+02  0.7818608E-02  0.1371501E+00
          2   -1    0    0  502    0  0.00000000000E+00  0.00000000000E+00  0.23064244642E+04  0.23064244642E+04  0.00000000000E+00 0. -1.
          1   -1    0    0  501    0 -0.00000000000E+00 -0.00000000000E+00 -0.58531162104E+02  0.58531162104E+02  0.00000000000E+00 0. -1.
         25    2    1    2    0    0  0.47742783442E+01  0.11055283862E+03  0.57549824653E+03  0.59922283953E+03  0.12500022321E+03 0.  0.
          2    1    1    2  501    0  0.34219300255E+02 -0.68114961682E+02 -0.14718360181E+02  0.77635292498E+02  0.00000000000E+00 0. -1.
          1    1    1    2  502    0 -0.38993578599E+02 -0.42437876934E+02  0.16871134157E+04  0.16880974943E+04  0.00000000000E+00 0. -1.
         22    1    3    3    0    0 -0.22178315973E+02 -0.96945537462E+01  0.23859467802E+02  0.33987295796E+02  0.00000000000E+00 0. -1.
         22    1    3    3    0    0  0.26952594317E+02  0.12024739236E+03  0.55163877872E+03  0.56523554374E+03  0.00000000000E+00 0. -1.
</event>
<event>
 7    1  0.5593520E-006  0.3463918E+02  0.7818608E-02  0.1596312E+00
          2   -1    0    0  502    0  0.00000000000E+00  0.00000000000E+00  0.98482152959E+03  0.98482152959E+03  0.00000000000E+00 0. -1.
          1   -1    0    0  501    0 -0.00000000000E+00 -0.00000000000E+00 -0.85944721321E+02  0.85944721321E+02  0.00000000000E+00 0. -1.
         25    2    1    2    0    0 -0.31513740427E+02 -0.13705843528E+01  0.29346743302E+03  0.32053533661E+03  0.12499909374E+03 0.  0.
          2    1    1    2  501    0  0.61164518047E+01  0.25540193916E+02 -0.69559492667E+02  0.74352104933E+02  0.00000000000E+00 0. -1.
          1    1    1    2  502    0  0.25397288623E+02 -0.24169609563E+02  0.67496886791E+03  0.67587880937E+03  0.00000000000E+00 0. -1.
         22    1    3    3    0    0 -0.27036846504E+02 -0.62251617812E+02  0.15343346575E+03  0.16777390560E+03  0.00000000000E+00 0. -1.
         22    1    3    3    0    0 -0.44768939233E+01  0.60881033459E+02  0.14003396728E+03  0.15276143102E+03  0.00000000000E+00 0. -1.
</event>
<event>
 7    1  0.5593520E-006  0.6282121E+02  0.7818608E-02  0.1527497E+00
          2   -1    0    0  502    0  0.00000000000E+00  0.00000000000E+00  0.14562912986E+04  0.14562912986E+04  0.00000000000E+00 0. -1.
          1   -1    0    0  501    0 -0.00000000000E+00 -0.00000000000E+00 -0.69119810022E+03  0.69119810022E+03  0.00000000000E+00 0. -1.
         25    2    1    2    0    0  0.83938112795E+02 -0.10607737021E+02  0.11162376623E+02  0.15135236225E+03  0.12499923217E+03 0.  0.
          2    1    1    2  501    0 -0.22368012706E+02 -0.70674185687E+00 -0.62018867464E+03  0.62059231354E+03  0.00000000000E+00 0. -1.
          1    1    1    2  502    0 -0.61570100089E+02  0.11314478878E+02  0.13741194964E+04  0.13755447230E+04  0.00000000000E+00 0. -1.
         22    1    3    3    0    0  0.22403786097E+01 -0.37028191052E+02 -0.37425129770E+02  0.52694843839E+02  0.00000000000E+00 0.  1.
         22    1    3    3    0    0  0.81697734185E+02  0.26420454031E+02  0.48587506393E+02  0.98657518415E+02  0.00000000000E+00 0.  1.
</event>
<event>
 7    1  0.5593520E-006  0.6307019E+02  0.7818608E-02  0.1430162E+00
          2   -1    0    0  502    0  0.00000000000E+00  0.00000000000E+00  0.90167483139E+03  0.90167483139E+03  0.00000000000E+00 0. -1.
          1   -1    0    0  501    0 -0.00000000000E+00 -0.00000000000E+00 -0.43775771487E+03  0.43775771487E+03  0.00000000000E+00 0. -1.
         25    2    1    2    0    0 -0.95146560609E+02 -0.37319881943E+02  0.14808089757E+03  0.21908423285E+03  0.12499722907E+03 0.  0.
          2    1    1    2  501    0  0.50735674407E+02  0.36656189763E+02 -0.39912783688E+03  0.40400595921E+03  0.00000000000E+00 0. -1.
          1    1    1    2  502    0  0.44410886202E+02  0.66369218035E+00  0.71496405583E+03  0.71634235420E+03  0.00000000000E+00 0. -1.
         22    1    3    3    0    0 -0.45770921488E+02 -0.79403624167E+02  0.59441648239E+02  0.10923928932E+03  0.00000000000E+00 0. -1.
         22    1    3    3    0    0 -0.49375639122E+02  0.42083742224E+02  0.88639249331E+02  0.10984494353E+03  0.00000000000E+00 0. -1.
</event>
<event>
 7    1  0.5593520E-006  0.5024902E+02  0.7818608E-02  0.1533965E+00
          2   -1    0    0  502    0  0.00000000000E+00  0.00000000000E+00  0.14781365761E+04  0.14781365761E+04  0.00000000000E+00 0. -1.
          1   -1    0    0  501    0 -0.00000000000E+00 -0.00000000000E+00 -0.52090183629E+03  0.52090183629E+03  0.00000000000E+00 0. -1.
         25    2    1    2    0    0 -0.68190155585E+02 -0.20002989866E+02  0.61782360536E+01  0.14392237344E+03  0.12500184820E+03 0.  0.
          2    1    1    2  501    0  0.49913957266E+02  0.38647380359E+00 -0.45052319076E+03  0.45327993327E+03  0.00000000000E+00 0. -1.
          1    1    1    2  502    0  0.18276198319E+02  0.19616516063E+02  0.14015796945E+04  0.14018361057E+04  0.00000000000E+00 0. -1.
         22    1    3    3    0    0 -0.24309796978E+02  0.24185871885E+02 -0.49613480935E+02  0.60311028166E+02  0.00000000000E+00 0. -1.
         22    1    3    3    0    0 -0.43880358607E+02 -0.44188861751E+02  0.55791716989E+02  0.83611345276E+02  0.00000000000E+00 0. -1.
</event>
<event>
 7    1  0.5593520E-006  0.7716323E+02  0.7818608E-02  0.1393226E+00
          2   -1    0    0  502    0  0.00000000000E+00  0.00000000000E+00  0.27713960904E+04  0.27713960904E+04  0.00000000000E+00 0. -1.
          1   -1    0    0  501    0 -0.00000000000E+00 -0.00000000000E+00 -0.39894909734E+03  0.39894909734E+03  0.00000000000E+00 0. -1.
         25    2    1    2    0    0  0.57461259826E+02 -0.97773035007E+02  0.11119686766E+03  0.20211520145E+03  0.12499779409E+03 0.  0.
          2    1    1    2  501    0  0.13392782030E+01  0.48380216812E+02 -0.35126643468E+03  0.35458503518E+03  0.00000000000E+00 0. -1.
          1    1    1    2  502    0 -0.58800538029E+02  0.49392818194E+02  0.26125165601E+04  0.26136449511E+04  0.00000000000E+00 0. -1.
         22    1    3    3    0    0  0.60039254882E+02 -0.93248153744E+02  0.13673134298E+03  0.17605507791E+03  0.00000000000E+00 0.  1.
         22    1    3    3    0    0 -0.25779950554E+01 -0.45248812624E+01 -0.25534475327E+02  0.26060123545E+02  0.00000000000E+00 0.  1.
</event>
<event>
 7    1  0.5593520E-006  0.1641927E+03  0.7818608E-02  0.1243246E+00
          2   -1    0    0  502    0  0.00000000000E+00  0.00000000000E+00  0.12172250084E+04  0.12172250084E+04  0.00000000000E+00 0. -1.
          1   -1    0    0  501    0 -0.00000000000E+00 -0.00000000000E+00 -0.17945449847E+03  0.17945449847E+03  0.00000000000E+00 0. -1.
         25    2    1    2    0    0  0.88189032385E+02  0.34220754971E+02  0.45938692987E+03  0.48539389413E+03  0.12499006210E+03 0.  0.
          2    1    1    2  501    0 -0.13052953180E+03 -0.11087443922E+03 -0.11892185673E+03  0.20850301665E+03  0.00000000000E+00 0. -1.
          1    1    1    2  502    0  0.42340499417E+02  0.76653684254E+02  0.69730543682E+03  0.70278259613E+03  0.00000000000E+00 0. -1.
         22    1    3    3    0    0  0.70824689992E+02  0.74829208034E+02  0.23336769808E+03  0.25510003841E+03  0.00000000000E+00 0.  1.
         22    1    3    3    0    0  0.17364342393E+02 -0.40608453063E+02  0.22601923179E+03  0.23029385573E+03  0.00000000000E+00 0.  1.
</event>
<event>
 7    1  0.5593520E-006  0.8321960E+02  0.7818608E-02  0.1441358E+00
          2   -1    0    0  502    0  0.00000000000E+00  0.00000000000E+00  0.31830697960E+04  0.31830697960E+04  0.00000000000E+00 0. -1.
          1   -1    0    0  501    0 -0.00000000000E+00 -0.00000000000E+00 -0.92521001284E+03  0.92521001284E+03  0.00000000000E+00 0. -1.
         25    2    1    2    0    0  0.44819587781E+02  0.52444838561E+02  0.22139604431E+03  0.26344335230E+03  0.12500773934E+03 0.  0.
          2    1    1    2  501    0 -0.16308140623E+02  0.26298100966E+02 -0.90332513531E+03  0.90385499149E+03  0.00000000000E+00 0. -1.
          1    1    1    2  502    0 -0.28511447158E+02 -0.78742939527E+02  0.29397888741E+04  0.29409814650E+04  0.00000000000E+00 0. -1.
         22    1    3    3    0    0  0.45568794824E+02  0.36684215509E+02  0.20588998217E+02  0.62017365123E+02  0.00000000000E+00 0. -1.
         22    1    3    3    0    0 -0.74920704237E+00  0.15760623052E+02  0.20080704609E+03  0.20142598717E+03  0.00000000000E+00 0. -1.
</event>
<event>
 7    1  0.5593520E-006  0.6069199E+02  0.7818608E-02  0.1493975E+00
          2   -1    0    0  502    0  0.00000000000E+00  0.00000000000E+00  0.18484084710E+04  0.18484084710E+04  0.00000000000E+00 0. -1.
          1   -1    0    0  501    0 -0.00000000000E+00 -0.00000000000E+00 -0.29609586806E+02  0.29609586806E+02  0.00000000000E+00 0. -1.
         25    2    1    2    0    0  0.43281430339E+02 -0.66746729933E+02  0.72199176102E+03  0.73703786090E+03  0.12499718895E+03 0.  0.
          2    1    1    2  501    0  0.21224002412E+01  0.28989965380E+02 -0.11383702810E+02  0.31217164592E+02  0.00000000000E+00 0. -1.
          1    1    1    2  502    0 -0.45403830580E+02  0.37756764554E+02  0.11081908259E+04  0.11097630323E+04  0.00000000000E+00 0. -1.
         22    1    3    3    0    0 -0.20252623183E+02 -0.78868492787E+02  0.34043081946E+03  0.35003364229E+03  0.00000000000E+00 0. -1.
         22    1    3    3    0    0  0.63534053522E+02  0.12121762854E+02  0.38156094157E+03  0.38700421861E+03  0.00000000000E+00 0. -1.
</event>
<event>
 7    1  0.5593520E-006  0.6665416E+02  0.7818608E-02  0.1470079E+00
          2   -1    0    0  502    0  0.00000000000E+00  0.00000000000E+00  0.96153851581E+02  0.96153851581E+02  0.00000000000E+00 0. -1.
          1   -1    0    0  501    0 -0.00000000000E+00 -0.00000000000E+00 -0.10431713857E+04  0.10431713857E+04  0.00000000000E+00 0. -1.
         25    2    1    2    0    0  0.38413392846E+02 -0.24765614822E+02 -0.66886646760E+03  0.68197948869E+03  0.12499898833E+03 0.  0.
          2    1    1    2  501    0  0.27880053304E+02  0.14269825511E+02 -0.35439004757E+03  0.35577131855E+03  0.00000000000E+00 0. -1.
          1    1    1    2  502    0 -0.66293446150E+02  0.10495789310E+02  0.76238981078E+02  0.10157443001E+03  0.00000000000E+00 0. -1.
         22    1    3    3    0    0  0.36700076407E+02 -0.24255796067E+02 -0.67250511723E+02  0.80360877161E+02  0.00000000000E+00 0.  1.
         22    1    3    3    0    0  0.17133164384E+01 -0.50981875418E+00 -0.60161595588E+03  0.60161861153E+03  0.00000000000E+00 0.  1.
</event>
<event>
 7    1  0.5593520E-006  0.1009529E+03  0.7818608E-02  0.1328654E+00
          2   -1    0    0  502    0  0.00000000000E+00  0.00000000000E+00  0.11411346292E+04  0.11411346292E+04  0.00000000000E+00 0. -1.
          1   -1    0    0  501    0 -0.00000000000E+00 -0.00000000000E+00 -0.35437520038E+03  0.35437520038E+03  0.00000000000E+00 0. -1.
         25    2    1    2    0    0 -0.46167593830E+02  0.57742599767E+02 -0.10752573610E+03  0.18070011788E+03  0.12500037653E+03 0.  0.
          2    1    1    2  501    0 -0.52964503632E+02 -0.35242297156E+02 -0.20304655714E+03  0.21277961021E+03  0.00000000000E+00 0. -1.
          1    1    1    2  502    0  0.99132097462E+02 -0.22500302612E+02  0.10973317220E+04  0.11020301015E+04  0.00000000000E+00 0. -1.
         22    1    3    3    0    0 -0.80443486897E+02  0.56022163486E+02 -0.10868333763E+03  0.14636155665E+03  0.00000000000E+00 0.  1.
         22    1    3    3    0    0  0.34275893067E+02  0.17204362813E+01  0.11576015324E+01  0.34338561237E+02  0.00000000000E+00 0.  1.
</event>
<event>
 7    1  0.5593520E-006  0.1166082E+03  0.7818608E-02  0.1348185E+00
          2   -1    0    0  502    0  0.00000000000E+00  0.00000000000E+00  0.13641509313E+04  0.13641509313E+04  0.00000000000E+00 0. -1.
          1   -1    0    0  501    0 -0.00000000000E+00 -0.00000000000E+00 -0.30336182723E+03  0.30336182723E+03  0.00000000000E+00 0. -1.
         25    2    1    2    0    0 -0.11601422113E+03 -0.16590579113E+02  0.38590150668E+03  0.42222961913E+03  0.12499332620E+03 0.  0.
          2    1    1    2  501    0  0.11299509870E+03 -0.29796174050E+02 -0.27263363785E+03  0.29662232688E+03  0.00000000000E+00 0. -1.
          1    1    1    2  502    0  0.30191224325E+01  0.46386753163E+02  0.94752123524E+03  0.94866081252E+03  0.00000000000E+00 0. -1.
         22    1    3    3    0    0 -0.68725602294E+02 -0.70065164825E+02  0.25301671807E+03  0.27138495786E+03  0.00000000000E+00 0.  1.
         22    1    3    3    0    0 -0.47288618835E+02  0.53474585711E+02  0.13288478861E+03  0.15084466127E+03  0.00000000000E+00 0.  1.
</event>
<event>
 7    1  0.5593520E-006  0.5013687E+02  0.7818608E-02  0.1524175E+00
          2   -1    0    0  502    0  0.00000000000E+00  0.00000000000E+00  0.40470593791E+03  0.40470593791E+03  0.00000000000E+00 0. -1.
          1   -1    0    0  501    0 -0.00000000000E+00 -0.00000000000E+00 -0.16814635801E+04  0.16814635801E+04  0.00000000000E+00 0. -1.
         25    2    1    2    0    0  0.32158082428E+02  0.21308180281E+02 -0.25322771784E+03  0.28502062797E+03  0.12499720186E+03 0.  0.
          2    1    1    2  501    0 -0.13436836330E+02  0.25321616423E+02 -0.14105697435E+04  0.14108609904E+04  0.00000000000E+00 0. -1.
          1    1    1    2  502    0 -0.18721246098E+02 -0.46629796704E+02  0.38703981918E+03  0.39028789967E+03  0.00000000000E+00 0. -1.
         22    1    3    3    0    0 -0.20996566029E+02 -0.36600366757E+01 -0.21246981381E+03  0.21353611740E+03  0.00000000000E+00 0.  1.
         22    1    3    3    0    0  0.53154648457E+02  0.24968216956E+02 -0.40757904033E+02  0.71484510572E+02  0.00000000000E+00 0.  1.
</event>
<event>
 7    1  0.5593520E-006  0.3380889E+02  0.7818608E-02  0.1631798E+00
          2   -1    0    0  502    0  0.00000000000E+00  0.00000000000E+00  0.66288574888E+02  0.66288574888E+02  0.00000000000E+00 0. -1.
          1   -1    0    0  501    0 -0.00000000000E+00 -0.00000000000E+00 -0.35618785198E+03  0.35618785198E+03  0.00000000000E+00 0. -1.
         25    2    1    2    0    0  0.35729260039E+02 -0.58330039802E+01 -0.11558219001E+03  0.17405573028E+03  0.12500220253E+03 0.  0.
          2    1    1    2  501    0 -0.23919436653E+02  0.24177218510E+02 -0.20664208889E+03  0.20942213409E+03  0.00000000000E+00 0. -1.
          1    1    1    2  502    0 -0.11809823386E+02 -0.18344214529E+02  0.32325001808E+02  0.38998562499E+02  0.00000000000E+00 0. -1.
         22    1    3    3    0    0  0.62326679840E+02  0.16565645746E+02 -0.12265071532E+03  0.13857212421E+03  0.00000000000E+00 0. -1.
         22    1    3    3    0    0 -0.26597419801E+02 -0.22398649727E+02  0.70685253147E+01  0.35483606071E+02  0.00000000000E+00 0. -1.
</event>
<event>
 7    1  0.5593520E-006  0.6260009E+02  0.7818608E-02  0.1444099E+00
          2   -1    0    0  502    0  0.00000000000E+00  0.00000000000E+00  0.83766881275E+03  0.83766881275E+03  0.00000000000E+00 0. -1.
          1   -1    0    0  501    0 -0.00000000000E+00 -0.00000000000E+00 -0.82127069079E+03  0.82127069079E+03  0.00000000000E+00 0. -1.
         25    2    1    2    0    0  0.80309173313E+01 -0.44486052446E+02 -0.15979207051E+03  0.20785535010E+03  0.12500734488E+03 0.  0.
          2    1    1    2  501    0 -0.48293981918E+02  0.42622007872E+02 -0.63531835444E+03  0.63857525456E+03  0.00000000000E+00 0. -1.
          1    1    1    2  502    0  0.40263064587E+02  0.18640445744E+01  0.81150854692E+03  0.81250889888E+03  0.00000000000E+00 0. -1.
         22    1    3    3    0    0 -0.38904088567E+01 -0.73495341012E+02 -0.39472241340E+02  0.83515018218E+02  0.00000000000E+00 0.  1.
         22    1    3    3    0    0  0.11921326188E+02  0.29009288566E+02 -0.12031982917E+03  0.12434033189E+03  0.00000000000E+00 0.  1.
</event>
<event>
 7    1  0.5593520E-006  0.5540401E+02  0.7818608E-02  0.1431401E+00
          2   -1    0    0  502    0  0.00000000000E+00  0.00000000000E+00  0.10735382300E+04  0.10735382300E+04  0.00000000000E+00 0. -1.
          1   -1    0    0  501    0 -0.00000000000E+00 -0.00000000000E+00 -0.84383353323E+02  0.84383353323E+02  0.00000000000E+00 0. -1.
         25    2    1    2    0    0  0.31355676102E+02  0.15621868012E+01  0.52061794529E+03  0.53633217465E+03  0.12499415087E+03 0.  0.
          2    1    1    2  501    0 -0.23551451210E+02 -0.51039925147E+02 -0.64869755243E+02  0.85836064440E+02  0.00000000000E+00 0. -1.
          1    1    1    2  502    0 -0.78042248919E+01  0.49477738346E+02  0.53340668660E+03  0.53575334420E+03  0.00000000000E+00 0. -1.
         22    1    3    3    0    0  0.68806126910E+02 -0.78598270500E+01  0.45463345208E+03  0.45987784871E+03  0.00000000000E+00 0.  1.
         22    1    3    3    0    0 -0.37450450808E+02  0.94220138513E+01  0.65984493213E+02  0.76454325942E+02  0.00000000000E+00 0.  1.
</event>
<event>
 7    1  0.5593520E-006  0.8419744E+02  0.7818608E-02  0.1319299E+00
          2   -1    0    0  502    0  0.00000000000E+00  0.00000000000E+00  0.11200242652E+03  0.11200242652E+03  0.00000000000E+00 0. -1.
          1   -1    0    0  501    0 -0.00000000000E+00 -0.00000000000E+00 -0.60744511954E+03  0.60744511954E+03  0.00000000000E+00 0. -1.
         25    2    1    2    0    0 -0.15418405957E+02 -0.67983726737E+02 -0.91311305857E+02  0.16979434613E+03  0.12503140029E+03 0.  0.
          2    1    1    2  501    0  0.82877648909E+02  0.10823477392E+01 -0.44027008993E+03  0.44800404937E+03  0.00000000000E+00 0. -1.
          1    1    1    2  502    0 -0.67459242952E+02  0.66901378997E+02  0.36138702770E+02  0.10164915056E+03  0.00000000000E+00 0. -1.
         22    1    3    3    0    0  0.54828274204E+02 -0.29934558390E+02 -0.31265535969E+02  0.69855215823E+02  0.00000000000E+00 0.  1.
         22    1    3    3    0    0 -0.70246680161E+02 -0.38049168346E+02 -0.60045769888E+02  0.99939130309E+02  0.00000000000E+00 0.  1.
</event>
<event>
 7    1  0.5593520E-006  0.6399957E+02  0.7818608E-02  0.1406074E+00
          2   -1    0    0  502    0  0.00000000000E+00  0.00000000000E+00  0.10271897853E+04  0.10271897853E+04  0.00000000000E+00 0. -1.
          1   -1    0    0  501    0 -0.00000000000E+00 -0.00000000000E+00 -0.45316228032E+03  0.45316228032E+03  0.00000000000E+00 0. -1.
         25    2    1    2    0    0  0.71038729015E+02 -0.13132469181E+02  0.11946444455E+03  0.18739334542E+03  0.12500219850E+03 0.  0.
          2    1    1    2  501    0 -0.36417337982E+02  0.52873276934E+02 -0.41593791746E+03  0.42086358491E+03  0.00000000000E+00 0. -1.
          1    1    1    2  502    0 -0.34621391034E+02 -0.39740807753E+02  0.87050097789E+03  0.87209513530E+03  0.00000000000E+00 0. -1.
         22    1    3    3    0    0  0.36333680231E+02  0.69357838616E+01 -0.20160500641E+02  0.42127036485E+02  0.00000000000E+00 0.  1.
         22    1    3    3    0    0  0.34705048784E+02 -0.20068253043E+02  0.13962494519E+03  0.14526630894E+03  0.00000000000E+00 0.  1.
</event>
<event>
 7    1  0.5593520E-006  0.5750002E+02  0.7818608E-02  0.1462775E+00
          2   -1    0    0  502    0  0.00000000000E+00  0.00000000000E+00  0.94874158649E+02  0.94874158649E+02  0.00000000000E+00 0. -1.
          1   -1    0    0  501    0 -0.00000000000E+00 -0.00000000000E+00 -0.30928327216E+04  0.30928327216E+04  0.00000000000E+00 0. -1.
         25    2    1    2    0    0 -0.11305119490E+01 -0.24145251848E+02 -0.47309543169E+03  0.48992780307E+03  0.12500277392E+03 0.  0.
          2    1    1    2  501    0 -0.27596311458E+02 -0.26508598516E+02 -0.26013589400E+04  0.26016403665E+04  0.00000000000E+00 0. -1.
          1    1    1    2  502    0  0.28726823407E+02  0.50653850363E+02  0.76495808697E+02  0.96138710663E+02  0.00000000000E+00 0. -1.
         22    1    3    3    0    0  0.21962987880E+01 -0.60042191876E+02 -0.42798499168E+03  0.43218172293E+03  0.00000000000E+00 0. -1.
         22    1    3    3    0    0 -0.33268107370E+01  0.35896940028E+02 -0.45110440015E+02  0.57746080139E+02  0.00000000000E+00 0. -1.
</event>
<event>
 7    1  0.5593520E-006  0.4513816E+02  0.7818608E-02  0.1583417E+00
          2   -1    0    0  502    0  0.00000000000E+00  0.00000000000E+00  0.13118317950E+04  0.13118317950E+04  0.00000000000E+00 0. -1.
          1   -1    0    0  501    0 -0.00000000000E+00 -0.00000000000E+00 -0.48087337348E+02  0.48087337348E+02  0.00000000000E+00 0. -1.
         25    2    1    2    0    0  0.46861888680E+02 -0.11309197859E+02  0.33597394763E+03  0.36170065282E+03  0.12499973681E+03 0.  0.
          2    1    1    2  501    0 -0.28363627033E+01  0.21616635560E+02 -0.31265946457E+02  0.38116706235E+02  0.00000000000E+00 0. -1.
          1    1    1    2  502    0 -0.44025525977E+02 -0.10307437702E+02  0.95903645653E+03  0.96010177333E+03  0.00000000000E+00 0. -1.
         22    1    3    3    0    0 -0.58653395391E+01  0.36560951080E+02  0.30315156847E+02  0.47855136469E+02  0.00000000000E+00 0.  1.
         22    1    3    3    0    0  0.52727228219E+02 -0.47870148939E+02  0.30565879078E+03  0.31384551635E+03  0.00000000000E+00 0.  1.
</event>
<event>
 7    1  0.5593520E-006  0.3006917E+02  0.7818608E-02  0.1633795E+00
          2   -1    0    0  502    0  0.00000000000E+00  0.00000000000E+00  0.37207430624E+03  0.37207430624E+03  0.00000000000E+00 0. -1.
          1   -1    0    0  501    0 -0.00000000000E+00 -0.00000000000E+00 -0.40318613811E+03  0.40318613811E+03  0.00000000000E+00 0. -1.
         25    2    1    2    0    0 -0.13657973005E+02 -0.18428144591E+02 -0.22161585857E+03  0.25546964586E+03  0.12500005778E+03 0.  0.
          2    1    1    2  501    0 -0.73628424388E+01  0.30517572648E+02 -0.16272744188E+03  0.16572795187E+03  0.00000000000E+00 0. -1.
          1    1    1    2  502    0  0.21020815444E+02 -0.12089428058E+02  0.35323146859E+03  0.35406284662E+03  0.00000000000E+00 0. -1.
         22    1    3    3    0    0 -0.31476148133E+02 -0.58330225109E+02 -0.19083457995E+03  0.20201732591E+03  0.00000000000E+00 0. -1.
         22    1    3    3    0    0  0.17818175128E+02  0.39902080518E+02 -0.30781278622E+02  0.53452319952E+02  0.00000000000E+00 0. -1.
</event>
<event>
 7    1  0.5593520E-006  0.1631548E+03  0.7818608E-02  0.1349253E+00
          2   -1    0    0  502    0  0.00000000000E+00  0.00000000000E+00  0.17159331438E+03  0.17159331438E+03  0.00000000000E+00 0. -1.
          1   -1    0    0  501    0 -0.00000000000E+00 -0.00000000000E+00 -0.82998351512E+03  0.82998351512E+03  0.00000000000E+00 0. -1.
         25    2    1    2    0    0  0.18109452790E+03  0.61282517255E+02 -0.13248570156E+03  0.26405812289E+03  0.12499382460E+03 0.  0.
          2    1    1    2  501    0 -0.15228774889E+03 -0.45345684952E+02 -0.61884563545E+03  0.63891917338E+03  0.00000000000E+00 0. -1.
          1    1    1    2  502    0 -0.28806779010E+02 -0.15936832303E+02  0.92941136275E+02  0.98599533228E+02  0.00000000000E+00 0. -1.
         22    1    3    3    0    0  0.13916838508E+03  0.69364904436E+02 -0.15169842099E+03  0.21723659983E+03  0.00000000000E+00 0.  1.
         22    1    3    3    0    0  0.41926142815E+02 -0.80823871803E+01  0.19212719428E+02  0.46821523061E+02  0.00000000000E+00 0.  1.
</event>
<event>
 7    1  0.5593520E-006  0.1334063E+03  0.7818608E-02  0.1316255E+00
          2   -1    0    0  502    0  0.00000000000E+00  0.00000000000E+00  0.11097811539E+04  0.11097811539E+04  0.00000000000E+00 0. -1.
          1   -1    0    0  501    0 -0.00000000000E+00 -0.00000000000E+00 -0.68336560440E+03  0.68336560440E+03  0.00000000000E+00 0. -1.
         25    2    1    2    0    0 -0.63343776132E+02  0.67668353533E+02  0.14711402978E+03  0.21415176234E+03  0.12500799778E+03 0.  0.
          2    1    1    2  501    0  0.59592706202E+02 -0.12129635628E+03 -0.64202841169E+03  0.65609799428E+03  0.00000000000E+00 0. -1.
          1    1    1    2  502    0  0.37510699302E+01  0.53628002745E+02  0.92132993138E+03  0.92289700165E+03  0.00000000000E+00 0. -1.
         22    1    3    3    0    0 -0.56655384583E+02  0.60981542516E+01  0.14080574047E+03  0.15189890268E+03  0.00000000000E+00 0.  1.
         22    1    3    3    0    0 -0.66883915493E+01  0.61570199282E+02  0.63082893138E+01  0.62252859655E+02  0.00000000000E+00 0.  1.
</event>
<event>
 7    1  0.5593520E-006  0.4207042E+02  0.7818608E-02  0.1578620E+00
          2   -1    0    0  502    0  0.00000000000E+00  0.00000000000E+00  0.91056488042E+03  0.91056488042E+03  0.00000000000E+00 0. -1.
          1   -1    0    0  501    0 -0.00000000000E+00 -0.00000000000E+00 -0.37407609247E+03  0.37407609247E+03  0.00000000000E+00 0. -1.
         25    2    1    2    0    0 -0.15277718340E+02  0.10114554212E+02  0.64254085653E+02  0.14173377884E+03  0.12499665458E+03 0.  0.
          2    1    1    2  501    0 -0.19691122343E+02  0.13884553963E+02 -0.33434558822E+03  0.33521260940E+03  0.00000000000E+00 0. -1.
          1    1    1    2  502    0  0.34968840683E+02 -0.23999108175E+02  0.80658029052E+03  0.80769458465E+03  0.00000000000E+00 0. -1.
         22    1    3    3    0    0  0.34453552358E+02  0.42040648491E+02 -0.10864782882E+00  0.54355084399E+02  0.00000000000E+00 0.  1.
         22    1    3    3    0    0 -0.49731270698E+02 -0.31926094279E+02  0.64362733481E+02  0.87378694442E+02  0.00000000000E+00 0.  1.
</event>
<event>
 7    1  0.5593520E-006  0.6443814E+02  0.7818608E-02  0.1479684E+00
          2   -1    0    0  502    0  0.00000000000E+00  0.00000000000E+00  0.79134711438E+03  0.79134711438E+03  0.00000000000E+00 0. -1.
          1   -1    0    0  501    0 -0.00000000000E+00 -0.00000000000E+00 -0.39230880353E+03  0.39230880353E+03  0.00000000000E+00 0. -1.
         25    2    1    2    0    0  0.28723590500E+02  0.86215431465E+02 -0.10449214265E+03  0.18655189727E+03  0.12499942890E+03 0.  0.
          2    1    1    2  501    0 -0.12424709389E+02 -0.60723702193E+02 -0.24258355653E+03  0.25037676272E+03  0.00000000000E+00 0. -1.
          1    1    1    2  502    0 -0.16298881110E+02 -0.25491729272E+02  0.74611401002E+03  0.74672725793E+03  0.00000000000E+00 0. -1.
         22    1    3    3    0    0 -0.19096978968E+02 -0.24026265617E+02 -0.39222927942E+02  0.49803555311E+02  0.00000000000E+00 0. -1.
         22    1    3    3    0    0  0.47820569468E+02  0.11024169708E+03 -0.65269214705E+02  0.13674834196E+03  0.00000000000E+00 0. -1.
</event>
<event>
 7    1  0.5593520E-006  0.6783177E+02  0.7818608E-02  0.1462597E+00
          2   -1    0    0  502    0  0.00000000000E+00  0.00000000000E+00  0.12751436533E+04  0.12751436533E+04  0.00000000000E+00 0. -1.
          1   -1    0    0  501    0 -0.00000000000E+00 -0.00000000000E+00 -0.16567302274E+03  0.16567302274E+03  0.00000000000E+00 0. -1.
         25    2    1    2    0    0 -0.27711094660E+02  0.89375513968E+02  0.41636074648E+03  0.44467637417E+03  0.12499967706E+03 0.  0.
          2    1    1    2  501    0 -0.45329396735E+01 -0.32161277774E+02 -0.14848050665E+03  0.15199130299E+03  0.00000000000E+00 0. -1.
          1    1    1    2  502    0  0.32244034334E+02 -0.57214236194E+02  0.84159039074E+03  0.84414899891E+03  0.00000000000E+00 0. -1.
         22    1    3    3    0    0  0.20398416331E+02 -0.22914774294E+02  0.12565001991E+03  0.12934105989E+03  0.00000000000E+00 0. -1.
         22    1    3    3    0    0 -0.48109510991E+02  0.11229028826E+03  0.29071072657E+03  0.31533531427E+03  0.00000000000E+00 0. -1.
</event>
<event>
 7    1  0.5593520E-006  0.1881548E+03  0.7818608E-02  0.1217467E+00
          2   -1    0    0  502    0  0.00000000000E+00  0.00000000000E+00  0.59856891735E+03  0.59856891735E+03  0.00000000000E+00 0. -1.
          1   -1    0    0  501    0 -0.00000000000E+00 -0.00000000000E+00 -0.46001367171E+03  0.46001367171E+03  0.00000000000E+00 0. -1.
         25    2    1    2    0    0 -0.17460459271E+03  0.12935383611E+03  0.82416752586E+02  0.26390601779E+03  0.12503873963E+03 0.  0.
          2    1    1    2  501    0  0.92431768300E+02  0.37389990063E+02 -0.34148601491E+03  0.35574477021E+03  0.00000000000E+00 0. -1.
          1    1    1    2  502    0  0.82172824412E+02 -0.16674382617E+03  0.39762450797E+03  0.43893180106E+03  0.00000000000E+00 0. -1.
         22    1    3    3    0    0 -0.15199459705E+03  0.15266371375E+03  0.84404257225E+02  0.23137122912E+03  0.00000000000E+00 0. -1.
         22    1    3    3    0    0 -0.22609995661E+02 -0.23309877637E+02 -0.19875046385E+01  0.32534788672E+02  0.00000000000E+00 0. -1.
</event>
<event>
 7    1  0.5593520E-006  0.6823236E+02  0.7818608E-02  0.1395815E+00
          2   -1    0    0  502    0  0.00000000000E+00  0.00000000000E+00  0.71743386960E+03  0.71743386960E+03  0.00000000000E+00 0. -1.
          1   -1    0    0  501    0 -0.00000000000E+00 -0.00000000000E+00 -0.68411088737E+02  0.68411088737E+02  0.00000000000E+00 0. -1.
         25    2    1    2    0    0  0.74726416233E+01 -0.26439983870E+02  0.92348630545E+02  0.15782305207E+03  0.12499973233E+03 0.  0.
          2    1    1    2  501    0 -0.37339003573E+02 -0.38474354280E+02 -0.11946611428E+02  0.54929032849E+02  0.00000000000E+00 0. -1.
          1    1    1    2  502    0  0.29866361950E+02  0.64914338150E+02  0.56862076175E+03  0.57309287342E+03  0.00000000000E+00 0. -1.
         22    1    3    3    0    0  0.43413972517E+02 -0.34749324819E+02 -0.28964048830E+01  0.55683729637E+02  0.00000000000E+00 0.  1.
         22    1    3    3    0    0 -0.35941330894E+02  0.83093409484E+01  0.95245035428E+02  0.10213932243E+03  0.00000000000E+00 0.  1.
</event>
<event>
 7    1  0.5593520E-006  0.8005502E+02  0.7818608E-02  0.1349989E+00
          2   -1    0    0  502    0  0.00000000000E+00  0.00000000000E+00  0.17162087849E+03  0.17162087849E+03  0.00000000000E+00 0. -1.
          1   -1    0    0  501    0 -0.00000000000E+00 -0.00000000000E+00 -0.60428936543E+03  0.60428936543E+03  0.00000000000E+00 0. -1.
         25    2    1    2    0    0  0.62307237914E+02  0.14521592427E+02 -0.20495021881E+03  0.24844040715E+03  0.12499990068E+03 0.  0.
          2    1    1    2  501    0 -0.41943816433E+02 -0.78010083437E+02 -0.36460496613E+03  0.37520879278E+03  0.00000000000E+00 0. -1.
          1    1    1    2  502    0 -0.20363421481E+02  0.63488491010E+02  0.13688669800E+03  0.15226104398E+03  0.00000000000E+00 0. -1.
         22    1    3    3    0    0 -0.26657789423E+02 -0.18539371017E+02 -0.14315309326E+02  0.35486252207E+02  0.00000000000E+00 0.  1.
         22    1    3    3    0    0  0.88965027337E+02  0.33060963443E+02 -0.19063490949E+03  0.21295415494E+03  0.00000000000E+00 0.  1.
</event>
<event>
 7    1  0.5593520E-006  0.1645146E+03  0.7818608E-02  0.1320964E+00
          2   -1    0    0  502    0  0.00000000000E+00  0.00000000000E+00  0.16717869882E+04  0.16717869882E+04  0.00000000000E+00 0. -1.
          1   -1    0    0  501    0 -0.00000000000E+00 -0.00000000000E+00 -0.76819023403E+03  0.76819023403E+03  0.00000000000E+00 0. -1.
         25    2    1    2    0    0  0.12866330552E+03 -0.14179726667E+02 -0.29826245109E+03  0.34833874441E+03  0.12499632110E+03 0.  0.
          2    1    1    2  501    0  0.30756185520E+02 -0.28298233430E+02 -0.43976416096E+03  0.44174568501E+03  0.00000000000E+00 0. -1.
          1    1    1    2  502    0 -0.15941949104E+03  0.42477960096E+02  0.16416233662E+04  0.16498927928E+04  0.00000000000E+00 0. -1.
         22    1    3    3    0    0  0.11147402780E+03  0.30069491223E+02 -0.26859697950E+03  0.29236102779E+03  0.00000000000E+00 0. -1.
         22    1    3    3    0    0  0.17189277721E+02 -0.44249217890E+02 -0.29665471592E+02  0.55977716614E+02  0.00000000000E+00 0. -1.
</event>
<event>
 7    1  0.5593520E-006  0.1388131E+03  0.7818608E-02  0.1297365E+00
          2   -1    0    0  502    0  0.00000000000E+00  0.00000000000E+00  0.13411620259E+04  0.13411620259E+04  0.00000000000E+00 0. -1.
          1   -1    0    0  501    0 -0.00000000000E+00 -0.00000000000E+00 -0.14480351615E+03  0.14480351615E+03  0.00000000000E+00 0. -1.
         25    2    1    2    0    0 -0.15905033190E+03 -0.11250149746E+03  0.12886276252E+03  0.26492263018E+03  0.12499917363E+03 0.  0.
          2    1    1    2  501    0  0.56564436187E+02  0.23827388815E+02 -0.59762716266E+02  0.85667159135E+02  0.00000000000E+00 0. -1.
          1    1    1    2  502    0  0.10248589571E+03  0.88674108648E+02  0.11272584635E+04  0.11353757528E+04  0.00000000000E+00 0. -1.
         22    1    3    3    0    0 -0.17500008384E+03 -0.11044062887E+03  0.13568597430E+03  0.24745271360E+03  0.00000000000E+00 0.  1.
         22    1    3    3    0    0  0.15949751935E+02 -0.20608685891E+01 -0.68232117820E+01  0.17469916576E+02  0.00000000000E+00 0.  1.
</event>
<event>
 7    1  0.5593520E-006  0.2205662E+03  0.7818608E-02  0.1215317E+00
          2   -1    0    0  502    0  0.00000000000E+00  0.00000000000E+00  0.52471665780E+03  0.52471665780E+03  0.00000000000E+00 0. -1.
          1   -1    0    0  501    0 -0.00000000000E+00 -0.00000000000E+00 -0.27647406491E+03  0.27647406491E+03  0.00000000000E+00 0. -1.
         25    2    1    2    0    0  0.26329574914E+03 -0.49099879907E+02 -0.20278393131E+02  0.29626465229E+03  0.12500432492E+03 0.  0.
          2    1    1    2  501    0 -0.19362422972E+03 -0.30200098846E+01 -0.28218751399E+02  0.19569302677E+03  0.00000000000E+00 0. -1.
          1    1    1    2  502    0 -0.69671519414E+02  0.52119889791E+02  0.29673973742E+03  0.30923304366E+03  0.00000000000E+00 0. -1.
         22    1    3    3    0    0  0.21588242459E+03  0.59498535590E+01  0.12994147961E+02  0.21635496270E+03  0.00000000000E+00 0.  1.
         22    1    3    3    0    0  0.47413324543E+02 -0.55049733466E+02 -0.33272541091E+02  0.79909689585E+02  0.00000000000E+00 0.  1.
</event>
<event>
 7    1  0.5593520E-006  0.1304571E+03  0.7818608E-02  0.1324149E+00
          2   -1    0    0  502    0  0.00000000000E+00  0.00000000000E+00  0.47179513502E+03  0.47179513502E+03  0.00000000000E+00 0. -1.
          1   -1    0    0  501    0 -0.00000000000E+00 -0.00000000000E+00 -0.25319589411E+04  0.25319589411E+04  0.00000000000E+00 0. -1.
         25    2    1    2    0    0 -0.34167546975E+02  0.83324024650E+02 -0.31162188259E+03  0.34762268691E+03  0.12499208132E+03 0.  0.
          2    1    1    2  501    0  0.23159518314E+02 -0.13335923784E+03 -0.21988029207E+04  0.22029651231E+04  0.00000000000E+00 0. -1.
          1    1    1    2  502    0  0.11008028661E+02  0.50035213194E+02  0.45026099714E+03  0.45316626617E+03  0.00000000000E+00 0. -1.
         22    1    3    3    0    0  0.41960361054E+01 -0.14111822815E+01 -0.20928092897E+03  0.20932774634E+03  0.00000000000E+00 0. -1.
         22    1    3    3    0    0 -0.38363583081E+02  0.84735206931E+02 -0.10234095362E+03  0.13829494057E+03  0.00000000000E+00 0. -1.
</event>
<event>
 7    1  0.5593520E-006  0.9944307E+02  0.7818608E-02  0.1348883E+00
          2   -1    0    0  502    0  0.00000000000E+00  0.00000000000E+00  0.61081981036E+03  0.61081981036E+03  0.00000000000E+00 0. -1.
          1   -1    0    0  501    0 -0.00000000000E+00 -0.00000000000E+00 -0.84121527306E+02  0.84121527306E+02  0.00000000000E+00 0. -1.
         25    2    1    2    0    0 -0.43369485267E+02 -0.38889015168E+02  0.17191629753E+03  0.22038506769E+03  0.12498438683E+03 0.  0.
          2    1    1    2  501    0  0.69084309339E+02  0.86582783017E+02 -0.48429019688E+01  0.11087233113E+03  0.00000000000E+00 0. -1.
          1    1    1    2  502    0 -0.25714824072E+02 -0.47693767848E+02  0.35962488749E+03  0.36368393884E+03  0.00000000000E+00 0. -1.
         22    1    3    3    0    0 -0.35305139470E+02  0.23296032336E+02  0.14690830950E+03  0.15287645141E+03  0.00000000000E+00 0.  1.
         22    1    3    3    0    0 -0.80643457971E+01 -0.62185047504E+02  0.25007988027E+02  0.67508616275E+02  0.00000000000E+00 0.  1.
</event>
<event>
 7    1  0.5593520E-006  0.1416738E+03  0.7818608E-02  0.1268853E+00
          2   -1    0    0  502    0  0.00000000000E+00  0.00000000000E+00  0.69293116604E+03  0.69293116604E+03  0.00000000000E+00 0. -1.
          1   -1    0    0  501    0 -0.00000000000E+00 -0.00000000000E+00 -0.15336886436E+04  0.15336886436E+04  0.00000000000E+00 0. -1.
         25    2    1    2    0    0  0.11364313789E+03  0.14700011117E+02  0.46466338043E+03  0.49463812875E+03  0.12499587269E+03 0.  0.
          2    1    1    2  501    0 -0.10711991262E+03 -0.93209028676E+02 -0.15079757004E+04  0.15146462662E+04  0.00000000000E+00 0. -1.
          1    1    1    2  502    0 -0.65232252696E+01  0.78509017559E+02  0.20255484240E+03  0.21733541470E+03  0.00000000000E+00 0. -1.
         22    1    3    3    0    0  0.40187337719E+02 -0.50579263207E+02  0.12055681964E+03  0.13677437896E+03  0.00000000000E+00 0. -1.
         22    1    3    3    0    0  0.73455800167E+02  0.65279274324E+02  0.34410656079E+03  0.35786374979E+03  0.00000000000E+00 0. -1.
</event>
<event>
 7    1  0.5593520E-006  0.1278886E+03  0.7818608E-02  0.1360024E+00
          2   -1    0    0  502    0  0.00000000000E+00  0.00000000000E+00  0.62647946891E+03  0.62647946891E+03  0.00000000000E+00 0. -1.
          1   -1    0    0  501    0 -0.00000000000E+00 -0.00000000000E+00 -0.54699042018E+03  0.54699042018E+03  0.00000000000E+00 0. -1.
         25    2    1    2    0    0 -0.14312356565E+03  0.71036046668E+02  0.33885355660E+03  0.39493954309E+03  0.12500013959E+03 0.  0.
          2    1    1    2  501    0  0.10480329697E+03 -0.72158424007E+02 -0.50966629328E+03  0.52530971789E+03  0.00000000000E+00 0. -1.
          1    1    1    2  502    0  0.38320268682E+02  0.11223773383E+01  0.25030178540E+03  0.25322062811E+03  0.00000000000E+00 0. -1.
         22    1    3    3    0    0 -0.15618674327E+03  0.37623548618E+02  0.23176495717E+03  0.28200146375E+03  0.00000000000E+00 0. -1.
         22    1    3    3    0    0  0.13063177621E+02  0.33412498050E+02  0.10708859943E+03  0.11293807933E+03  0.00000000000E+00 0. -1.
</event>
<event>
 7    1  0.5593520E-006  0.1322743E+03  0.7818608E-02  0.1359048E+00
          2   -1    0    0  502    0  0.00000000000E+00  0.00000000000E+00  0.66057395051E+03  0.66057395051E+03  0.00000000000E+00 0. -1.
          1   -1    0    0  501    0 -0.00000000000E+00 -0.00000000000E+00 -0.11504218509E+03  0.11504218509E+03  0.00000000000E+00 0. -1.
         25    2    1    2    0    0  0.11092170070E+03 -0.67095048014E+02  0.24467363956E+03  0.30380268184E+03  0.12500204176E+03 0.  0.
          2    1    1    2  501    0 -0.19428154241E+02 -0.31924186998E+02 -0.68823807860E+02  0.78315537545E+02  0.00000000000E+00 0. -1.
          1    1    1    2  502    0 -0.91493546455E+02  0.99019235011E+02  0.36968193372E+03  0.39349791621E+03  0.00000000000E+00 0. -1.
         22    1    3    3    0    0  0.58602164655E+02 -0.98925239618E+02  0.12818623587E+03  0.17219793205E+03  0.00000000000E+00 0.  1.
         22    1    3    3    0    0  0.52319536041E+02  0.31830191604E+02  0.11648740369E+03  0.13160474979E+03  0.00000000000E+00 0.  1.
</event>
<event>
 7    1  0.5593520E-006  0.6179003E+02  0.7818608E-02  0.1485281E+00
          2   -1    0    0  502    0  0.00000000000E+00  0.00000000000E+00  0.22868096363E+04  0.22868096363E+04  0.00000000000E+00 0. -1.
          1   -1    0    0  501    0 -0.00000000000E+00 -0.00000000000E+00 -0.36886585829E+03  0.36886585829E+03  0.00000000000E+00 0. -1.
         25    2    1    2    0    0 -0.17446279796E+02 -0.89605201361E+02 -0.27137397451E+03  0.31242082922E+03  0.12501790150E+03 0.  0.
          2    1    1    2  501    0  0.11258483707E+02  0.28168003589E+02 -0.73541997467E+02  0.79552594383E+02  0.00000000000E+00 0. -1.
          1    1    1    2  502    0  0.61877960892E+01  0.61437197772E+02  0.22628597500E+04  0.22637020710E+04  0.00000000000E+00 0. -1.
         22    1    3    3    0    0  0.45015976793E+02 -0.79242566133E+02 -0.17030653479E+03  0.19315832430E+03  0.00000000000E+00 0. -1.
         22    1    3    3    0    0 -0.62462256589E+02 -0.10362635228E+02 -0.10106743972E+03  0.11926250491E+03  0.00000000000E+00 0. -1.
</event>
<event>
 7    1  0.5593520E-006  0.4626258E+02  0.7818608E-02  0.1490785E+00
          2   -1    0    0  502    0  0.00000000000E+00  0.00000000000E+00  0.25283675027E+03  0.25283675027E+03  0.00000000000E+00 0. -1.
          1   -1    0    0  501    0 -0.00000000000E+00 -0.00000000000E+00 -0.47996474039E+03  0.47996474039E+03  0.00000000000E+00 0. -1.
         25    2    1    2    0    0  0.32212829695E+02 -0.16602619814E+02  0.27475401799E+02  0.13301570551E+03  0.12499986731E+03 0.  0.
          2    1    1    2  501    0 -0.24276561921E+02 -0.30507625287E+02 -0.42297476802E+03  0.42476784370E+03  0.00000000000E+00 0. -1.
          1    1    1    2  502    0 -0.79362677732E+01  0.47110245101E+02  0.16837137610E+03  0.17501794145E+03  0.00000000000E+00 0. -1.
         22    1    3    3    0    0  0.44891817880E+02 -0.43756016007E+02 -0.29008004545E+02  0.69074804213E+02  0.00000000000E+00 0.  1.
         22    1    3    3    0    0 -0.12678988185E+02  0.27153396193E+02  0.56483406344E+02  0.63940901296E+02  0.00000000000E+00 0.  1.
</event>
<event>
 7    1  0.5593520E-006  0.4657141E+02  0.7818608E-02  0.1500021E+00
          2   -1    0    0  502    0  0.00000000000E+00  0.00000000000E+00  0.11014596466E+02  0.11014596466E+02  0.00000000000E+00 0. -1.
          1   -1    0    0  501    0 -0.00000000000E+00 -0.00000000000E+00 -0.11677612916E+04  0.11677612916E+04  0.00000000000E+00 0. -1.
         25    2    1    2    0    0 -0.17037874535E+02  0.21220062567E+02 -0.64182873586E+03  0.65445421081E+03  0.12500243059E+03 0.  0.
          2    1    1    2  501    0  0.15718469974E+02  0.32757254437E+02 -0.32025384556E+03  0.32230828970E+03  0.00000000000E+00 0. -1.
          1    1    1    2  502    0  0.13194045610E+01 -0.53977317004E+02 -0.19466411367E+03  0.20201338751E+03  0.00000000000E+00 0. -1.
         22    1    3    3    0    0  0.41854880034E+00 -0.50174957593E+02 -0.34665373494E+03  0.35026634651E+03  0.00000000000E+00 0. -1.
         22    1    3    3    0    0 -0.17456423335E+02  0.71395020160E+02 -0.29517500092E+03  0.30418786430E+03  0.00000000000E+00 0. -1.
</event>
<event>
 7    1  0.5593520E-006  0.7397022E+02  0.7818608E-02  0.1378946E+00
          2   -1    0    0  502    0  0.00000000000E+00  0.00000000000E+00  0.70215305524E+03  0.70215305524E+03  0.00000000000E+00 0. -1.
          1   -1    0    0  501    0 -0.00000000000E+00 -0.00000000000E+00 -0.13116087513E+03  0.13116087513E+03  0.00000000000E+00 0. -1.
         25    2    1    2    0    0  0.20849661723E+02 -0.14431805777E+02  0.15901240670E+03  0.20384540773E+03  0.12500007743E+03 0.  0.
          2    1    1    2  501    0 -0.36613352562E+02  0.68859277339E+02 -0.92970235366E+02  0.12134909281E+03  0.00000000000E+00 0. -1.
          1    1    1    2  502    0  0.15763690839E+02 -0.54427471562E+02  0.50495000877E+03  0.50811942983E+03  0.00000000000E+00 0. -1.
         22    1    3    3    0    0 -0.26195499276E+02  0.41465699498E+02  0.36256123558E+02  0.60992744754E+02  0.00000000000E+00 0. -1.
         22    1    3    3    0    0  0.47045160998E+02 -0.55897505275E+02  0.12275628314E+03  0.14285266298E+03  0.00000000000E+00 0. -1.
</event>
<event>
 7    1  0.5593520E-006  0.2307969E+03  0.7818608E-02  0.1146220E+00
          2   -1    0    0  502    0  0.00000000000E+00  0.00000000000E+00  0.19424052157E+04  0.19424052157E+04  0.00000000000E+00 0. -1.
          1   -1    0    0  501    0 -0.00000000000E+00 -0.00000000000E+00 -0.18342307518E+04  0.18342307518E+04  0.00000000000E+00 0. -1.
         25    2    1    2    0    0 -0.66704796901E+02 -0.24863050256E+03 -0.19191762363E+03  0.34456676631E+03  0.12500890150E+03 0.  0.
          2    1    1    2  501    0  0.17533914345E+03  0.43759338009E+02 -0.15535262790E+04  0.15640021082E+04  0.00000000000E+00 0. -1.
          1    1    1    2  502    0 -0.10863434655E+03  0.20487116455E+03  0.18536183665E+04  0.18680670930E+04  0.00000000000E+00 0. -1.
         22    1    3    3    0    0 -0.66200907354E+02 -0.40531747398E+02 -0.43696149819E+02  0.89077136184E+02  0.00000000000E+00 0.  1.
         22    1    3    3    0    0 -0.50388954716E+00 -0.20809875516E+03 -0.14822147381E+03  0.25548963013E+03  0.00000000000E+00 0.  1.
</event>
<event>
 7    1  0.5593520E-006  0.7312024E+02  0.7818608E-02  0.1502873E+00
          2   -1    0    0  502    0  0.00000000000E+00  0.00000000000E+00  0.44613858487E+03  0.44613858487E+03  0.00000000000E+00 0. -1.
          1   -1    0    0  501    0 -0.00000000000E+00 -0.00000000000E+00 -0.94357653692E+03  0.94357653692E+03  0.00000000000E+00 0. -1.
         25    2    1    2    0    0 -0.78060339141E+02 -0.69867349353E+01  0.24245726429E+03  0.28382153342E+03  0.12500762702E+03 0.  0.
          2    1    1    2  501    0  0.67841796472E+02  0.27248844932E+02 -0.92073626473E+03  0.92363427724E+03  0.00000000000E+00 0. -1.
          1    1    1    2  502    0  0.10218542670E+02 -0.20262109997E+02  0.18084104838E+03  0.18225931113E+03  0.00000000000E+00 0. -1.
         22    1    3    3    0    0  0.31200657683E+02  0.35988025269E+01  0.24685783226E+02  0.39947719747E+02  0.00000000000E+00 0. -1.
         22    1    3    3    0    0 -0.10926099682E+03 -0.10585537462E+02  0.21777148107E+03  0.24387381367E+03  0.00000000000E+00 0. -1.
</event>
<event>
 7    1  0.5593520E-006  0.3298830E+02  0.7818608E-02  0.1602116E+00
          2   -1    0    0  502    0  0.00000000000E+00  0.00000000000E+00  0.58286469216E+03  0.58286469216E+03  0.00000000000E+00 0. -1.
          1   -1    0    0  501    0 -0.00000000000E+00 -0.00000000000E+00 -0.27386275341E+03  0.27386275341E+03  0.00000000000E+00 0. -1.
         25    2    1    2    0    0  0.10922075780E+01 -0.15729304660E+02  0.12100647335E+03  0.17468783136E+03  0.12499867155E+03 0.  0.
          2    1    1    2  501    0 -0.27586559829E+02  0.18407867384E+02 -0.24549852905E+03  0.24772847158E+03  0.00000000000E+00 0. -1.
          1    1    1    2  502    0  0.26494352251E+02 -0.26785627236E+01  0.43349399445E+03  0.43431114264E+03  0.00000000000E+00 0. -1.
         22    1    3    3    0    0 -0.24803768562E+02 -0.65262098374E+02  0.72947096436E+02  0.10097349800E+03  0.00000000000E+00 0.  1.
         22    1    3    3    0    0  0.25895976140E+02  0.49532793714E+02  0.48059376918E+02  0.73714333363E+02  0.00000000000E+00 0.  1.
</event>
<event>
 7    1  0.5593520E-006  0.7928856E+02  0.7818608E-02  0.1334193E+00
          2   -1    0    0  502    0  0.00000000000E+00  0.00000000000E+00  0.45519191377E+03  0.45519191377E+03  0.00000000000E+00 0. -1.
          1   -1    0    0  501    0 -0.00000000000E+00 -0.00000000000E+00 -0.98186261323E+02  0.98186261323E+02  0.00000000000E+00 0. -1.
         25    2    1    2    0    0  0.42145499546E+01 -0.14946609458E+01 -0.47733372253E+01  0.12516931079E+03  0.12499830068E+03 0.  0.
          2    1    1    2  501    0  0.75474309587E+02  0.24296172936E+02  0.27679407137E+02  0.83981099102E+02  0.00000000000E+00 0. -1.
          1    1    1    2  502    0 -0.79688859541E+02 -0.22801511990E+02  0.33409958253E+03  0.34422776520E+03  0.00000000000E+00 0. -1.
         22    1    3    3    0    0  0.31903469633E+02  0.27266084273E+02 -0.49712110113E+02  0.65058163347E+02  0.00000000000E+00 0.  1.
         22    1    3    3    0    0 -0.27688919678E+02 -0.28760745219E+02  0.44938772887E+02  0.60111147445E+02  0.00000000000E+00 0.  1.
</event>
<event>
 7    1  0.5593520E-006  0.8439642E+02  0.7818608E-02  0.1330956E+00
          2   -1    0    0  502    0  0.00000000000E+00  0.00000000000E+00  0.19723660210E+03  0.19723660210E+03  0.00000000000E+00 0. -1.
          1   -1    0    0  501    0 -0.00000000000E+00 -0.00000000000E+00 -0.46836824281E+03  0.46836824281E+03  0.00000000000E+00 0. -1.
         25    2    1    2    0    0 -0.52204828220E+01 -0.15236340345E+03 -0.30769638311E+03  0.36543678702E+03  0.12500048391E+03 0.  0.
          2    1    1    2  501    0 -0.16044217274E+02  0.72826241247E+02 -0.10950974788E+03  0.13248948337E+03  0.00000000000E+00 0. -1.
          1    1    1    2  502    0  0.21264700096E+02  0.79537162202E+02  0.14607449029E+03  0.16767857452E+03  0.00000000000E+00 0. -1.
         22    1    3    3    0    0  0.48928574698E+02 -0.96545774865E+02 -0.11644839092E+03  0.15898213677E+03  0.00000000000E+00 0. -1.
         22    1    3    3    0    0 -0.54149057520E+02 -0.55817628583E+02 -0.19124799219E+03  0.20645465025E+03  0.00000000000E+00 0. -1.
</event>
<event>
 7    1  0.5593520E-006  0.8879870E+02  0.7818608E-02  0.1372692E+00
          2   -1    0    0  502    0  0.00000000000E+00  0.00000000000E+00  0.25796374772E+04  0.25796374772E+04  0.00000000000E+00 0. -1.
          1   -1    0    0  501    0 -0.00000000000E+00 -0.00000000000E+00 -0.21420379308E+03  0.21420379308E+03  0.00000000000E+00 0. -1.
         25    2    1    2    0    0 -0.29851210852E+02 -0.11007641695E+03  0.13983216932E+04  0.14085224386E+04  0.12499595978E+03 0.  0.
          2    1    1    2  501    0 -0.14420267655E+02  0.87517554356E+02 -0.19914462470E+03  0.21800423846E+03  0.00000000000E+00 0. -1.
          1    1    1    2  502    0  0.44271478507E+02  0.22558862598E+02  0.11662566157E+04  0.11673145933E+04  0.00000000000E+00 0. -1.
         22    1    3    3    0    0  0.21892899595E+01 -0.11188460046E+03  0.65368672795E+03  0.66319627193E+03  0.00000000000E+00 0.  1.
         22    1    3    3    0    0 -0.32040500812E+02  0.18081835011E+01  0.74463496523E+03  0.74532616663E+03  0.00000000000E+00 0.  1.
</event>
<event>
 7    1  0.5593520E-006  0.1767866E+03  0.7818608E-02  0.1346880E+00
          2   -1    0    0  502    0  0.00000000000E+00  0.00000000000E+00  0.50383434227E+03  0.50383434227E+03  0.00000000000E+00 0. -1.
          1   -1    0    0  501    0 -0.00000000000E+00 -0.00000000000E+00 -0.22028693797E+04  0.22028693797E+04  0.00000000000E+00 0. -1.
         25    2    1    2    0    0  0.95541298093E+02 -0.14790110294E+03 -0.38679329931E+03  0.44298506729E+03  0.12499535016E+03 0.  0.
          2    1    1    2  501    0 -0.12071931464E+03  0.12980600667E+03 -0.17830754261E+04  0.17918651533E+04  0.00000000000E+00 0. -1.
          1    1    1    2  502    0  0.25178016550E+02  0.18095096272E+02  0.47083368800E+03  0.47185350140E+03  0.00000000000E+00 0. -1.
         22    1    3    3    0    0  0.21067459607E+02 -0.91446216694E+02 -0.30392390192E+03  0.31808172937E+03  0.00000000000E+00 0. -1.
         22    1    3    3    0    0  0.74473838487E+02 -0.56454886246E+02 -0.82869397386E+02  0.12490333792E+03  0.00000000000E+00 0. -1.
</event>
<event>
 7    1  0.5593520E-006  0.9187726E+02  0.7818608E-02  0.1422336E+00
          2   -1    0    0  502    0  0.00000000000E+00  0.00000000000E+00  0.11784919378E+04  0.11784919378E+04  0.00000000000E+00 0. -1.
          1   -1    0    0  501    0 -0.00000000000E+00 -0.00000000000E+00 -0.50459510518E+03  0.50459510518E+03  0.00000000000E+00 0. -1.
         25    2    1    2    0    0 -0.47380294493E+02  0.69611234949E+02  0.62887472827E+03  0.64668316511E+03  0.12500030335E+03 0.  0.
          2    1    1    2  501    0 -0.30350971416E+02 -0.11235160067E+02 -0.49078442370E+03  0.49185034394E+03  0.00000000000E+00 0. -1.
          1    1    1    2  502    0  0.77731265909E+02 -0.58376074882E+02  0.53580652809E+03  0.54455353397E+03  0.00000000000E+00 0. -1.
         22    1    3    3    0    0 -0.28629577251E+02  0.60837292604E+02  0.62085010058E+03  0.62448032495E+03  0.00000000000E+00 0. -1.
         22    1    3    3    0    0 -0.18750717242E+02  0.87739423444E+01  0.80246276950E+01  0.22202840156E+02  0.00000000000E+00 0. -1.
</event>
<event>
 7    1  0.5593520E-006  0.4835108E+02  0.7818608E-02  0.1457402E+00
          2   -1    0    0  502    0  0.00000000000E+00  0.00000000000E+00  0.27435158678E+03  0.27435158678E+03  0.00000000000E+00 0. -1.
          1   -1    0    0  501    0 -0.00000000000E+00 -0.00000000000E+00 -0.90488757970E+03  0.90488757970E+03  0.00000000000E+00 0. -1.
         25    2    1    2    0    0  0.14633219905E+02 -0.12280049846E+02  0.19375383927E+02  0.12792561261E+03  0.12499850443E+03 0.  0.
          2    1    1    2  501    0 -0.30879946105E+02 -0.35851899532E+02 -0.84672677934E+03  0.84804785751E+03  0.00000000000E+00 0. -1.
          1    1    1    2  502    0  0.16246726199E+02  0.48131949378E+02  0.19681540249E+03  0.20326569637E+03  0.00000000000E+00 0. -1.
         22    1    3    3    0    0  0.42522545775E+02 -0.11918691184E+02 -0.41728070797E+02  0.60757336933E+02  0.00000000000E+00 0.  1.
         22    1    3    3    0    0 -0.27889325870E+02 -0.36135866257E+00  0.61103454724E+02  0.67168275672E+02  0.00000000000E+00 0.  1.
</event>
<event>
 7    1  0.5593520E-006  0.1063027E+03  0.7818608E-02  0.1275371E+00
          2   -1    0    0  502    0  0.00000000000E+00  0.00000000000E+00  0.79461735819E+03  0.79461735819E+03  0.00000000000E+00 0. -1.
          1   -1    0    0  501    0 -0.00000000000E+00 -0.00000000000E+00 -0.93278835076E+02  0.93278835076E+02  0.00000000000E+00 0. -1.
         25    2    1    2    0    0  0.16957774732E+02 -0.57151705937E+02  0.22648055176E+03  0.26545991254E+03  0.12498656417E+03 0.  0.
          2    1    1    2  501    0  0.10282789043E+03  0.26957122842E+02 -0.23606741374E+02  0.10889233104E+03  0.00000000000E+00 0. -1.
          1    1    1    2  502    0 -0.11978566516E+03  0.30194583096E+02  0.49846471273E+03  0.51354394969E+03  0.00000000000E+00 0. -1.
         22    1    3    3    0    0 -0.45555347096E+02 -0.59234478310E+02  0.14049322276E+03  0.15913000569E+03  0.00000000000E+00 0.  1.
         22    1    3    3    0    0  0.62513121827E+02  0.20827723734E+01  0.85987329004E+02  0.10632990685E+03  0.00000000000E+00 0.  1.
</event>
<event>
 7    1  0.5593520E-006  0.1950408E+03  0.7818608E-02  0.1343175E+00
          2   -1    0    0  502    0  0.00000000000E+00  0.00000000000E+00  0.51104067449E+03  0.51104067449E+03  0.00000000000E+00 0. -1.
          1   -1    0    0  501    0 -0.00000000000E+00 -0.00000000000E+00 -0.71743582625E+03  0.71743582625E+03  0.00000000000E+00 0. -1.
         25    2    1    2    0    0  0.98755102923E+02  0.19825936725E+03  0.52574006800E+02  0.25970843908E+03  0.12500040033E+03 0.  0.
          2    1    1    2  501    0 -0.85522136054E+02 -0.17243927151E+03 -0.59814557337E+03  0.62835297808E+03  0.00000000000E+00 0. -1.
          1    1    1    2  502    0 -0.13232966870E+02 -0.25820095740E+02  0.33917641482E+03  0.34041508357E+03  0.00000000000E+00 0. -1.
         22    1    3    3    0    0  0.86389891610E+02  0.42523796748E+02  0.35194706778E+02  0.10251904237E+03  0.00000000000E+00 0.  1.
         22    1    3    3    0    0  0.12365211313E+02  0.15573557051E+03  0.17379300022E+02  0.15718939672E+03  0.00000000000E+00 0.  1.
</event>
<event>
 7    1  0.5593520E-006  0.1029195E+03  0.7818608E-02  0.1421739E+00
          2   -1    0    0  502    0  0.00000000000E+00  0.00000000000E+00  0.45808723032E+03  0.45808723032E+03  0.00000000000E+00 0. -1.
          1   -1    0    0  501    0 -0.00000000000E+00 -0.00000000000E+00 -0.21395748055E+04  0.21395748055E+04  0.00000000000E+00 0. -1.
         25    2    1    2    0    0 -0.75110091730E+02  0.19769818666E+02 -0.40906081778E+02  0.15274522175E+03  0.12500169451E+03 0.  0.
          2    1    1    2  501    0 -0.22396369004E+02  0.18460604716E+02 -0.20358252385E+04  0.20360321198E+04  0.00000000000E+00 0. -1.
          1    1    1    2  502    0  0.97506460734E+02 -0.38230423382E+02  0.39524374509E+03  0.40888469425E+03  0.00000000000E+00 0. -1.
         22    1    3    3    0    0 -0.39896816388E+02 -0.49676301599E+02 -0.39310564391E+02  0.74865288160E+02  0.00000000000E+00 0.  1.
         22    1    3    3    0    0 -0.35213275342E+02  0.69446120265E+02 -0.15955173864E+01  0.77879933590E+02  0.00000000000E+00 0.  1.
</event>
<event>
 7    1  0.5593520E-006  0.7599291E+02  0.7818608E-02  0.1396867E+00
          2   -1    0    0  502    0  0.00000000000E+00  0.00000000000E+00  0.26144594326E+04  0.26144594326E+04  0.00000000000E+00 0. -1.
          1   -1    0    0  501    0 -0.00000000000E+00 -0.00000000000E+00 -0.11996011501E+02  0.11996011501E+02  0.00000000000E+00 0. -1.
         25    2    1    2    0    0 -0.13206732030E+02 -0.64396918853E+02  0.11020575227E+04  0.11110713247E+04  0.12500929657E+03 0.  0.
          2    1    1    2  501    0 -0.46794623712E+02  0.94416047936E+01  0.83798985850E+02  0.96442473729E+02  0.00000000000E+00 0. -1.
          1    1    1    2  502    0  0.60001355743E+02  0.54955314059E+02  0.14166069125E+04  0.14189416456E+04  0.00000000000E+00 0. -1.
         22    1    3    3    0    0  0.46711210640E+02 -0.65119285645E+02  0.55840581425E+03  0.56412721256E+03  0.00000000000E+00 0. -1.
         22    1    3    3    0    0 -0.59917942670E+02  0.72236679210E+00  0.54365170847E+03  0.54694411213E+03  0.00000000000E+00 0. -1.
</event>
<event>
 7    1  0.5593520E-006  0.8717944E+02  0.7818608E-02  0.1320925E+00
          2   -1    0    0  502    0  0.00000000000E+00  0.00000000000E+00  0.11989564581E+04  0.11989564581E+04  0.00000000000E+00 0. -1.
          1   -1    0    0  501    0 -0.00000000000E+00 -0.00000000000E+00 -0.26116705898E+03  0.26116705898E+03  0.00000000000E+00 0. -1.
         25    2    1    2    0    0 -0.14040710470E+03 -0.46530133014E+02  0.43796048039E+03  0.47886613368E+03  0.12499673306E+03 0.  0.
          2    1    1    2  501    0  0.85753168066E+02 -0.10368498973E+02 -0.23077257443E+03  0.24640838604E+03  0.00000000000E+00 0. -1.
          1    1    1    2  502    0  0.54653936637E+02  0.56898631987E+02  0.73060149318E+03  0.73484899737E+03  0.00000000000E+00 0. -1.
         22    1    3    3    0    0 -0.81838147865E+02 -0.76014132683E+02  0.36035201285E+03  0.37726542908E+03  0.00000000000E+00 0.  1.
         22    1    3    3    0    0 -0.58568956838E+02  0.29483999669E+02  0.77608467533E+02  0.10160070460E+03  0.00000000000E+00 0.  1.
</event>
<event>
 7    1  0.5593520E-006  0.4443527E+03  0.7818608E-02  0.1242688E+00
          2   -1    0    0  502    0  0.00000000000E+00  0.00000000000E+00  0.29019008538E+04  0.29019008538E+04  0.00000000000E+00 0. -1.
          1   -1    0    0  501    0 -0.00000000000E+00 -0.00000000000E+00 -0.30117774053E+03  0.30117774053E+03  0.00000000000E+00 0. -1.
         25    2    1    2    0    0 -0.25600366524E+03 -0.32659519201E+03  0.17319573661E+02  0.43374482206E+03  0.12502922449E+03 0.  0.
          2    1    1    2  501    0 -0.14992516495E+02 -0.28881499299E+02 -0.70712540255E+02  0.77840734207E+02  0.00000000000E+00 0. -1.
          1    1    1    2  502    0  0.27099618173E+03  0.35547669130E+03  0.26541160799E+04  0.26914930381E+04  0.00000000000E+00 0. -1.
         22    1    3    3    0    0 -0.23636014148E+03 -0.32340477217E+03 -0.90934717363E+01  0.40067375054E+03  0.00000000000E+00 0.  1.
         22    1    3    3    0    0 -0.19643523754E+02 -0.31904198331E+01  0.26413045398E+02  0.33071071518E+02  0.00000000000E+00 0.  1.
</event>
<event>
 7    1  0.5593520E-006  0.8026040E+02  0.7818608E-02  0.1328740E+00
          2   -1    0    0  502    0  0.00000000000E+00  0.00000000000E+00  0.15357224478E+04  0.15357224478E+04  0.00000000000E+00 0. -1.
          1   -1    0    0  501    0 -0.00000000000E+00 -0.00000000000E+00 -0.10916266284E+04  0.10916266284E+04  0.00000000000E+00 0. -1.
         25    2    1    2    0    0 -0.72460707346E+02 -0.33394133248E+02  0.27557515802E+03  0.31294376288E+03  0.12500563492E+03 0.  0.
          2    1    1    2  501    0  0.65818522372E+02 -0.46289256385E+02 -0.10701427885E+04  0.10731637158E+04  0.00000000000E+00 0. -1.
          1    1    1    2  502    0  0.66421849739E+01  0.79683389633E+02  0.12386634499E+04  0.12412415975E+04  0.00000000000E+00 0. -1.
         22    1    3    3    0    0 -0.86744742000E+02 -0.58621657698E+02  0.14296016088E+03  0.17719694302E+03  0.00000000000E+00 0.  1.
         22    1    3    3    0    0  0.14284034655E+02  0.25227524450E+02  0.13261499715E+03  0.13574681987E+03  0.00000000000E+00 0.  1.
</event>
<event>
 7    1  0.5593520E-006  0.1109490E+03  0.7818608E-02  0.1411816E+00
          2   -1    0    0  502    0  0.00000000000E+00  0.00000000000E+00  0.15426079870E+04  0.15426079870E+04  0.00000000000E+00 0. -1.
          1   -1    0    0  501    0 -0.00000000000E+00 -0.00000000000E+00 -0.12574184860E+03  0.12574184860E+03  0.00000000000E+00 0. -1.
         25    2    1    2    0    0 -0.81080982639E+02  0.28357121820E+02  0.31878196741E+03  0.35302361979E+03  0.12500192510E+03 0.  0.
          2    1    1    2  501    0 -0.27603607533E+02  0.91129580715E+01 -0.10388315568E+03  0.10787360746E+03  0.00000000000E+00 0. -1.
          1    1    1    2  502    0  0.10868459017E+03 -0.37470079891E+02  0.12019673267E+04  0.12074526083E+04  0.00000000000E+00 0. -1.
         22    1    3    3    0    0 -0.68465304993E+02 -0.15669541446E+02  0.29122279562E+03  0.29957261091E+03  0.00000000000E+00 0.  1.
         22    1    3    3    0    0 -0.12615677646E+02  0.44026663266E+02  0.27559171794E+02  0.53451008884E+02  0.00000000000E+00 0.  1.
</event>
<event>
 7    1  0.5593520E-006  0.5595485E+02  0.7818608E-02  0.1505487E+00
          2   -1    0    0  502    0  0.00000000000E+00  0.00000000000E+00  0.49796538280E+03  0.49796538280E+03  0.00000000000E+00 0. -1.
          1   -1    0    0  501    0 -0.00000000000E+00 -0.00000000000E+00 -0.12301442617E+03  0.12301442617E+03  0.00000000000E+00 0. -1.
         25    2    1    2    0    0  0.15278275109E+02  0.38341649144E+02  0.31664666958E+02  0.13535469261E+03  0.12495892897E+03 0.  0.
          2    1    1    2  501    0 -0.23034253244E+02  0.17831405606E+02 -0.66150489812E+02  0.72280171214E+02  0.00000000000E+00 0. -1.
          1    1    1    2  502    0  0.77559781342E+01 -0.56173054750E+02  0.40943677948E+03  0.41334494514E+03  0.00000000000E+00 0. -1.
         22    1    3    3    0    0  0.55147052643E+02 -0.21835987834E+02  0.16905405043E+02  0.61674958448E+02  0.00000000000E+00 0. -1.
         22    1    3    3    0    0 -0.39868777534E+02  0.60177636979E+02  0.14759261915E+02  0.73679734165E+02  0.00000000000E+00 0. -1.
</event>
<event>
 7    1  0.5593520E-006  0.6353882E+02  0.7818608E-02  0.1458124E+00
          2   -1    0    0  502    0  0.00000000000E+00  0.00000000000E+00  0.10335672703E+04  0.10335672703E+04  0.00000000000E+00 0. -1.
          1   -1    0    0  501    0 -0.00000000000E+00 -0.00000000000E+00 -0.48840716724E+03  0.48840716724E+03  0.00000000000E+00 0. -1.
         25    2    1    2    0    0  0.24523345041E+02 -0.92842212130E+02 -0.21411755009E+03  0.26588009454E+03  0.12499931444E+03 0.  0.
          2    1    1    2  501    0  0.29579147504E+01  0.35695872935E+02 -0.24611311856E+03  0.24870587394E+03  0.00000000000E+00 0. -1.
          1    1    1    2  502    0 -0.27481259791E+02  0.57146339196E+02  0.10053907717E+04  0.10073884691E+04  0.00000000000E+00 0. -1.
         22    1    3    3    0    0 -0.35979623778E+02 -0.44737156015E+02 -0.16399933120E+03  0.17375766771E+03  0.00000000000E+00 0. -1.
         22    1    3    3    0    0  0.60502968819E+02 -0.48105056115E+02 -0.50118218895E+02  0.92122426830E+02  0.00000000000E+00 0. -1.
</event>
<event>
 7    1  0.5593520E-006  0.1077117E+03  0.7818608E-02  0.1288620E+00
          2   -1    0    0  502    0  0.00000000000E+00  0.00000000000E+00  0.28571858199E+03  0.28571858199E+03  0.00000000000E+00 0. -1.
          1   -1    0    0  501    0 -0.00000000000E+00 -0.00000000000E+00 -0.41000691414E+03  0.41000691414E+03  0.00000000000E+00 0. -1.
         25    2    1    2    0    0 -0.55012880587E+01  0.39248328458E+02 -0.16925939798E+03  0.21411151360E+03  0.12499720395E+03 0.  0.
          2    1    1    2  501    0  0.64135356170E+02  0.57021569970E+02 -0.19688765469E+03  0.21477791303E+03  0.00000000000E+00 0. -1.
          1    1    1    2  502    0 -0.58634068111E+02 -0.96269898428E+02  0.24185872054E+03  0.26683606950E+03  0.00000000000E+00 0. -1.
         22    1    3    3    0    0 -0.97735897986E+00  0.26685886060E+02 -0.18867085407E+03  0.19055126062E+03  0.00000000000E+00 0. -1.
         22    1    3    3    0    0 -0.45239290789E+01  0.12562442398E+02  0.19411456090E+02  0.23560252987E+02  0.00000000000E+00 0. -1.
</event>
<event>
 7    1  0.5593520E-006  0.1072524E+03  0.7818608E-02  0.1427946E+00
          2   -1    0    0  502    0  0.00000000000E+00  0.00000000000E+00  0.30768370926E+03  0.30768370926E+03  0.00000000000E+00 0. -1.
          1   -1    0    0  501    0 -0.00000000000E+00 -0.00000000000E+00 -0.11048701597E+03  0.11048701597E+03  0.00000000000E+00 0. -1.
         25    2    1    2    0    0 -0.37891223338E+01  0.92601878145E+02  0.13902783991E+03  0.20867049426E+03  0.12500067849E+03 0.  0.
          2    1    1    2  501    0 -0.74789112675E+01  0.25487286801E+02 -0.45021749626E+02  0.52273261249E+02  0.00000000000E+00 0. -1.
          1    1    1    2  502    0  0.11268033601E+02 -0.11808916495E+03  0.10319060301E+03  0.15722696972E+03  0.00000000000E+00 0. -1.
         22    1    3    3    0    0 -0.24761005340E+02 -0.24386402432E+02  0.18386267474E+02  0.39317411418E+02  0.00000000000E+00 0. -1.
         22    1    3    3    0    0  0.20971883006E+02  0.11698828058E+03  0.12064157244E+03  0.16935308285E+03  0.00000000000E+00 0. -1.
</event>
<event>
 7    1  0.5593520E-006  0.1623755E+03  0.7818608E-02  0.1220166E+00
          2   -1    0    0  502    0  0.00000000000E+00  0.00000000000E+00  0.17294140274E+04  0.17294140274E+04  0.00000000000E+00 0. -1.
          1   -1    0    0  501    0 -0.00000000000E+00 -0.00000000000E+00 -0.24969111343E+04  0.24969111343E+04  0.00000000000E+00 0. -1.
         25    2    1    2    0    0  0.13471257668E+03  0.10038880880E+03  0.72621155639E+02  0.22164109916E+03  0.12500221335E+03 0.  0.
          2    1    1    2  501    0 -0.38527691928E+02 -0.15835913426E+03 -0.24176614476E+04  0.24231485455E+04  0.00000000000E+00 0. -1.
          1    1    1    2  502    0 -0.96184884756E+02  0.57970325455E+02  0.15775431851E+04  0.15815355170E+04  0.00000000000E+00 0. -1.
         22    1    3    3    0    0  0.10111353183E+03  0.12637285484E+03  0.76452207823E+02  0.17899437098E+03  0.00000000000E+00 0.  1.
         22    1    3    3    0    0  0.33599044856E+02 -0.25984046043E+02 -0.38310521840E+01  0.42646728184E+02  0.00000000000E+00 0.  1.
</event>
<event>
 7    1  0.5593520E-006  0.7726801E+02  0.7818608E-02  0.1361045E+00
          2   -1    0    0  502    0  0.00000000000E+00  0.00000000000E+00  0.39355625751E+03  0.39355625751E+03  0.00000000000E+00 0. -1.
          1   -1    0    0  501    0 -0.00000000000E+00 -0.00000000000E+00 -0.37491368327E+03  0.37491368327E+03  0.00000000000E+00 0. -1.
         25    2    1    2    0    0  0.23480106344E+02  0.11928191314E+03  0.50638753771E+02  0.18157037772E+03  0.12499611389E+03 0.  0.
          2    1    1    2  501    0 -0.45898939115E+02 -0.60501013206E+02 -0.30110557846E+03  0.31053446603E+03  0.00000000000E+00 0. -1.
          1    1    1    2  502    0  0.22418832771E+02 -0.58780899929E+02  0.26910939894E+03  0.27636509703E+03  0.00000000000E+00 0. -1.
         22    1    3    3    0    0 -0.13642290404E+02 -0.10815452156E+02  0.42624989472E+02  0.46043195158E+02  0.00000000000E+00 0. -1.
         22    1    3    3    0    0  0.37122396748E+02  0.13009736529E+03  0.80137642983E+01  0.13552718257E+03  0.00000000000E+00 0. -1.
</event>
<event>
 7    1  0.5593520E-006  0.1647511E+03  0.7818608E-02  0.1238271E+00
          2   -1    0    0  502    0  0.00000000000E+00  0.00000000000E+00  0.13665926987E+04  0.13665926987E+04  0.00000000000E+00 0. -1.
          1   -1    0    0  501    0 -0.00000000000E+00 -0.00000000000E+00 -0.42910783607E+03  0.42910783607E+03  0.00000000000E+00 0. -1.
         25    2    1    2    0    0 -0.12694245255E+03 -0.16347590716E+03 -0.96952538936E+02  0.26050531764E+03  0.12499786890E+03 0.  0.
          2    1    1    2  501    0  0.35877383341E+02  0.15196869337E+03 -0.22419927192E+03  0.27321600232E+03  0.00000000000E+00 0. -1.
          1    1    1    2  502    0  0.91065069206E+02  0.11507213798E+02  0.12586366735E+04  0.12619792149E+04  0.00000000000E+00 0. -1.
         22    1    3    3    0    0 -0.45212006596E+02 -0.40915576620E+02 -0.95354588856E+02  0.11318439630E+03  0.00000000000E+00 0.  1.
         22    1    3    3    0    0 -0.81730445952E+02 -0.12256033054E+03 -0.15979500800E+01  0.14732092133E+03  0.00000000000E+00 0.  1.
</event>
<event>
 7    1  0.5593520E-006  0.4409517E+02  0.7818608E-02  0.1547050E+00
          2   -1    0    0  502    0  0.00000000000E+00  0.00000000000E+00  0.90876641730E+03  0.90876641730E+03  0.00000000000E+00 0. -1.
          1   -1    0    0  501    0 -0.00000000000E+00 -0.00000000000E+00 -0.34784051799E+03  0.34784051799E+03  0.00000000000E+00 0. -1.
         25    2    1    2    0    0  0.13325925060E+02  0.16862127721E+02  0.44052670755E+02  0.13427282989E+03  0.12500657349E+03 0.  0.
          2    1    1    2  501    0 -0.65200209543E+01 -0.44083946493E+02 -0.30084849622E+03  0.30413109458E+03  0.00000000000E+00 0. -1.
          1    1    1    2  502    0 -0.68059041060E+01  0.27221818773E+02  0.81772172478E+03  0.81820301082E+03  0.00000000000E+00 0. -1.
         22    1    3    3    0    0 -0.32596582840E+02 -0.25066994564E+02  0.57461312713E+02  0.70658997219E+02  0.00000000000E+00 0.  1.
         22    1    3    3    0    0  0.45922507900E+02  0.41929122285E+02 -0.13408641957E+02  0.63613832667E+02  0.00000000000E+00 0.  1.
</event>
<event>
 7    1  0.5593520E-006  0.1037503E+03  0.7818608E-02  0.1376934E+00
          2   -1    0    0  502    0  0.00000000000E+00  0.00000000000E+00  0.12313860228E+04  0.12313860228E+04  0.00000000000E+00 0. -1.
          1   -1    0    0  501    0 -0.00000000000E+00 -0.00000000000E+00 -0.85394143384E+03  0.85394143384E+03  0.00000000000E+00 0. -1.
         25    2    1    2    0    0  0.30254480341E+02  0.63268562129E+02  0.61348303489E+03  0.63000451719E+03  0.12500405214E+03 0.  0.
          2    1    1    2  501    0 -0.68539070877E+02 -0.78135832549E+02 -0.84178919861E+03  0.84818150620E+03  0.00000000000E+00 0. -1.
          1    1    1    2  502    0  0.38284590536E+02  0.14867270420E+02  0.60575075266E+03  0.60714143324E+03  0.00000000000E+00 0. -1.
         22    1    3    3    0    0  0.29120446023E+02  0.90429894177E+02  0.28539341978E+03  0.30079057531E+03  0.00000000000E+00 0. -1.
         22    1    3    3    0    0  0.11340343187E+01 -0.27161332048E+02  0.32808961510E+03  0.32921394189E+03  0.00000000000E+00 0. -1.
</event>
<event>
 7    1  0.5593520E-006  0.1191405E+03  0.7818608E-02  0.1296281E+00
          2   -1    0    0  502    0  0.00000000000E+00  0.00000000000E+00  0.61670810379E+03  0.61670810379E+03  0.00000000000E+00 0. -1.
          1   -1    0    0  501    0 -0.00000000000E+00 -0.00000000000E+00 -0.43234610039E+03  0.43234610039E+03  0.00000000000E+00 0. -1.
         25    2    1    2    0    0 -0.12850233896E+03  0.96536755199E+02 -0.17915569068E+02  0.20439789740E+03  0.12500134649E+03 0.  0.
          2    1    1    2  501    0  0.56413679011E+02 -0.10113274589E+03 -0.30812492785E+03  0.32916759657E+03  0.00000000000E+00 0. -1.
          1    1    1    2  502    0  0.72088659947E+02  0.45959906869E+01  0.51040250032E+03  0.51548871021E+03  0.00000000000E+00 0. -1.
         22    1    3    3    0    0  0.54514744390E+01 -0.49991611383E+01 -0.34695923859E+02  0.35475587635E+02  0.00000000000E+00 0. -1.
         22    1    3    3    0    0 -0.13395381340E+03  0.10153591634E+03  0.16780354791E+02  0.16892230977E+03  0.00000000000E+00 0. -1.
</event>
<event>
 7    1  0.5593520E-006  0.1992165E+03  0.7818608E-02  0.1222536E+00
          2   -1    0    0  502    0  0.00000000000E+00  0.00000000000E+00  0.10763821703E+04  0.10763821703E+04  0.00000000000E+00 0. -1.
          1   -1    0    0  501    0 -0.00000000000E+00 -0.00000000000E+00 -0.63888640685E+03  0.63888640685E+03  0.00000000000E+00 0. -1.
         25    2    1    2    0    0 -0.17438218949E+03 -0.73681183850E+02  0.29292592897E+03  0.37049698961E+03  0.12499741830E+03 0.  0.
          2    1    1    2  501    0  0.35947008785E+02 -0.81735251107E+02 -0.58208688967E+03  0.58889556446E+03  0.00000000000E+00 0. -1.
          1    1    1    2  502    0  0.13843518071E+03  0.15541643496E+03  0.72665672415E+03  0.75587602308E+03  0.00000000000E+00 0. -1.
         22    1    3    3    0    0 -0.12172799050E+03 -0.56261592102E+02  0.93438819831E+02  0.16344382359E+03  0.00000000000E+00 0. -1.
         22    1    3    3    0    0 -0.52654198993E+02 -0.17419591748E+02  0.19948710914E+03  0.20705316602E+03  0.00000000000E+00 0. -1.
</event>
<event>
 7    1  0.5593520E-006  0.2152744E+03  0.7818608E-02  0.1289873E+00
          2   -1    0    0  502    0  0.00000000000E+00  0.00000000000E+00  0.15934198409E+04  0.15934198409E+04  0.00000000000E+00 0. -1.
          1   -1    0    0  501    0 -0.00000000000E+00 -0.00000000000E+00 -0.78040289112E+03  0.78040289112E+03  0.00000000000E+00 0. -1.
         25    2    1    2    0    0 -0.25100502049E+03  0.53374942906E+02  0.54634255271E+03  0.61641555184E+03  0.12500217121E+03 0.  0.
          2    1    1    2  501    0  0.20948465150E+03 -0.44598967521E+02 -0.72951928610E+03  0.76030998673E+03  0.00000000000E+00 0. -1.
          1    1    1    2  502    0  0.41520368985E+02 -0.87759753849E+01  0.99619368316E+03  0.99709719344E+03  0.00000000000E+00 0. -1.
         22    1    3    3    0    0 -0.23342858539E+03  0.85662697127E+02  0.47898404604E+03  0.53967834727E+03  0.00000000000E+00 0.  1.
         22    1    3    3    0    0 -0.17576435094E+02 -0.32287754221E+02  0.67358506677E+02  0.76737204568E+02  0.00000000000E+00 0.  1.
</event>
<event>
 7    1  0.5593520E-006  0.2898721E+02  0.7818608E-02  0.1727932E+00
          2   -1    0    0  502    0  0.00000000000E+00  0.00000000000E+00  0.31558271585E+03  0.31558271585E+03  0.00000000000E+00 0. -1.
          1   -1    0    0  501    0 -0.00000000000E+00 -0.00000000000E+00 -0.13339376038E+03  0.13339376038E+03  0.00000000000E+00 0. -1.
         25    2    1    2    0    0  0.22040933135E+01 -0.51859095697E+01 -0.95220446605E+02  0.15724096474E+03  0.12500414336E+03 0.  0.
          2    1    1    2  501    0  0.23338216346E+02  0.18891705357E+02  0.29349328468E+02  0.41987521421E+02  0.00000000000E+00 0. -1.
          1    1    1    2  502    0 -0.25542309660E+02 -0.13705795788E+02  0.24806007361E+03  0.24974799006E+03  0.00000000000E+00 0. -1.
         22    1    3    3    0    0  0.58678234408E+02 -0.80958690152E+00 -0.78827850161E+02  0.98273193624E+02  0.00000000000E+00 0. -1.
         22    1    3    3    0    0 -0.56474141094E+02 -0.43763226682E+01 -0.16392596444E+02  0.58967771118E+02  0.00000000000E+00 0. -1.
</event>
<event>
 7    1  0.5593520E-006  0.9082042E+02  0.7818608E-02  0.1368532E+00
          2   -1    0    0  502    0  0.00000000000E+00  0.00000000000E+00  0.22222191247E+04  0.22222191247E+04  0.00000000000E+00 0. -1.
          1   -1    0    0  501    0 -0.00000000000E+00 -0.00000000000E+00 -0.48655524805E+03  0.48655524805E+03  0.00000000000E+00 0. -1.
         25    2    1    2    0    0  0.94098887379E+02 -0.58936941688E+02  0.29751802112E+03  0.34127703633E+03  0.12499951574E+03 0.  0.
          2    1    1    2  501    0 -0.46901240869E+02 -0.18126589840E+02 -0.46223863763E+03  0.46496543718E+03  0.00000000000E+00 0. -1.
          1    1    1    2  502    0 -0.47197646510E+02  0.77063531528E+02  0.19003844931E+04  0.19025318992E+04  0.00000000000E+00 0. -1.
         22    1    3    3    0    0  0.48229133357E+02 -0.96032344158E+02  0.20700657433E+03  0.23323803773E+03  0.00000000000E+00 0.  1.
         22    1    3    3    0    0  0.45869754021E+02  0.37095402470E+02  0.90511446795E+02  0.10803899860E+03  0.00000000000E+00 0.  1.
</event>
<event>
 7    1  0.5593520E-006  0.9798387E+02  0.7818608E-02  0.1335597E+00
          2   -1    0    0  502    0  0.00000000000E+00  0.00000000000E+00  0.21310230030E+04  0.21310230030E+04  0.00000000000E+00 0. -1.
          1   -1    0    0  501    0 -0.00000000000E+00 -0.00000000000E+00 -0.16734256109E+04  0.16734256109E+04  0.00000000000E+00 0. -1.
         25    2    1    2    0    0  0.29156124379E+02 -0.51610295739E+02  0.67448027832E+03  0.68852206491E+03  0.12500114323E+03 0.  0.
          2    1    1    2  501    0  0.59891453969E+02 -0.14724911869E+02 -0.16637059543E+04  0.16648487354E+04  0.00000000000E+00 0. -1.
          1    1    1    2  502    0 -0.89047578348E+02  0.66335207608E+02  0.14468230681E+04  0.14510778137E+04  0.00000000000E+00 0. -1.
         22    1    3    3    0    0 -0.26135456110E+01  0.28683982810E+02  0.39397407083E+03  0.39502553079E+03  0.00000000000E+00 0.  1.
         22    1    3    3    0    0  0.31769669990E+02 -0.80294278548E+02  0.28050620749E+03  0.29349653412E+03  0.00000000000E+00 0.  1.
</event>
<event>
 7    1  0.5593520E-006  0.7913986E+02  0.7818608E-02  0.1364105E+00
          2   -1    0    0  502    0  0.00000000000E+00  0.00000000000E+00  0.15578459442E+04  0.15578459442E+04  0.00000000000E+00 0. -1.
          1   -1    0    0  501    0 -0.00000000000E+00 -0.00000000000E+00 -0.37082368431E+02  0.37082368431E+02  0.00000000000E+00 0. -1.
         25    2    1    2    0    0  0.29536864446E+01 -0.45796169450E+02  0.19971299017E+03  0.24003905484E+03  0.12500982363E+03 0.  0.
          2    1    1    2  501    0  0.52283041980E+01  0.10510417263E+03  0.15526388312E+03  0.18756624342E+03  0.00000000000E+00 0. -1.
          1    1    1    2  502    0 -0.81819906425E+01 -0.59308003182E+02  0.11657867025E+04  0.11673230144E+04  0.00000000000E+00 0. -1.
         22    1    3    3    0    0 -0.34717178262E+02 -0.71698075968E+02  0.16293112565E+03  0.18136275326E+03  0.00000000000E+00 0. -1.
         22    1    3    3    0    0  0.37670864706E+02  0.25901906518E+02  0.36781864516E+02  0.58676301573E+02  0.00000000000E+00 0. -1.
</event>
<event>
 7    1  0.5593520E-006  0.1576988E+03  0.7818608E-02  0.1240355E+00
          2   -1    0    0  502    0  0.00000000000E+00  0.00000000000E+00  0.56412937147E+03  0.56412937147E+03  0.00000000000E+00 0. -1.
          1   -1    0    0  501    0 -0.00000000000E+00 -0.00000000000E+00 -0.31309225909E+03  0.31309225909E+03  0.00000000000E+00 0. -1.
         25    2    1    2    0    0 -0.15273340868E+03 -0.18323881419E+03  0.13313075482E+03  0.30042074760E+03  0.12499948222E+03 0.  0.
          2    1    1    2  501    0  0.77767805380E+02  0.12672052537E+03 -0.19778991782E+03  0.24744044676E+03  0.00000000000E+00 0. -1.
          1    1    1    2  502    0  0.74965603296E+02  0.56518288822E+02  0.31569627538E+03  0.32936043621E+03  0.00000000000E+00 0. -1.
         22    1    3    3    0    0 -0.13848031222E+03 -0.20177227158E+03  0.11292785329E+03  0.26952095744E+03  0.00000000000E+00 0. -1.
         22    1    3    3    0    0 -0.14253096460E+02  0.18533457389E+02  0.20202901530E+02  0.30899790157E+02  0.00000000000E+00 0. -1.
</event>
<event>
 7    1  0.5593520E-006  0.6434873E+02  0.7818608E-02  0.1491969E+00
          2   -1    0    0  502    0  0.00000000000E+00  0.00000000000E+00  0.82698245773E+03  0.82698245773E+03  0.00000000000E+00 0. -1.
          1   -1    0    0  501    0 -0.00000000000E+00 -0.00000000000E+00 -0.17403320890E+04  0.17403320890E+04  0.00000000000E+00 0. -1.
         25    2    1    2    0    0  0.37630406473E+02 -0.61257852716E+02  0.15777141784E+03  0.21374286689E+03  0.12500248337E+03 0.  0.
          2    1    1    2  501    0 -0.99267850675E+01  0.63571851503E+02 -0.17114402355E+04  0.17126492931E+04  0.00000000000E+00 0. -1.
          1    1    1    2  502    0 -0.27703621405E+02 -0.23139987870E+01  0.64031918646E+03  0.64092238670E+03  0.00000000000E+00 0. -1.
         22    1    3    3    0    0 -0.28083618878E+01 -0.10474762484E+01  0.13872029886E+03  0.13875267716E+03  0.00000000000E+00 0. -1.
         22    1    3    3    0    0  0.40438768360E+02 -0.60210376468E+02  0.19051118978E+02  0.74990189727E+02  0.00000000000E+00 0. -1.
</event>
<event>
 7    1  0.5593520E-006  0.5509648E+02  0.7818608E-02  0.1540682E+00
          2   -1    0    0  502    0  0.00000000000E+00  0.00000000000E+00  0.26453988631E+03  0.26453988631E+03  0.00000000000E+00 0. -1.
          1   -1    0    0  501    0 -0.00000000000E+00 -0.00000000000E+00 -0.36875990570E+03  0.36875990570E+03  0.00000000000E+00 0. -1.
         25    2    1    2    0    0  0.31302803129E+02 -0.12354034027E+02 -0.76889293110E+02  0.15056649325E+03  0.12500327137E+03 0.  0.
          2    1    1    2  501    0 -0.53943680861E+02  0.18275348662E+02 -0.25123464500E+03  0.25760969687E+03  0.00000000000E+00 0. -1.
          1    1    1    2  502    0  0.22640877731E+02 -0.59213146350E+01  0.22390391871E+03  0.22512360189E+03  0.00000000000E+00 0. -1.
         22    1    3    3    0    0  0.41654416238E+02 -0.53237333570E+02 -0.57176571369E+01  0.67838010591E+02  0.00000000000E+00 0.  1.
         22    1    3    3    0    0 -0.10351613109E+02  0.40883299543E+02 -0.71171635974E+02  0.82728482656E+02  0.00000000000E+00 0.  1.
</event>
<event>
 7    1  0.5593520E-006  0.2065121E+03  0.7818608E-02  0.1167008E+00
          2   -1    0    0  502    0  0.00000000000E+00  0.00000000000E+00  0.22259951529E+04  0.22259951529E+04  0.00000000000E+00 0. -1.
          1   -1    0    0  501    0 -0.00000000000E+00 -0.00000000000E+00 -0.97312766482E+03  0.97312766482E+03  0.00000000000E+00 0. -1.
         25    2    1    2    0    0  0.96661751872E+02  0.74459545975E+02  0.11226134364E+03  0.20763733197E+03  0.12499173609E+03 0.  0.
          2    1    1    2  501    0 -0.65057955026E+02  0.14434757332E+03 -0.91269015467E+03  0.92632180038E+03  0.00000000000E+00 0. -1.
          1    1    1    2  502    0 -0.31603796846E+02 -0.21880711930E+03  0.20532962991E+04  0.20651636854E+04  0.00000000000E+00 0. -1.
         22    1    3    3    0    0 -0.25110750354E+02  0.32505082641E+01 -0.29652921789E+01  0.25493303925E+02  0.00000000000E+00 0. -1.
         22    1    3    3    0    0  0.12177250223E+03  0.71209037711E+02  0.11522663582E+03  0.18214402804E+03  0.00000000000E+00 0. -1.
</event>
<event>
 7    1  0.5593520E-006  0.3813986E+02  0.7818608E-02  0.1555781E+00
          2   -1    0    0  502    0  0.00000000000E+00  0.00000000000E+00  0.12924365682E+04  0.12924365682E+04  0.00000000000E+00 0. -1.
          1   -1    0    0  501    0 -0.00000000000E+00 -0.00000000000E+00 -0.13227897585E+04  0.13227897585E+04  0.00000000000E+00 0. -1.
         25    2    1    2    0    0  0.19417117267E+02 -0.37867649404E+02  0.29978942358E+03  0.32759187140E+03  0.12502700669E+03 0.  0.
          2    1    1    2  501    0  0.11225446130E+02  0.36457586206E+02 -0.13083701289E+04  0.13089261096E+04  0.00000000000E+00 0. -1.
          1    1    1    2  502    0 -0.30642563397E+02  0.14100631982E+01  0.97822751493E+03  0.97870834570E+03  0.00000000000E+00 0. -1.
         22    1    3    3    0    0  0.21314962974E+02  0.40452653326E+02  0.16952910813E+03  0.17558719574E+03  0.00000000000E+00 0.  1.
         22    1    3    3    0    0 -0.18978457075E+01 -0.78320302730E+02  0.13026031545E+03  0.15200467565E+03  0.00000000000E+00 0.  1.
</event>
<event>
 7    1  0.5593520E-006  0.5395995E+02  0.7818608E-02  0.1541899E+00
          2   -1    0    0  502    0  0.00000000000E+00  0.00000000000E+00  0.85726519431E+03  0.85726519431E+03  0.00000000000E+00 0. -1.
          1   -1    0    0  501    0 -0.00000000000E+00 -0.00000000000E+00 -0.46717138622E+02  0.46717138622E+02  0.00000000000E+00 0. -1.
         25    2    1    2    0    0 -0.40110069563E+02 -0.12541226687E+02  0.16911945293E+03  0.21446048912E+03  0.12500324789E+03 0.  0.
          2    1    1    2  501    0 -0.91734902303E+00 -0.23689214431E+02 -0.16777946883E+02  0.29043414248E+02  0.00000000000E+00 0. -1.
          1    1    1    2  502    0  0.41027418586E+02  0.36230441117E+02  0.65820654963E+03  0.66047842956E+03  0.00000000000E+00 0. -1.
         22    1    3    3    0    0  0.19913071849E+02  0.28564746817E+02  0.53099881732E+01  0.35223162345E+02  0.00000000000E+00 0. -1.
         22    1    3    3    0    0 -0.60023141411E+02 -0.41105973504E+02  0.16380946476E+03  0.17923732677E+03  0.00000000000E+00 0. -1.
</event>
<event>
 7    1  0.5593520E-006  0.5478043E+02  0.7818608E-02  0.1442558E+00
          2   -1    0    0  502    0  0.00000000000E+00  0.00000000000E+00  0.12203379540E+03  0.12203379540E+03  0.00000000000E+00 0. -1.
          1   -1    0    0  501    0 -0.00000000000E+00 -0.00000000000E+00 -0.12749061129E+04  0.12749061129E+04  0.00000000000E+00 0. -1.
         25    2    1    2    0    0 -0.27073319414E+02  0.55661666952E+02 -0.14238645321E+03  0.19932303483E+03  0.12499833745E+03 0.  0.
          2    1    1    2  501    0  0.46432354896E+02 -0.38367191608E+01 -0.10953349555E+04  0.10963253845E+04  0.00000000000E+00 0. -1.
          1    1    1    2  502    0 -0.19359035482E+02 -0.51824947791E+02  0.84849091177E+02  0.10129148899E+03  0.00000000000E+00 0. -1.
         22    1    3    3    0    0  0.28676188831E+02  0.40051390495E+02 -0.13148850224E+03  0.14041247775E+03  0.00000000000E+00 0.  1.
         22    1    3    3    0    0 -0.55749508246E+02  0.15610276457E+02 -0.10897950970E+02  0.58910557085E+02  0.00000000000E+00 0.  1.
</event>
<event>
 7    1  0.5593520E-006  0.8675344E+02  0.7818608E-02  0.1373222E+00
          2   -1    0    0  502    0  0.00000000000E+00  0.00000000000E+00  0.41185157051E+03  0.41185157051E+03  0.00000000000E+00 0. -1.
          1   -1    0    0  501    0 -0.00000000000E+00 -0.00000000000E+00 -0.15760945809E+04  0.15760945809E+04  0.00000000000E+00 0. -1.
         25    2    1    2    0    0  0.93246975512E+01  0.38917585013E+02 -0.21340588481E+03  0.25053711760E+03  0.12500098886E+03 0.  0.
          2    1    1    2  501    0 -0.17722812664E+02 -0.88853649029E+02 -0.13409580681E+04  0.13440154796E+04  0.00000000000E+00 0. -1.
          1    1    1    2  502    0  0.83981151126E+01  0.49936064016E+02  0.39012094243E+03  0.39339355428E+03  0.00000000000E+00 0. -1.
         22    1    3    3    0    0 -0.31165394279E+02  0.71550410294E+02 -0.11108455531E+03  0.13575905657E+03  0.00000000000E+00 0.  1.
         22    1    3    3    0    0  0.40490091830E+02 -0.32632825281E+02 -0.10232132950E+03  0.11477806103E+03  0.00000000000E+00 0.  1.
</event>
<event>
 7    1  0.5593520E-006  0.1046480E+03  0.7818608E-02  0.1338988E+00
          2   -1    0    0  502    0  0.00000000000E+00  0.00000000000E+00  0.19480559074E+03  0.19480559074E+03  0.00000000000E+00 0. -1.
          1   -1    0    0  501    0 -0.00000000000E+00 -0.00000000000E+00 -0.11924224157E+04  0.11924224157E+04  0.00000000000E+00 0. -1.
         25    2    1    2    0    0  0.94939743969E+00 -0.62062341172E+02 -0.14041784554E+03  0.19797220974E+03  0.12499275554E+03 0.  0.
          2    1    1    2  501    0 -0.40804864314E+02  0.10149879966E+03 -0.10154707734E+04  0.10213461386E+04  0.00000000000E+00 0. -1.
          1    1    1    2  502    0  0.39855466875E+02 -0.39436458483E+02  0.15827179399E+03  0.16790965806E+03  0.00000000000E+00 0. -1.
         22    1    3    3    0    0  0.53572199140E+02 -0.29879740232E+02 -0.23326582032E+02  0.65627043407E+02  0.00000000000E+00 0. -1.
         22    1    3    3    0    0 -0.52622801701E+02 -0.32182600940E+02 -0.11709126351E+03  0.13234516633E+03  0.00000000000E+00 0. -1.
</event>
<event>
 7    1  0.5593520E-006  0.5035128E+02  0.7818608E-02  0.1487973E+00
          2   -1    0    0  502    0  0.00000000000E+00  0.00000000000E+00  0.75118062551E+03  0.75118062551E+03  0.00000000000E+00 0. -1.
          1   -1    0    0  501    0 -0.00000000000E+00 -0.00000000000E+00 -0.32314117551E+02  0.32314117551E+02  0.00000000000E+00 0. -1.
         25    2    1    2    0    0 -0.37148568020E+02  0.96877228861E+01  0.18785131283E+03  0.22888358307E+03  0.12500284310E+03 0.  0.
          2    1    1    2  501    0  0.10784195801E+02  0.34903222713E+02  0.21334540505E+02  0.42304804140E+02  0.00000000000E+00 0. -1.
          1    1    1    2  502    0  0.26364372220E+02 -0.44590945599E+02  0.50968065462E+03  0.51230635585E+03  0.00000000000E+00 0. -1.
         22    1    3    3    0    0  0.23935280221E+02 -0.20312010319E+02  0.14523297864E+03  0.14858698963E+03  0.00000000000E+00 0.  1.
         22    1    3    3    0    0 -0.61083848241E+02  0.29999733205E+02  0.42618334192E+02  0.80296593437E+02  0.00000000000E+00 0.  1.
</event>
<event>
 7    1  0.5593520E-006  0.1821323E+03  0.7818608E-02  0.1216991E+00
          2   -1    0    0  502    0  0.00000000000E+00  0.00000000000E+00  0.46286707448E+03  0.46286707448E+03  0.00000000000E+00 0. -1.
          1   -1    0    0  501    0 -0.00000000000E+00 -0.00000000000E+00 -0.79380640654E+03  0.79380640654E+03  0.00000000000E+00 0. -1.
         25    2    1    2    0    0  0.86105406899E+02  0.12269177273E+03  0.51407897111E+02  0.20183104858E+03  0.12500235234E+03 0.  0.
          2    1    1    2  501    0 -0.68030468944E+02  0.78031336678E+02 -0.68414864722E+03  0.69193670643E+03  0.00000000000E+00 0. -1.
          1    1    1    2  502    0 -0.18074937955E+02 -0.20072310941E+03  0.30180141805E+03  0.36290572601E+03  0.00000000000E+00 0. -1.
         22    1    3    3    0    0  0.80526208094E+02  0.14798060808E+03  0.38148142774E+02  0.17273682686E+03  0.00000000000E+00 0.  1.
         22    1    3    3    0    0  0.55791988050E+01 -0.25288835343E+02  0.13259754336E+02  0.29094221718E+02  0.00000000000E+00 0.  1.
</event>
<event>
 7    1  0.5593520E-006  0.9621453E+02  0.7818608E-02  0.1448490E+00
          2   -1    0    0  502    0  0.00000000000E+00  0.00000000000E+00  0.32529425616E+03  0.32529425616E+03  0.00000000000E+00 0. -1.
          1   -1    0    0  501    0 -0.00000000000E+00 -0.00000000000E+00 -0.28769214938E+03  0.28769214938E+03  0.00000000000E+00 0. -1.
         25    2    1    2    0    0 -0.72235320203E+01 -0.74334709020E+02 -0.59540362209E+01  0.14573333512E+03  0.12499970415E+03 0.  0.
          2    1    1    2  501    0  0.58908030461E+01  0.99685036706E+02 -0.19938264825E+03  0.22299158846E+03  0.00000000000E+00 0. -1.
          1    1    1    2  502    0  0.13327289742E+01 -0.25350327686E+02  0.24293879124E+03  0.24426148196E+03  0.00000000000E+00 0. -1.
         22    1    3    3    0    0  0.94049763318E+01 -0.39313246947E+01  0.52032110102E+02  0.53021216276E+02  0.00000000000E+00 0.  1.
         22    1    3    3    0    0 -0.16628508352E+02 -0.70403384326E+02 -0.57986146323E+02  0.92712118841E+02  0.00000000000E+00 0.  1.
</event>
<event>
 7    1  0.5593520E-006  0.2445070E+03  0.7818608E-02  0.1245153E+00
          2   -1    0    0  502    0  0.00000000000E+00  0.00000000000E+00  0.15124908577E+04  0.15124908577E+04  0.00000000000E+00 0. -1.
          1   -1    0    0  501    0 -0.00000000000E+00 -0.00000000000E+00 -0.15646714889E+04  0.15646714889E+04  0.00000000000E+00 0. -1.
         25    2    1    2    0    0 -0.13895124570E+03 -0.24198235264E+03  0.28822199739E+02  0.30711268574E+03  0.12499829948E+03 0.  0.
          2    1    1    2  501    0  0.55802896238E+02  0.14616504965E+02 -0.14140357001E+04  0.14152118452E+04  0.00000000000E+00 0. -1.
          1    1    1    2  502    0  0.83148349462E+02  0.22736584767E+03  0.13330328692E+04  0.13548378158E+04  0.00000000000E+00 0. -1.
         22    1    3    3    0    0 -0.87495002431E+01 -0.32078052124E+02 -0.38720776877E+02  0.51037767825E+02  0.00000000000E+00 0. -1.
         22    1    3    3    0    0 -0.13020174546E+03 -0.20990430051E+03  0.67542976616E+02  0.25607491791E+03  0.00000000000E+00 0. -1.
</event>
<event>
 7    1  0.5593520E-006  0.6769229E+02  0.7818608E-02  0.1384675E+00
          2   -1    0    0  502    0  0.00000000000E+00  0.00000000000E+00  0.44400899352E+03  0.44400899352E+03  0.00000000000E+00 0. -1.
          1   -1    0    0  501    0 -0.00000000000E+00 -0.00000000000E+00 -0.23803222925E+03  0.23803222925E+03  0.00000000000E+00 0. -1.
         25    2    1    2    0    0 -0.57639566781E+02 -0.92690317363E+02 -0.75547441668E+01  0.16611983701E+03  0.12499964598E+03 0.  0.
          2    1    1    2  501    0  0.52969834210E+02  0.26211926726E+02 -0.14220462807E+03  0.15399683335E+03  0.00000000000E+00 0. -1.
          1    1    1    2  502    0  0.46697325713E+01  0.66478390637E+02  0.35573613651E+03  0.36192455242E+03  0.00000000000E+00 0. -1.
         22    1    3    3    0    0 -0.34585721116E+02 -0.63652826424E+02  0.56661035866E+02  0.91969165498E+02  0.00000000000E+00 0.  1.
         22    1    3    3    0    0 -0.23053845665E+02 -0.29037490939E+02 -0.64215780033E+02  0.74150671509E+02  0.00000000000E+00 0.  1.
</event>
<event>
 7    1  0.5593520E-006  0.1206912E+03  0.7818608E-02  0.1271259E+00
          2   -1    0    0  502    0  0.00000000000E+00  0.00000000000E+00  0.14486865977E+04  0.14486865977E+04  0.00000000000E+00 0. -1.
          1   -1    0    0  501    0 -0.00000000000E+00 -0.00000000000E+00 -0.64117356049E+03  0.64117356049E+03  0.00000000000E+00 0. -1.
         25    2    1    2    0    0 -0.63631783537E+02  0.11235379002E+01 -0.83782234408E+02  0.16338589307E+03  0.12500088415E+03 0.  0.
          2    1    1    2  501    0 -0.20068826927E+02  0.88091637710E+02 -0.51096337632E+03  0.51888964760E+03  0.00000000000E+00 0. -1.
          1    1    1    2  502    0  0.83700610463E+02 -0.89215175610E+02  0.14022586479E+04  0.14075846175E+04  0.00000000000E+00 0. -1.
         22    1    3    3    0    0  0.74750138640E+01  0.52149436017E+02 -0.33928314711E+02  0.62662349528E+02  0.00000000000E+00 0. -1.
         22    1    3    3    0    0 -0.71106797401E+02 -0.51025898117E+02 -0.49853919697E+02  0.10072354355E+03  0.00000000000E+00 0. -1.
</event>
<event>
 7    1  0.5593520E-006  0.7014219E+02  0.7818608E-02  0.1449376E+00
          2   -1    0    0  502    0  0.00000000000E+00  0.00000000000E+00  0.74331232174E+03  0.74331232174E+03  0.00000000000E+00 0. -1.
          1   -1    0    0  501    0 -0.00000000000E+00 -0.00000000000E+00 -0.60432468494E+02  0.60432468494E+02  0.00000000000E+00 0. -1.
         25    2    1    2    0    0  0.78820403512E+02 -0.49025018733E+02  0.84405332716E+02  0.17710268492E+03  0.12499996938E+03 0.  0.
          2    1    1    2  501    0 -0.46671796409E+02  0.36248593532E+02  0.50951801738E+02  0.78027579826E+02  0.00000000000E+00 0. -1.
          1    1    1    2  502    0 -0.32148607103E+02  0.12776425201E+02  0.54752271879E+03  0.54861452549E+03  0.00000000000E+00 0. -1.
         22    1    3    3    0    0  0.82890970918E+02 -0.85293463384E+02  0.60147634106E+02  0.13328025302E+03  0.00000000000E+00 0.  1.
         22    1    3    3    0    0 -0.40705674061E+01  0.36268444650E+02  0.24257698610E+02  0.43822431907E+02  0.00000000000E+00 0.  1.
</event>
<event>
 7    1  0.5593520E-006  0.8614147E+02  0.7818608E-02  0.1362803E+00
          2   -1    0    0  502    0  0.00000000000E+00  0.00000000000E+00  0.41623005553E+03  0.41623005553E+03  0.00000000000E+00 0. -1.
          1   -1    0    0  501    0 -0.00000000000E+00 -0.00000000000E+00 -0.14879940521E+04  0.14879940521E+04  0.00000000000E+00 0. -1.
         25    2    1    2    0    0 -0.13888131455E+02  0.11460826248E+03  0.13576427739E+03  0.21768028386E+03  0.12499933178E+03 0.  0.
          2    1    1    2  501    0 -0.30094215870E+02 -0.80586073563E+02 -0.14425099732E+04  0.14450725933E+04  0.00000000000E+00 0. -1.
          1    1    1    2  502    0  0.43982347325E+02 -0.34022188915E+02  0.23498169920E+03  0.24147123053E+03  0.00000000000E+00 0. -1.
         22    1    3    3    0    0 -0.51716385446E+02  0.11961089022E+03  0.11712703314E+03  0.17521441572E+03  0.00000000000E+00 0. -1.
         22    1    3    3    0    0  0.37828253991E+02 -0.50026277408E+01  0.18637244251E+02  0.42465868148E+02  0.00000000000E+00 0. -1.
</event>
<event>
 7    1  0.5593520E-006  0.1308973E+03  0.7818608E-02  0.1362852E+00
          2   -1    0    0  502    0  0.00000000000E+00  0.00000000000E+00  0.93901067700E+03  0.93901067700E+03  0.00000000000E+00 0. -1.
          1   -1    0    0  501    0 -0.00000000000E+00 -0.00000000000E+00 -0.13033106704E+03  0.13033106704E+03  0.00000000000E+00 0. -1.
         25    2    1    2    0    0 -0.84472586619E+02  0.58444881490E+02  0.14900388377E+03  0.21995069886E+03  0.12499892194E+03 0.  0.
          2    1    1    2  501    0 -0.16323249532E+02  0.32733699965E+02 -0.84935418021E+02  0.92476855607E+02  0.00000000000E+00 0. -1.
          1    1    1    2  502    0  0.10079583615E+03 -0.91178581455E+02  0.74461114421E+03  0.75691418958E+03  0.00000000000E+00 0. -1.
         22    1    3    3    0    0  0.23021112466E+02 -0.13070770987E+02  0.57299249519E+01  0.27085950478E+02  0.00000000000E+00 0. -1.
         22    1    3    3    0    0 -0.10749369908E+03  0.71515652477E+02  0.14327395882E+03  0.19286474838E+03  0.00000000000E+00 0. -1.
</event>
<event>
 7    1  0.5593520E-006  0.1026583E+03  0.7818608E-02  0.1404351E+00
          2   -1    0    0  502    0  0.00000000000E+00  0.00000000000E+00  0.15920619560E+04  0.15920619560E+04  0.00000000000E+00 0. -1.
          1   -1    0    0  501    0 -0.00000000000E+00 -0.00000000000E+00 -0.50151059090E+03  0.50151059090E+03  0.00000000000E+00 0. -1.
         25    2    1    2    0    0  0.19410652596E+02 -0.87020376560E+02 -0.32764608910E+03  0.36183669669E+03  0.12499806399E+03 0.  0.
          2    1    1    2  501    0  0.33285176472E+02 -0.11830926092E+01 -0.15330344956E+03  0.15687973205E+03  0.00000000000E+00 0. -1.
          1    1    1    2  502    0 -0.52695829068E+02  0.88203469169E+02  0.15715009038E+04  0.15748561182E+04  0.00000000000E+00 0. -1.
         22    1    3    3    0    0 -0.43016084665E+02 -0.36447346800E+02 -0.59743696859E+02  0.82146831607E+02  0.00000000000E+00 0.  1.
         22    1    3    3    0    0  0.62426737261E+02 -0.50573029760E+02 -0.26790239224E+03  0.27968986508E+03  0.00000000000E+00 0.  1.
</event>
<event>
 7    1  0.5593520E-006  0.1482412E+03  0.7818608E-02  0.1343271E+00
          2   -1    0    0  502    0  0.00000000000E+00  0.00000000000E+00  0.91892504680E+03  0.91892504680E+03  0.00000000000E+00 0. -1.
          1   -1    0    0  501    0 -0.00000000000E+00 -0.00000000000E+00 -0.36902322773E+03  0.36902322773E+03  0.00000000000E+00 0. -1.
         25    2    1    2    0    0  0.93342755825E+02  0.78359325543E+02 -0.45933368095E+02  0.18051502977E+03  0.12499099049E+03 0.  0.
          2    1    1    2  501    0 -0.12954468780E+03 -0.90367235603E+02 -0.23093490238E+03  0.27978383181E+03  0.00000000000E+00 0. -1.
          1    1    1    2  502    0  0.36201931971E+02  0.12007910059E+02  0.82677008955E+03  0.82764941295E+03  0.00000000000E+00 0. -1.
         22    1    3    3    0    0  0.66057092819E+02  0.11170720870E+03 -0.23327120894E+02  0.13185671980E+03  0.00000000000E+00 0. -1.
         22    1    3    3    0    0  0.27285663006E+02 -0.33347883154E+02 -0.22606247201E+02  0.48658309969E+02  0.00000000000E+00 0. -1.
</event>
<event>
 7    1  0.5593520E-006  0.8593751E+02  0.7818608E-02  0.1321496E+00
          2   -1    0    0  502    0  0.00000000000E+00  0.00000000000E+00  0.57454331144E+03  0.57454331144E+03  0.00000000000E+00 0. -1.
          1   -1    0    0  501    0 -0.00000000000E+00 -0.00000000000E+00 -0.17278604895E+03  0.17278604895E+03  0.00000000000E+00 0. -1.
         25    2    1    2    0    0 -0.86918857816E+01 -0.11934597507E+03  0.14098911239E+03  0.22320840816E+03  0.12500021207E+03 0.  0.
          2    1    1    2  501    0 -0.52006971066E+02  0.67805228056E+02 -0.11316416564E+03  0.14180409858E+03  0.00000000000E+00 0. -1.
          1    1    1    2  502    0  0.60698856847E+02  0.51540747014E+02  0.37393231575E+03  0.38231685365E+03  0.00000000000E+00 0. -1.
         22    1    3    3    0    0 -0.41848849610E+02 -0.12319587796E+03  0.77401432809E+02  0.15139198249E+03  0.00000000000E+00 0.  1.
         22    1    3    3    0    0  0.33156963828E+02  0.38499028910E+01  0.63587679576E+02  0.71816425673E+02  0.00000000000E+00 0.  1.
</event>
<event>
 7    1  0.5593520E-006  0.1346331E+03  0.7818608E-02  0.1301971E+00
          2   -1    0    0  502    0  0.00000000000E+00  0.00000000000E+00  0.60373850721E+03  0.60373850721E+03  0.00000000000E+00 0. -1.
          1   -1    0    0  501    0 -0.00000000000E+00 -0.00000000000E+00 -0.85269833919E+03  0.85269833919E+03  0.00000000000E+00 0. -1.
         25    2    1    2    0    0 -0.16342991348E+03  0.25169312295E+02  0.13093731995E+02  0.20770335318E+03  0.12500562469E+03 0.  0.
          2    1    1    2  501    0  0.33286968578E+02 -0.50701775884E+02 -0.74522589193E+03  0.74768999081E+03  0.00000000000E+00 0. -1.
          1    1    1    2  502    0  0.13014294490E+03  0.25532463590E+02  0.48317232795E+03  0.50104350241E+03  0.00000000000E+00 0. -1.
         22    1    3    3    0    0 -0.62918522271E+02 -0.23726780077E+02 -0.45803741627E+02  0.81361436103E+02  0.00000000000E+00 0. -1.
         22    1    3    3    0    0 -0.10051139121E+03  0.48896092372E+02  0.58897473622E+02  0.12634191708E+03  0.00000000000E+00 0. -1.
</event>
<event>
 7    1  0.5593520E-006  0.1012899E+03  0.7818608E-02  0.1296069E+00
          2   -1    0    0  502    0  0.00000000000E+00  0.00000000000E+00  0.13231257272E+04  0.13231257272E+04  0.00000000000E+00 0. -1.
          1   -1    0    0  501    0 -0.00000000000E+00 -0.00000000000E+00 -0.41172198192E+02  0.41172198192E+02  0.00000000000E+00 0. -1.
         25    2    1    2    0    0  0.92300064777E+01 -0.63803242683E-01  0.33124501904E+03  0.35416573754E+03  0.12499963967E+03 0.  0.
          2    1    1    2  501    0  0.66141103281E+02 -0.76713705992E+02  0.70587528071E+02  0.12345945630E+03  0.00000000000E+00 0. -1.
          1    1    1    2  502    0 -0.75371109758E+02  0.76777509235E+02  0.88012098194E+03  0.88667273160E+03  0.00000000000E+00 0. -1.
         22    1    3    3    0    0 -0.57202559121E+02  0.23804278467E+01  0.18180714853E+03  0.19060860018E+03  0.00000000000E+00 0.  1.
         22    1    3    3    0    0  0.66432565599E+02 -0.24442310894E+01  0.14943787051E+03  0.16355713735E+03  0.00000000000E+00 0.  1.
</event>
<event>
 7    1  0.5593520E-006  0.1405064E+03  0.7818608E-02  0.1330729E+00
          2   -1    0    0  502    0  0.00000000000E+00  0.00000000000E+00  0.94610463052E+03  0.94610463052E+03  0.00000000000E+00 0. -1.
          1   -1    0    0  501    0 -0.00000000000E+00 -0.00000000000E+00 -0.64818697358E+03  0.64818697358E+03  0.00000000000E+00 0. -1.
         25    2    1    2    0    0 -0.54995747594E+02 -0.17332198064E+03  0.47678739168E+03  0.52537222494E+03  0.12499886659E+03 0.  0.
          2    1    1    2  501    0  0.55381465567E+02  0.12844147982E+03 -0.61488850366E+03  0.63059669552E+03  0.00000000000E+00 0. -1.
          1    1    1    2  502    0 -0.38571797216E+00  0.44880500821E+02  0.43601876893E+03  0.43832268364E+03  0.00000000000E+00 0. -1.
         22    1    3    3    0    0 -0.91460977972E+02 -0.13236961781E+03  0.39883599839E+03  0.43006625050E+03  0.00000000000E+00 0. -1.
         22    1    3    3    0    0  0.36465230378E+02 -0.40952362823E+02  0.77951393287E+02  0.95305974433E+02  0.00000000000E+00 0. -1.
</event>
<event>
 7    1  0.5593520E-006  0.1221851E+03  0.7818608E-02  0.1335769E+00
          2   -1    0    0  502    0  0.00000000000E+00  0.00000000000E+00  0.68883253058E+03  0.68883253058E+03  0.00000000000E+00 0. -1.
          1   -1    0    0  501    0 -0.00000000000E+00 -0.00000000000E+00 -0.94459118440E+02  0.94459118440E+02  0.00000000000E+00 0. -1.
         25    2    1    2    0    0  0.83586417326E+02  0.67986538931E+02  0.98619598762E+02  0.19224831270E+03  0.12499891935E+03 0.  0.
          2    1    1    2  501    0 -0.69601285019E+02 -0.11534990061E+03  0.51777680618E+02  0.14432902222E+03  0.00000000000E+00 0. -1.
          1    1    1    2  502    0 -0.13985132307E+02  0.47363361676E+02  0.44397613276E+03  0.44671431410E+03  0.00000000000E+00 0. -1.
         22    1    3    3    0    0  0.24638718012E+02  0.62721851792E+01  0.10368312976E+03  0.10675485061E+03  0.00000000000E+00 0.  1.
         22    1    3    3    0    0  0.58947699314E+02  0.61714353751E+02 -0.50635310015E+01  0.85493462087E+02  0.00000000000E+00 0.  1.
</event>
<event>
 7    1  0.5593520E-006  0.5631339E+02  0.7818608E-02  0.1433374E+00
          2   -1    0    0  502    0  0.00000000000E+00  0.00000000000E+00  0.16049803053E+03  0.16049803053E+03  0.00000000000E+00 0. -1.
          1   -1    0    0  501    0 -0.00000000000E+00 -0.00000000000E+00 -0.11829717818E+04  0.11829717818E+04  0.00000000000E+00 0. -1.
         25    2    1    2    0    0 -0.33107241897E+02 -0.78940952575E+01 -0.19505888352E+03  0.23416131787E+03  0.12500059415E+03 0.  0.
          2    1    1    2  501    0  0.19655974131E+02  0.54545215583E+02 -0.96328291276E+03  0.96502616953E+03  0.00000000000E+00 0. -1.
          1    1    1    2  502    0  0.13451267767E+02 -0.46651120325E+02  0.13586804501E+03  0.14428232493E+03  0.00000000000E+00 0. -1.
         22    1    3    3    0    0 -0.79291952245E+02  0.76111471729E+01 -0.10531843443E+03  0.13204967203E+03  0.00000000000E+00 0. -1.
         22    1    3    3    0    0  0.46184710348E+02 -0.15505242430E+02 -0.89740449091E+02  0.10211164584E+03  0.00000000000E+00 0. -1.
</event>
<event>
 7    1  0.5593520E-006  0.1060745E+03  0.7818608E-02  0.1270201E+00
          2   -1    0    0  502    0  0.00000000000E+00  0.00000000000E+00  0.57234565626E+02  0.57234565626E+02  0.00000000000E+00 0. -1.
          1   -1    0    0  501    0 -0.00000000000E+00 -0.00000000000E+00 -0.23738022447E+04  0.23738022447E+04  0.00000000000E+00 0. -1.
         25    2    1    2    0    0 -0.55289807134E+02 -0.10560942500E+03 -0.62072964033E+03  0.64431456825E+03  0.12500265221E+03 0.  0.
          2    1    1    2  501    0 -0.52964882441E+02  0.89333576303E+02 -0.16713138803E+04  0.16745375042E+04  0.00000000000E+00 0. -1.
          1    1    1    2  502    0  0.10825468957E+03  0.16275848694E+02 -0.24524158507E+02  0.11218473789E+03  0.00000000000E+00 0. -1.
         22    1    3    3    0    0 -0.29155286511E+02 -0.10943036635E+03 -0.60039256517E+03  0.61097976082E+03  0.00000000000E+00 0.  1.
         22    1    3    3    0    0 -0.26134520623E+02  0.38209413498E+01 -0.20337075152E+02  0.33334807435E+02  0.00000000000E+00 0.  1.
</event>
<event>
 7    1  0.5593520E-006  0.7885485E+02  0.7818608E-02  0.1418406E+00
          2   -1    0    0  502    0  0.00000000000E+00  0.00000000000E+00  0.20314431878E+04  0.20314431878E+04  0.00000000000E+00 0. -1.
          1   -1    0    0  501    0 -0.00000000000E+00 -0.00000000000E+00 -0.13160181806E+03  0.13160181806E+03  0.00000000000E+00 0. -1.
         25    2    1    2    0    0 -0.88818903138E+01  0.56143945166E+02  0.84787558964E+02  0.16138506000E+03  0.12500070753E+03 0.  0.
          2    1    1    2  501    0 -0.38033775114E+02  0.79939428149E+01 -0.88390543840E+02  0.96557544561E+02  0.00000000000E+00 0. -1.
          1    1    1    2  502    0  0.46915665428E+02 -0.64137887981E+02  0.19034443546E+04  0.19051024013E+04  0.00000000000E+00 0. -1.
         22    1    3    3    0    0 -0.55982286894E+02  0.53821602548E+02  0.83752820065E+02  0.11421609438E+03  0.00000000000E+00 0.  1.
         22    1    3    3    0    0  0.47100396580E+02  0.23223426177E+01  0.10347388995E+01  0.47168965622E+02  0.00000000000E+00 0.  1.
</event>
<event>
 7    1  0.5593520E-006  0.6306868E+02  0.7818608E-02  0.1431291E+00
          2   -1    0    0  502    0  0.00000000000E+00  0.00000000000E+00  0.12220738923E+04  0.12220738923E+04  0.00000000000E+00 0. -1.
          1   -1    0    0  501    0 -0.00000000000E+00 -0.00000000000E+00 -0.82746629450E+03  0.82746629450E+03  0.00000000000E+00 0. -1.
         25    2    1    2    0    0 -0.22506368299E+02 -0.36951103266E+02  0.65329125223E+02  0.14752604590E+03  0.12499647582E+03 0.  0.
          2    1    1    2  501    0 -0.39060763010E+02  0.20339283648E+02 -0.78483880051E+03  0.78607338872E+03  0.00000000000E+00 0. -1.
          1    1    1    2  502    0  0.61567131309E+02  0.16611819618E+02  0.11141172731E+04  0.11159407522E+04  0.00000000000E+00 0. -1.
         22    1    3    3    0    0 -0.44035158522E+02  0.35537766286E+02  0.30304753002E+02  0.64190389259E+02  0.00000000000E+00 0.  1.
         22    1    3    3    0    0  0.21528790223E+02 -0.72488869553E+02  0.35024372221E+02  0.83335656636E+02  0.00000000000E+00 0.  1.
</event>
<event>
 7    1  0.5593520E-006  0.9394573E+02  0.7818608E-02  0.1309607E+00
          2   -1    0    0  502    0  0.00000000000E+00  0.00000000000E+00  0.67031709481E+03  0.67031709481E+03  0.00000000000E+00 0. -1.
          1   -1    0    0  501    0 -0.00000000000E+00 -0.00000000000E+00 -0.10505970529E+03  0.10505970529E+03  0.00000000000E+00 0. -1.
         25    2    1    2    0    0 -0.14387687590E+03  0.79985100004E+02  0.17797475808E+03  0.27275881106E+03  0.12499673139E+03 0.  0.
          2    1    1    2  501    0  0.74954548924E+02 -0.37311470801E+02 -0.21036374178E+02  0.86329944378E+02  0.00000000000E+00 0. -1.
          1    1    1    2  502    0  0.68922326972E+02 -0.42673629203E+02  0.40831900562E+03  0.41628804467E+03  0.00000000000E+00 0. -1.
         22    1    3    3    0    0 -0.19772910785E+02 -0.14312293487E+02  0.91110200758E+02  0.94323265570E+02  0.00000000000E+00 0. -1.
         22    1    3    3    0    0 -0.12410396511E+03  0.94297393490E+02  0.86864557318E+02  0.17843554549E+03  0.00000000000E+00 0. -1.
</event>
<event>
 7    1  0.5593520E-006  0.1188131E+03  0.7818608E-02  0.1371953E+00
          2   -1    0    0  502    0  0.00000000000E+00  0.00000000000E+00  0.59683130377E+02  0.59683130377E+02  0.00000000000E+00 0. -1.
          1   -1    0    0  501    0 -0.00000000000E+00 -0.00000000000E+00 -0.21746050547E+04  0.21746050547E+04  0.00000000000E+00 0. -1.
         25    2    1    2    0    0  0.50339992229E+02 -0.12647417037E+03 -0.60202829471E+03  0.62975651846E+03  0.12500149728E+03 0.  0.
          2    1    1    2  501    0 -0.35946127365E+02  0.10190440323E+02 -0.14831814337E+04  0.14836519586E+04  0.00000000000E+00 0. -1.
          1    1    1    2  502    0 -0.14393864864E+02  0.11628373005E+03 -0.29712195954E+02  0.12087970801E+03  0.00000000000E+00 0. -1.
         22    1    3    3    0    0  0.58759868442E+02 -0.10549867001E+02 -0.30518531481E+03  0.31096960978E+03  0.00000000000E+00 0.  1.
         22    1    3    3    0    0 -0.84198762134E+01 -0.11592430337E+03 -0.29684297991E+03  0.31878690868E+03  0.00000000000E+00 0.  1.
</event>
<event>
 7    1  0.5593520E-006  0.5019563E+02  0.7818608E-02  0.1481076E+00
          2   -1    0    0  502    0  0.00000000000E+00  0.00000000000E+00  0.29375814312E+04  0.29375814312E+04  0.00000000000E+00 0. -1.
          1   -1    0    0  501    0 -0.00000000000E+00 -0.00000000000E+00 -0.48049736632E+02  0.48049736632E+02  0.00000000000E+00 0. -1.
         25    2    1    2    0    0 -0.51675096486E+02 -0.93670492702E+01  0.17524230566E+03  0.22157095506E+03  0.12500306086E+03 0.  0.
          2    1    1    2  501    0  0.97583343462E+01  0.37203815190E+02 -0.96513783298E+01  0.39654735626E+02  0.00000000000E+00 0. -1.
          1    1    1    2  502    0  0.41916762140E+02 -0.27836765920E+02  0.27239407672E+04  0.27244054771E+04  0.00000000000E+00 0. -1.
         22    1    3    3    0    0 -0.76725434101E+02 -0.28022400342E+02  0.57846560870E+02  0.10009131712E+03  0.00000000000E+00 0. -1.
         22    1    3    3    0    0  0.25050337616E+02  0.18655351072E+02  0.11739574479E+03  0.12147963794E+03  0.00000000000E+00 0. -1.
</event>
<event>
 7    1  0.5593520E-006  0.7762582E+02  0.7818608E-02  0.1451910E+00
          2   -1    0    0  502    0  0.00000000000E+00  0.00000000000E+00  0.69565635147E+03  0.69565635147E+03  0.00000000000E+00 0. -1.
          1   -1    0    0  501    0 -0.00000000000E+00 -0.00000000000E+00 -0.13389994125E+04  0.13389994125E+04  0.00000000000E+00 0. -1.
         25    2    1    2    0    0 -0.68594654124E+00  0.49257379791E+02 -0.19615349718E+03  0.23775039177E+03  0.12498917692E+03 0.  0.
          2    1    1    2  501    0  0.72515010495E+01 -0.79228121391E+02 -0.11202872792E+04  0.11231087514E+04  0.00000000000E+00 0. -1.
          1    1    1    2  502    0 -0.65655545083E+01  0.29970741600E+02  0.67309771533E+03  0.67379662083E+03  0.00000000000E+00 0. -1.
         22    1    3    3    0    0  0.61933136538E+02  0.20927629708E+02 -0.10279074707E+03  0.12181796571E+03  0.00000000000E+00 0.  1.
         22    1    3    3    0    0 -0.62619083079E+02  0.28329750083E+02 -0.93362750110E+02  0.11593242607E+03  0.00000000000E+00 0.  1.
</event>
<event>
 7    1  0.5593520E-006  0.1653701E+03  0.7818608E-02  0.1219719E+00
          2   -1    0    0  502    0  0.00000000000E+00  0.00000000000E+00  0.32989570302E+04  0.32989570302E+04  0.00000000000E+00 0. -1.
          1   -1    0    0  501    0 -0.00000000000E+00 -0.00000000000E+00 -0.10603264846E+04  0.10603264846E+04  0.00000000000E+00 0. -1.
         25    2    1    2    0    0  0.68456903035E+02 -0.24724497644E+03  0.48045380822E+02  0.28939562505E+03  0.12500017292E+03 0.  0.
          2    1    1    2  501    0 -0.85263966822E+02  0.13773886153E+03 -0.93167975013E+03  0.94565802213E+03  0.00000000000E+00 0. -1.
          1    1    1    2  502    0  0.16807063786E+02  0.10950611492E+03  0.31222649150E+04  0.31242298676E+04  0.00000000000E+00 0. -1.
         22    1    3    3    0    0  0.83829841615E+02 -0.24147479615E+03  0.19361413778E+02  0.25634426825E+03  0.00000000000E+00 0. -1.
         22    1    3    3    0    0 -0.15372938579E+02 -0.57701802967E+01  0.28683967044E+02  0.33051356804E+02  0.00000000000E+00 0. -1.
</event>
<event>
 7    1  0.5593520E-006  0.7466458E+02  0.7818608E-02  0.1403703E+00
          2   -1    0    0  502    0  0.00000000000E+00  0.00000000000E+00  0.73001242814E+03  0.73001242814E+03  0.00000000000E+00 0. -1.
          1   -1    0    0  501    0 -0.00000000000E+00 -0.00000000000E+00 -0.14919198720E+03  0.14919198720E+03  0.00000000000E+00 0. -1.
         25    2    1    2    0    0  0.88065919285E+02  0.50851666368E+02  0.47966754874E+03  0.50601119576E+03  0.12499949925E+03 0.  0.
          2    1    1    2  501    0 -0.43066879110E+02 -0.60528364650E+02 -0.12336562703E+03  0.14400526704E+03  0.00000000000E+00 0. -1.
          1    1    1    2  502    0 -0.44999040175E+02  0.96766982814E+01  0.22451851923E+03  0.22918795253E+03  0.00000000000E+00 0. -1.
         22    1    3    3    0    0  0.89022605633E+02 -0.65442159924E+01  0.38572311887E+03  0.39591687954E+03  0.00000000000E+00 0.  1.
         22    1    3    3    0    0 -0.95668634866E+00  0.57395882361E+02  0.93944429870E+02  0.11009431622E+03  0.00000000000E+00 0.  1.
</event>
<event>
 7    1  0.5593520E-006  0.5686024E+02  0.7818608E-02  0.1445540E+00
          2   -1    0    0  502    0  0.00000000000E+00  0.00000000000E+00  0.59245011521E+02  0.59245011521E+02  0.00000000000E+00 0. -1.
          1   -1    0    0  501    0 -0.00000000000E+00 -0.00000000000E+00 -0.62994058906E+03  0.62994058906E+03  0.00000000000E+00 0. -1.
         25    2    1    2    0    0  0.31203927927E+02  0.36190259757E+02 -0.17492155362E+03  0.22024141566E+03  0.12500124493E+03 0.  0.
          2    1    1    2  501    0  0.28501803526E+02 -0.33393129457E+02 -0.40594641099E+03  0.40831353455E+03  0.00000000000E+00 0. -1.
          1    1    1    2  502    0 -0.59705731453E+02 -0.27971302995E+01  0.10172387064E+02  0.60630650375E+02  0.00000000000E+00 0. -1.
         22    1    3    3    0    0 -0.32699749803E+02  0.17468400225E+02 -0.45900991350E+01  0.37356226438E+02  0.00000000000E+00 0. -1.
         22    1    3    3    0    0  0.63903677730E+02  0.18721859532E+02 -0.17033145448E+03  0.18288518922E+03  0.00000000000E+00 0. -1.
</event>
<event>
 7    1  0.5593520E-006  0.2309922E+03  0.7818608E-02  0.1301211E+00
          2   -1    0    0  502    0  0.00000000000E+00  0.00000000000E+00  0.84870510093E+03  0.84870510093E+03  0.00000000000E+00 0. -1.
          1   -1    0    0  501    0 -0.00000000000E+00 -0.00000000000E+00 -0.19454413160E+03  0.19454413160E+03  0.00000000000E+00 0. -1.
         25    2    1    2    0    0 -0.21169436141E+03 -0.50709047267E+02  0.24819485905E+03  0.35300354107E+03  0.12499960729E+03 0.  0.
          2    1    1    2  501    0 -0.10993526561E+02 -0.33858622580E+02 -0.11340144439E+03  0.11885769449E+03  0.00000000000E+00 0. -1.
          1    1    1    2  502    0  0.22268788797E+03  0.84567669847E+02  0.51936755468E+03  0.57138799697E+03  0.00000000000E+00 0. -1.
         22    1    3    3    0    0 -0.21665594715E+03 -0.64859044694E+02  0.19788894444E+03  0.30051044814E+03  0.00000000000E+00 0.  1.
         22    1    3    3    0    0  0.49615857379E+01  0.14149997428E+02  0.50305914612E+02  0.52493092928E+02  0.00000000000E+00 0.  1.
</event>
<event>
 7    1  0.5593520E-006  0.2576411E+02  0.7818608E-02  0.1677880E+00
          2   -1    0    0  502    0  0.00000000000E+00  0.00000000000E+00  0.14219780546E+04  0.14219780546E+04  0.00000000000E+00 0. -1.
          1   -1    0    0  501    0 -0.00000000000E+00 -0.00000000000E+00 -0.23788139337E+03  0.23788139337E+03  0.00000000000E+00 0. -1.
         25    2    1    2    0    0  0.24581552476E+02  0.40695697780E+02 -0.97591584224E+02  0.16555887100E+03  0.12500091965E+03 0.  0.
          2    1    1    2  501    0 -0.90434647629E+01 -0.20168873667E+02 -0.10503643248E+03  0.10733694549E+03  0.00000000000E+00 0. -1.
          1    1    1    2  502    0 -0.15538087713E+02 -0.20526824114E+02  0.13867246780E+04  0.13869636315E+04  0.00000000000E+00 0. -1.
         22    1    3    3    0    0 -0.23890367409E+02  0.37201895116E+02 -0.10725460224E+03  0.11600982871E+03  0.00000000000E+00 0. -1.
         22    1    3    3    0    0  0.48471919885E+02  0.34938026640E+01  0.96630180183E+01  0.49549042287E+02  0.00000000000E+00 0. -1.
</event>
<event>
 7    1  0.5593520E-006  0.9805256E+02  0.7818608E-02  0.1300458E+00
          2   -1    0    0  502    0  0.00000000000E+00  0.00000000000E+00  0.11531872116E+04  0.11531872116E+04  0.00000000000E+00 0. -1.
          1   -1    0    0  501    0 -0.00000000000E+00 -0.00000000000E+00 -0.18311863944E+03  0.18311863944E+03  0.00000000000E+00 0. -1.
         25    2    1    2    0    0  0.52398126454E+02  0.74882157476E+02  0.61123422694E+02  0.16645967181E+03  0.12497939180E+03 0.  0.
          2    1    1    2  501    0  0.27915651394E+02 -0.10097874425E+03 -0.10737834012E+03  0.15002032632E+03  0.00000000000E+00 0. -1.
          1    1    1    2  502    0 -0.80313777848E+02  0.26096586772E+02  0.10163234895E+04  0.10198258529E+04  0.00000000000E+00 0. -1.
         22    1    3    3    0    0  0.16600740724E+02  0.74443698625E+02  0.91773981619E+02  0.11933110475E+03  0.00000000000E+00 0. -1.
         22    1    3    3    0    0  0.35797385730E+02  0.43845885084E+00 -0.30650558925E+02  0.47128567066E+02  0.00000000000E+00 0. -1.
</event>
<event>
 7    1  0.5593520E-006  0.1948455E+03  0.7818608E-02  0.1287407E+00
          2   -1    0    0  502    0  0.00000000000E+00  0.00000000000E+00  0.40121603352E+03  0.40121603352E+03  0.00000000000E+00 0. -1.
          1   -1    0    0  501    0 -0.00000000000E+00 -0.00000000000E+00 -0.91188626007E+03  0.91188626007E+03  0.00000000000E+00 0. -1.
         25    2    1    2    0    0  0.67091728535E+02  0.17441388369E+03 -0.55225230615E+02  0.23150858049E+03  0.12499957552E+03 0.  0.
          2    1    1    2  501    0 -0.23862645796E+02 -0.19524157880E+03 -0.75398656694E+03  0.77922040725E+03  0.00000000000E+00 0. -1.
          1    1    1    2  502    0 -0.43229082739E+02  0.20827695111E+02  0.29854157100E+03  0.30237330585E+03  0.00000000000E+00 0. -1.
         22    1    3    3    0    0  0.86442196814E+02  0.12729165243E+03 -0.81576870026E+02  0.17415568865E+03  0.00000000000E+00 0. -1.
         22    1    3    3    0    0 -0.19350468279E+02  0.47122231264E+02  0.26351639411E+02  0.57352891832E+02  0.00000000000E+00 0. -1.
</event>
<event>
 7    1  0.5593520E-006  0.5079475E+02  0.7818608E-02  0.1499579E+00
          2   -1    0    0  502    0  0.00000000000E+00  0.00000000000E+00  0.15798900767E+04  0.15798900767E+04  0.00000000000E+00 0. -1.
          1   -1    0    0  501    0 -0.00000000000E+00 -0.00000000000E+00 -0.25479270731E+03  0.25479270731E+03  0.00000000000E+00 0. -1.
         25    2    1    2    0    0  0.71142165953E+02  0.68308867929E+01 -0.19891593637E+02  0.14535539380E+03  0.12499858487E+03 0.  0.
          2    1    1    2  501    0 -0.43175794538E+02 -0.25116499477E+02 -0.16835804065E+03  0.17561155324E+03  0.00000000000E+00 0. -1.
          1    1    1    2  502    0 -0.27966371415E+02  0.18285612684E+02  0.15133470037E+04  0.15137158370E+04  0.00000000000E+00 0. -1.
         22    1    3    3    0    0  0.52292810399E+02 -0.27849899890E+02  0.41523919312E+02  0.72349089962E+02  0.00000000000E+00 0. -1.
         22    1    3    3    0    0  0.18849355554E+02  0.34680786683E+02 -0.61415512949E+02  0.73006303841E+02  0.00000000000E+00 0. -1.
</event>
<event>
 7    1  0.5593520E-006  0.1516186E+03  0.7818608E-02  0.1356964E+00
          2   -1    0    0  502    0  0.00000000000E+00  0.00000000000E+00  0.12371119265E+04  0.12371119265E+04  0.00000000000E+00 0. -1.
          1   -1    0    0  501    0 -0.00000000000E+00 -0.00000000000E+00 -0.18520644412E+03  0.18520644412E+03  0.00000000000E+00 0. -1.
         25    2    1    2    0    0 -0.11757572924E+03 -0.37526057687E+02  0.21871223284E+03  0.28052260835E+03  0.12500254355E+03 0.  0.
          2    1    1    2  501    0  0.14662689933E+03  0.53557206808E+02 -0.11445554458E+03  0.19356625143E+03  0.00000000000E+00 0. -1.
          1    1    1    2  502    0 -0.29051170093E+02 -0.16031149121E+02  0.94764879410E+03  0.94822951082E+03  0.00000000000E+00 0. -1.
         22    1    3    3    0    0  0.23396078617E+02  0.11581250813E+02  0.27170340917E+02  0.37679295251E+02  0.00000000000E+00 0.  1.
         22    1    3    3    0    0 -0.14097180786E+03 -0.49107308500E+02  0.19154189192E+03  0.24284331310E+03  0.00000000000E+00 0.  1.
</event>
<event>
 7    1  0.5593520E-006  0.7407247E+02  0.7818608E-02  0.1448283E+00
          2   -1    0    0  502    0  0.00000000000E+00  0.00000000000E+00  0.21492838879E+03  0.21492838879E+03  0.00000000000E+00 0. -1.
          1   -1    0    0  501    0 -0.00000000000E+00 -0.00000000000E+00 -0.49467541963E+03  0.49467541963E+03  0.00000000000E+00 0. -1.
         25    2    1    2    0    0  0.20532824883E+01 -0.43197734932E+02 -0.21928343655E+03  0.25608711965E+03  0.12500050814E+03 0.  0.
          2    1    1    2  501    0  0.13258994854E+02 -0.30245277882E+02 -0.24869888854E+03  0.25088187447E+03  0.00000000000E+00 0. -1.
          1    1    1    2  502    0 -0.15312277342E+02  0.73443012813E+02  0.18823529424E+03  0.20263481430E+03  0.00000000000E+00 0. -1.
         22    1    3    3    0    0  0.59320555900E+02 -0.13684588408E+02 -0.14784936863E+03  0.15989256429E+03  0.00000000000E+00 0. -1.
         22    1    3    3    0    0 -0.57267273412E+02 -0.29513146524E+02 -0.71434067919E+02  0.96194555362E+02  0.00000000000E+00 0. -1.
</event>
<event>
 7    1  0.5593520E-006  0.1781834E+03  0.7818608E-02  0.1292799E+00
          2   -1    0    0  502    0  0.00000000000E+00  0.00000000000E+00  0.24555524866E+03  0.24555524866E+03  0.00000000000E+00 0. -1.
          1   -1    0    0  501    0 -0.00000000000E+00 -0.00000000000E+00 -0.66374417107E+03  0.66374417107E+03  0.00000000000E+00 0. -1.
         25    2    1    2    0    0  0.17647021345E+03  0.40644776440E+02 -0.40858879254E+03  0.46407285507E+03  0.12500031736E+03 0.  0.
          2    1    1    2  501    0 -0.20214671464E+02  0.45609613270E+02 -0.18702332371E+03  0.19356289256E+03  0.00000000000E+00 0. -1.
          1    1    1    2  502    0 -0.15625554198E+03 -0.86254389710E+02  0.17742319383E+03  0.25166367210E+03  0.00000000000E+00 0. -1.
         22    1    3    3    0    0  0.54645299715E+02  0.32116068341E+02 -0.27858703104E+03  0.28570664061E+03  0.00000000000E+00 0. -1.
         22    1    3    3    0    0  0.12182491373E+03  0.85287080995E+01 -0.13000176150E+03  0.17836621446E+03  0.00000000000E+00 0. -1.
</event>
<event>
 7    1  0.5593520E-006  0.9452423E+02  0.7818608E-02  0.1440081E+00
          2   -1    0    0  502    0  0.00000000000E+00  0.00000000000E+00  0.20289901771E+04  0.20289901771E+04  0.00000000000E+00 0. -1.
          1   -1    0    0  501    0 -0.00000000000E+00 -0.00000000000E+00 -0.48393454276E+03  0.48393454276E+03  0.00000000000E+00 0. -1.
         25    2    1    2    0    0 -0.89218356047E+02 -0.42540324313E+02  0.18993613910E+03  0.24793881285E+03  0.12501329423E+03 0.  0.
          2    1    1    2  501    0 -0.40291649357E+01  0.27207765035E+02 -0.45328265741E+03  0.45411635531E+03  0.00000000000E+00 0. -1.
          1    1    1    2  502    0  0.93247520982E+02  0.15332559278E+02  0.18084021527E+04  0.18108695517E+04  0.00000000000E+00 0. -1.
         22    1    3    3    0    0  0.26834227797E+02 -0.32297765781E+02  0.39355180016E+02  0.57550427019E+02  0.00000000000E+00 0. -1.
         22    1    3    3    0    0 -0.11605258384E+03 -0.10242558532E+02  0.15058095909E+03  0.19038838584E+03  0.00000000000E+00 0. -1.
</event>
<event>
 7    1  0.5593520E-006  0.1431225E+03  0.7818608E-02  0.1270294E+00
          2   -1    0    0  502    0  0.00000000000E+00  0.00000000000E+00  0.12939303904E+03  0.12939303904E+03  0.00000000000E+00 0. -1.
          1   -1    0    0  501    0 -0.00000000000E+00 -0.00000000000E+00 -0.94907362241E+03  0.94907362241E+03  0.00000000000E+00 0. -1.
         25    2    1    2    0    0 -0.55313449285E+02  0.11251435860E+03 -0.11273039536E+03  0.20988790230E+03  0.12500292368E+03 0.  0.
          2    1    1    2  501    0  0.62640710480E+02  0.44610147018E+02 -0.70711397251E+03  0.71128341323E+03  0.00000000000E+00 0. -1.
          1    1    1    2  502    0 -0.73272611948E+01 -0.15712450562E+03  0.16378450249E+00  0.15729534592E+03  0.00000000000E+00 0. -1.
         22    1    3    3    0    0 -0.35250494541E+02  0.99750045207E+02 -0.12098813542E+02  0.10648497628E+03  0.00000000000E+00 0. -1.
         22    1    3    3    0    0 -0.20062954744E+02  0.12764313394E+02 -0.10063158182E+03  0.10340292602E+03  0.00000000000E+00 0. -1.
</event>
<event>
 7    1  0.5593520E-006  0.1940354E+03  0.7818608E-02  0.1321915E+00
          2   -1    0    0  502    0  0.00000000000E+00  0.00000000000E+00  0.44188457913E+03  0.44188457913E+03  0.00000000000E+00 0. -1.
          1   -1    0    0  501    0 -0.00000000000E+00 -0.00000000000E+00 -0.77754157094E+03  0.77754157094E+03  0.00000000000E+00 0. -1.
         25    2    1    2    0    0  0.96757609022E+02 -0.20055978031E+03  0.20975584591E+03  0.33046724480E+03  0.12499929844E+03 0.  0.
          2    1    1    2  501    0 -0.68067105953E+02  0.18027661308E+03 -0.70226313814E+03  0.72822132853E+03  0.00000000000E+00 0. -1.
          1    1    1    2  502    0 -0.28690503070E+02  0.20283167222E+02  0.15685030041E+03  0.16073757675E+03  0.00000000000E+00 0. -1.
         22    1    3    3    0    0  0.10695645311E+03 -0.14820141282E+03  0.20828734794E+03  0.27710460288E+03  0.00000000000E+00 0. -1.
         22    1    3    3    0    0 -0.10198844086E+02 -0.52358367484E+02  0.14684979696E+01  0.53362641919E+02  0.00000000000E+00 0. -1.
</event>
<event>
 7    1  0.5593520E-006  0.5971585E+02  0.7818608E-02  0.1445732E+00
          2   -1    0    0  502    0  0.00000000000E+00  0.00000000000E+00  0.17098147187E+03  0.17098147187E+03  0.00000000000E+00 0. -1.
          1   -1    0    0  501    0 -0.00000000000E+00 -0.00000000000E+00 -0.32574538033E+03  0.32574538033E+03  0.00000000000E+00 0. -1.
         25    2    1    2    0    0  0.37934204818E+02  0.67324143713E+02 -0.49852162654E-02  0.14695692888E+03  0.12499917879E+03 0.  0.
          2    1    1    2  501    0 -0.52326516612E+02 -0.28139852290E+02 -0.24406337467E+03  0.25119085669E+03  0.00000000000E+00 0. -1.
          1    1    1    2  502    0  0.14392311794E+02 -0.39184291423E+02  0.89304451427E+02  0.98579066631E+02  0.00000000000E+00 0. -1.
         22    1    3    3    0    0  0.26339429199E+02 -0.16436035899E+02  0.42248016786E+02  0.52429035171E+02  0.00000000000E+00 0.  1.
         22    1    3    3    0    0  0.11594775619E+02  0.83760179612E+02 -0.42253002002E+02  0.94527893706E+02  0.00000000000E+00 0.  1.
</event>
<event>
 7    1  0.5593520E-006  0.6663904E+02  0.7818608E-02  0.1468041E+00
          2   -1    0    0  502    0  0.00000000000E+00  0.00000000000E+00  0.87330361058E+02  0.87330361058E+02  0.00000000000E+00 0. -1.
          1   -1    0    0  501    0 -0.00000000000E+00 -0.00000000000E+00 -0.10870704376E+04  0.10870704376E+04  0.00000000000E+00 0. -1.
         25    2    1    2    0    0 -0.77968470887E+02 -0.16707663016E+02 -0.11635136549E+03  0.18846927488E+03  0.12499919547E+03 0.  0.
          2    1    1    2  501    0  0.13525024595E+02  0.28767074089E+02 -0.91331097084E+03  0.91386399442E+03  0.00000000000E+00 0. -1.
          1    1    1    2  502    0  0.64443446292E+02 -0.12059411072E+02  0.29922259743E+02  0.72067529398E+02  0.00000000000E+00 0. -1.
         22    1    3    3    0    0 -0.45794050160E+02  0.94360079159E+01 -0.13510577101E+03  0.14296748804E+03  0.00000000000E+00 0.  1.
         22    1    3    3    0    0 -0.32174420728E+02 -0.26143670932E+02  0.18754405526E+02  0.45501786840E+02  0.00000000000E+00 0.  1.
</event>
<event>
 7    1  0.5593520E-006  0.1819789E+03  0.7818608E-02  0.1347635E+00
          2   -1    0    0  502    0  0.00000000000E+00  0.00000000000E+00  0.20903506058E+04  0.20903506058E+04  0.00000000000E+00 0. -1.
          1   -1    0    0  501    0 -0.00000000000E+00 -0.00000000000E+00 -0.16139853385E+04  0.16139853385E+04  0.00000000000E+00 0. -1.
         25    2    1    2    0    0  0.42638264437E+02 -0.20157219857E+03  0.24828176741E+02  0.24226235093E+03  0.12500094195E+03 0.  0.
          2    1    1    2  501    0 -0.22261726221E+02  0.17965355716E+03 -0.14997103772E+04  0.15105966372E+04  0.00000000000E+00 0. -1.
          1    1    1    2  502    0 -0.20376538216E+02  0.21918641407E+02  0.19512474677E+04  0.19514769562E+04  0.00000000000E+00 0. -1.
         22    1    3    3    0    0  0.62369045947E+02 -0.20279837577E+03  0.41749060818E+02  0.21624075284E+03  0.00000000000E+00 0.  1.
         22    1    3    3    0    0 -0.19730781510E+02  0.12261772024E+01 -0.16920884077E+02  0.26021598096E+02  0.00000000000E+00 0.  1.
</event>
<event>
 7    1  0.5593520E-006  0.1406097E+03  0.7818608E-02  0.1308794E+00
          2   -1    0    0  502    0  0.00000000000E+00  0.00000000000E+00  0.15062812115E+04  0.15062812115E+04  0.00000000000E+00 0. -1.
          1   -1    0    0  501    0 -0.00000000000E+00 -0.00000000000E+00 -0.65548493606E+02  0.65548493606E+02  0.00000000000E+00 0. -1.
         25    2    1    2    0    0 -0.15084806409E+03 -0.80433307727E+02  0.21399216308E+03  0.30106714950E+03  0.12499650883E+03 0.  0.
          2    1    1    2  501    0  0.11427751198E+03  0.39939641582E+02  0.15052128992E+03  0.19316102980E+03  0.00000000000E+00 0. -1.
          1    1    1    2  502    0  0.36570552105E+02  0.40493666145E+02  0.10762192649E+04  0.10776015258E+04  0.00000000000E+00 0. -1.
         22    1    3    3    0    0 -0.29634567247E+02 -0.11059759767E+02  0.13898317957E+03  0.14253718836E+03  0.00000000000E+00 0.  1.
         22    1    3    3    0    0 -0.12121349684E+03 -0.69373547960E+02  0.75008983509E+02  0.15852996114E+03  0.00000000000E+00 0.  1.
</event>
<event>
 7    1  0.5593520E-006  0.1325150E+03  0.7818608E-02  0.1282028E+00
          2   -1    0    0  502    0  0.00000000000E+00  0.00000000000E+00  0.18201540535E+04  0.18201540535E+04  0.00000000000E+00 0. -1.
          1   -1    0    0  501    0 -0.00000000000E+00 -0.00000000000E+00 -0.16811904716E+03  0.16811904716E+03  0.00000000000E+00 0. -1.
         25    2    1    2    0    0 -0.13122462973E+02  0.91275939144E+02  0.85831324029E+02  0.17746938403E+03  0.12499947993E+03 0.  0.
          2    1    1    2  501    0 -0.39903445835E+02 -0.14322456570E+03 -0.75962460566E+02  0.16696064394E+03  0.00000000000E+00 0. -1.
          1    1    1    2  502    0  0.53025908808E+02  0.51948626558E+02  0.16421661428E+04  0.16438430726E+04  0.00000000000E+00 0. -1.
         22    1    3    3    0    0 -0.25389250473E+02  0.60501467132E+01  0.87540304877E+02  0.91348362288E+02  0.00000000000E+00 0. -1.
         22    1    3    3    0    0  0.12266787500E+02  0.85225792431E+02 -0.17089808472E+01  0.86121021746E+02  0.00000000000E+00 0. -1.
</event>
<event>
 7    1  0.5593520E-006  0.1492836E+03  0.7818608E-02  0.1315437E+00
          2   -1    0    0  502    0  0.00000000000E+00  0.00000000000E+00  0.54426704316E+03  0.54426704316E+03  0.00000000000E+00 0. -1.
          1   -1    0    0  501    0 -0.00000000000E+00 -0.00000000000E+00 -0.55235690740E+03  0.55235690740E+03  0.00000000000E+00 0. -1.
         25    2    1    2    0    0  0.67318621931E+02 -0.15915309691E+03  0.10861004259E+03  0.23933856963E+03  0.12500121777E+03 0.  0.
          2    1    1    2  501    0  0.20650987192E+02  0.43768787894E+02 -0.47149309685E+03  0.47397036874E+03  0.00000000000E+00 0. -1.
          1    1    1    2  502    0 -0.87969609123E+02  0.11538430902E+03  0.35479319001E+03  0.38331501220E+03  0.00000000000E+00 0. -1.
         22    1    3    3    0    0 -0.14565929007E+02 -0.86777077647E+02  0.94538094129E+02  0.12915060485E+03  0.00000000000E+00 0.  1.
         22    1    3    3    0    0  0.81884550938E+02 -0.72376019266E+02  0.14071948465E+02  0.11018796477E+03  0.00000000000E+00 0.  1.
</event>
<event>
 7    1  0.5593520E-006  0.1267210E+03  0.7818608E-02  0.1252119E+00
          2   -1    0    0  502    0  0.00000000000E+00  0.00000000000E+00  0.12460895864E+04  0.12460895864E+04  0.00000000000E+00 0. -1.
          1   -1    0    0  501    0 -0.00000000000E+00 -0.00000000000E+00 -0.58918407065E+03  0.58918407065E+03  0.00000000000E+00 0. -1.
         25    2    1    2    0    0 -0.17077486852E+03  0.22568039858E+02  0.11207254303E+03  0.24054314158E+03  0.12500950332E+03 0.  0.
          2    1    1    2  501    0  0.60883665956E+02 -0.84076270779E+02 -0.51605614483E+03  0.52639299454E+03  0.00000000000E+00 0. -1.
          1    1    1    2  502    0  0.10989120256E+03  0.61508230920E+02  0.10608891176E+04  0.10683375209E+04  0.00000000000E+00 0. -1.
         22    1    3    3    0    0 -0.19094225003E+03  0.20012316400E+02  0.10610096015E+03  0.21935553196E+03  0.00000000000E+00 0.  1.
         22    1    3    3    0    0  0.20167381513E+02  0.25557234584E+01  0.59715828782E+01  0.21187609624E+02  0.00000000000E+00 0.  1.
</event>
<event>
 7    1  0.5593520E-006  0.8083061E+02  0.7818608E-02  0.1442359E+00
          2   -1    0    0  502    0  0.00000000000E+00  0.00000000000E+00  0.49043406541E+04  0.49043406541E+04  0.00000000000E+00 0. -1.
          1   -1    0    0  501    0 -0.00000000000E+00 -0.00000000000E+00 -0.12540233156E+04  0.12540233156E+04  0.00000000000E+00 0. -1.
         25    2    1    2    0    0 -0.59200686624E+02 -0.52271521640E+02 -0.54220777332E+03  0.56200680120E+03  0.12500136747E+03 0.  0.
          2    1    1    2  501    0 -0.17387216482E+02  0.26412994660E+02 -0.70122591545E+03  0.70193856289E+03  0.00000000000E+00 0. -1.
          1    1    1    2  502    0  0.76587903106E+02  0.25858526980E+02  0.48937510273E+04  0.48944186056E+04  0.00000000000E+00 0. -1.
         22    1    3    3    0    0 -0.69887653070E+01  0.39883179171E+02 -0.18753169008E+03  0.19185318763E+03  0.00000000000E+00 0.  1.
         22    1    3    3    0    0 -0.52211921317E+02 -0.92154700811E+02 -0.35467608324E+03  0.37015361356E+03  0.00000000000E+00 0.  1.
</event>
<event>
 7    1  0.5593520E-006  0.4156410E+02  0.7818608E-02  0.1536484E+00
          2   -1    0    0  502    0  0.00000000000E+00  0.00000000000E+00  0.12717498940E+04  0.12717498940E+04  0.00000000000E+00 0. -1.
          1   -1    0    0  501    0 -0.00000000000E+00 -0.00000000000E+00 -0.67483667089E+02  0.67483667089E+02  0.00000000000E+00 0. -1.
         25    2    1    2    0    0  0.28898390055E+02  0.90564778759E+01  0.71434568853E+03  0.72583172849E+03  0.12499919449E+03 0.  0.
          2    1    1    2  501    0 -0.16445897424E+02 -0.38406736415E+02 -0.54152080738E+02  0.68395853619E+02  0.00000000000E+00 0. -1.
          1    1    1    2  502    0 -0.12452492631E+02  0.29350258539E+02  0.54407261914E+03  0.54500597900E+03  0.00000000000E+00 0. -1.
         22    1    3    3    0    0  0.65074205535E+02 -0.32309251328E+02  0.36100365181E+03  0.36824200815E+03  0.00000000000E+00 0. -1.
         22    1    3    3    0    0 -0.36175815480E+02  0.41365729204E+02  0.35334203673E+03  0.35758972034E+03  0.00000000000E+00 0. -1.
</event>
<event>
 7    1  0.5593520E-006  0.9220474E+02  0.7818608E-02  0.1338680E+00
          2   -1    0    0  502    0  0.00000000000E+00  0.00000000000E+00  0.63483359632E+03  0.63483359632E+03  0.00000000000E+00 0. -1.
          1   -1    0    0  501    0 -0.00000000000E+00 -0.00000000000E+00 -0.58885871833E+03  0.58885871833E+03  0.00000000000E+00 0. -1.
         25    2    1    2    0    0 -0.48234487172E+02  0.44718040374E+02  0.14325454329E+03  0.20117918546E+03  0.12499972640E+03 0.  0.
          2    1    1    2  501    0  0.64894292086E+01 -0.92973253500E+02 -0.55378373107E+03  0.56157150867E+03  0.00000000000E+00 0. -1.
          1    1    1    2  502    0  0.41745057963E+02  0.48255213127E+02  0.45650406578E+03  0.46094162052E+03  0.00000000000E+00 0. -1.
         22    1    3    3    0    0 -0.16553772368E+02  0.85313775641E+02  0.10868196839E+03  0.13915544527E+03  0.00000000000E+00 0. -1.
         22    1    3    3    0    0 -0.31680714803E+02 -0.40595735267E+02  0.34572574898E+02  0.62023740192E+02  0.00000000000E+00 0. -1.
</event>
<event>
 7    1  0.5593520E-006  0.1813768E+03  0.7818608E-02  0.1346452E+00
          2   -1    0    0  502    0  0.00000000000E+00  0.00000000000E+00  0.54812906191E+03  0.54812906191E+03  0.00000000000E+00 0. -1.
          1   -1    0    0  501    0 -0.00000000000E+00 -0.00000000000E+00 -0.14717156518E+04  0.14717156518E+04  0.00000000000E+00 0. -1.
         25    2    1    2    0    0  0.90862133334E+02  0.13210223966E+03 -0.95788629117E+03  0.97922341086E+03  0.12500165024E+03 0.  0.
          2    1    1    2  501    0 -0.75124125282E+01  0.29387382553E+02 -0.48731367028E+03  0.48825676425E+03  0.00000000000E+00 0. -1.
          1    1    1    2  502    0 -0.83349720806E+02 -0.16148962222E+03  0.52161337159E+03  0.55236453857E+03  0.00000000000E+00 0. -1.
         22    1    3    3    0    0 -0.97745319845E+01  0.33749787773E+02 -0.47376920289E+03  0.47507036032E+03  0.00000000000E+00 0. -1.
         22    1    3    3    0    0  0.10063666532E+03  0.98352451890E+02 -0.48411708828E+03  0.50415305054E+03  0.00000000000E+00 0. -1.
</event>
<event>
 7    1  0.5593520E-006  0.2343349E+03  0.7818608E-02  0.1137798E+00
          2   -1    0    0  502    0  0.00000000000E+00  0.00000000000E+00  0.11955483210E+04  0.11955483210E+04  0.00000000000E+00 0. -1.
          1   -1    0    0  501    0 -0.00000000000E+00 -0.00000000000E+00 -0.16981311439E+04  0.16981311439E+04  0.00000000000E+00 0. -1.
         25    2    1    2    0    0  0.25031357135E+02 -0.31931578769E+02 -0.75362910656E+03  0.76500258401E+03  0.12500371482E+03 0.  0.
          2    1    1    2  501    0  0.13486760381E+03 -0.14352164061E+03 -0.91640832459E+03  0.93733235795E+03  0.00000000000E+00 0. -1.
          1    1    1    2  502    0 -0.15989896095E+03  0.17545321938E+03  0.11674546082E+04  0.11913445229E+04  0.00000000000E+00 0. -1.
         22    1    3    3    0    0 -0.27666472908E+02  0.33678285715E+02 -0.17820610261E+03  0.18345864836E+03  0.00000000000E+00 0. -1.
         22    1    3    3    0    0  0.52697830043E+02 -0.65609864484E+02 -0.57542300395E+03  0.58154393565E+03  0.00000000000E+00 0. -1.
</event>
<event>
 7    1  0.5593520E-006  0.1253775E+03  0.7818608E-02  0.1327252E+00
          2   -1    0    0  502    0  0.00000000000E+00  0.00000000000E+00  0.94738701855E+02  0.94738701855E+02  0.00000000000E+00 0. -1.
          1   -1    0    0  501    0 -0.00000000000E+00 -0.00000000000E+00 -0.89186753433E+03  0.89186753433E+03  0.00000000000E+00 0. -1.
         25    2    1    2    0    0 -0.13018833875E+03 -0.21022302877E+01 -0.71187189056E+03  0.73439900791E+03  0.12500756506E+03 0.  0.
          2    1    1    2  501    0  0.11136203778E+03  0.50427028313E+02 -0.13375361573E+03  0.18120269966E+03  0.00000000000E+00 0. -1.
          1    1    1    2  502    0  0.18826300972E+02 -0.48324798025E+02  0.48496673820E+02  0.71004528616E+02  0.00000000000E+00 0. -1.
         22    1    3    3    0    0  0.18340555310E+02  0.70264838014E+01 -0.26082705161E+02  0.32650496967E+02  0.00000000000E+00 0.  1.
         22    1    3    3    0    0 -0.14852889406E+03 -0.91287140891E+01 -0.68578918540E+03  0.70174851094E+03  0.00000000000E+00 0.  1.
</event>
<event>
 7    1  0.7897359E-006  0.6178413E+02  0.7818608E-02  0.1408105E+00
          2   -1    0    0  502    0  0.00000000000E+00  0.00000000000E+00  0.20703102751E+04  0.20703102751E+04  0.00000000000E+00 0. -1.
          1   -1    0    0  501    0 -0.00000000000E+00 -0.00000000000E+00 -0.66023663782E+03  0.66023663782E+03  0.00000000000E+00 0. -1.
         25    2    1    2    0    0 -0.30034571283E+01  0.47812321835E+02 -0.11582874995E+03  0.17701876384E+03  0.12499721821E+03 0.  0.
          2    1    1    2  501    0 -0.50865184505E+02 -0.17323468654E+02 -0.51193679691E+03  0.51474911713E+03  0.00000000000E+00 0. -1.
          1    1    1    2  502    0  0.53868641633E+02 -0.30488853181E+02  0.20378391842E+04  0.20387790320E+04  0.00000000000E+00 0. -1.
         22    1    3    3    0    0  0.15739758335E+02  0.77593496719E+02 -0.11761985110E+03  0.14178476681E+03  0.00000000000E+00 0. -1.
         22    1    3    3    0    0 -0.18743215463E+02 -0.29781174883E+02  0.17911011510E+01  0.35233997029E+02  0.00000000000E+00 0. -1.
</event>
<event>
 7    1  0.5593520E-006  0.5474437E+02  0.7818608E-02  0.1480281E+00
          2   -1    0    0  502    0  0.00000000000E+00  0.00000000000E+00  0.95885425740E+03  0.95885425740E+03  0.00000000000E+00 0. -1.
          1   -1    0    0  501    0 -0.00000000000E+00 -0.00000000000E+00 -0.12507810386E+04  0.12507810386E+04  0.00000000000E+00 0. -1.
         25    2    1    2    0    0  0.32847284345E+02  0.49954120274E+02  0.23027868701E+03  0.26875067810E+03  0.12499718025E+03 0.  0.
          2    1    1    2  501    0  0.18551635410E+02 -0.30225584971E+02 -0.12302208472E+04  0.12307319294E+04  0.00000000000E+00 0. -1.
          1    1    1    2  502    0 -0.51398919754E+02 -0.19728535303E+02  0.70801537901E+03  0.71015268849E+03  0.00000000000E+00 0. -1.
         22    1    3    3    0    0  0.79582042678E+02  0.39278556993E+02  0.12754778242E+03  0.15538514522E+03  0.00000000000E+00 0.  1.
         22    1    3    3    0    0 -0.46734758333E+02  0.10675563281E+02  0.10273090459E+03  0.11336553288E+03  0.00000000000E+00 0.  1.
</event>
<event>
 7    1  0.5593520E-006  0.3964074E+03  0.7818608E-02  0.1209071E+00
          2   -1    0    0  502    0  0.00000000000E+00  0.00000000000E+00  0.11896890408E+04  0.11896890408E+04  0.00000000000E+00 0. -1.
          1   -1    0    0  501    0 -0.00000000000E+00 -0.00000000000E+00 -0.13936064594E+04  0.13936064594E+04  0.00000000000E+00 0. -1.
         25    2    1    2    0    0 -0.40617302388E+03 -0.87931139641E+02  0.86274168350E+01  0.43406022135E+03  0.12500173113E+03 0.  0.
          2    1    1    2  501    0  0.33985340287E+02 -0.39011504439E+02 -0.11403560156E+04  0.11415291249E+04  0.00000000000E+00 0. -1.
          1    1    1    2  502    0  0.37218768360E+03  0.12694264408E+03  0.92781118011E+03  0.10077061539E+04  0.00000000000E+00 0. -1.
         22    1    3    3    0    0 -0.23991819367E+03 -0.10580350097E+03 -0.25335882810E+02  0.26343315552E+03  0.00000000000E+00 0.  1.
         22    1    3    3    0    0 -0.16625483022E+03  0.17872361329E+02  0.33963299645E+02  0.17062706583E+03  0.00000000000E+00 0.  1.
</event>
<event>
 7    1  0.5593520E-006  0.1153560E+03  0.7818608E-02  0.1354107E+00
          2   -1    0    0  502    0  0.00000000000E+00  0.00000000000E+00  0.21222692064E+04  0.21222692064E+04  0.00000000000E+00 0. -1.
          1   -1    0    0  501    0 -0.00000000000E+00 -0.00000000000E+00 -0.39074591895E+03  0.39074591895E+03  0.00000000000E+00 0. -1.
         25    2    1    2    0    0  0.60698938111E+02 -0.13524453122E+03  0.11487125735E+04  0.11649641239E+04  0.12500155639E+03 0.  0.
          2    1    1    2  501    0 -0.69867795340E+02  0.91516960608E+02 -0.37342482650E+03  0.39077226609E+03  0.00000000000E+00 0. -1.
          1    1    1    2  502    0  0.91688572287E+01  0.43727570615E+02  0.95623554044E+03  0.95727873536E+03  0.00000000000E+00 0. -1.
         22    1    3    3    0    0 -0.76203538650E+00 -0.12995423178E+03  0.85728304026E+03  0.86707721350E+03  0.00000000000E+00 0.  1.
         22    1    3    3    0    0  0.61460973498E+02 -0.52902994455E+01  0.29142953321E+03  0.29788691035E+03  0.00000000000E+00 0.  1.
</event>
<event>
 7    1  0.5593520E-006  0.5373456E+02  0.7818608E-02  0.1539021E+00
          2   -1    0    0  502    0  0.00000000000E+00  0.00000000000E+00  0.24546439990E+03  0.24546439990E+03  0.00000000000E+00 0. -1.
          1   -1    0    0  501    0 -0.00000000000E+00 -0.00000000000E+00 -0.58134670787E+03  0.58134670787E+03  0.00000000000E+00 0. -1.
         25    2    1    2    0    0  0.42657056196E+02  0.21353368193E+02 -0.78649585136E+02  0.15519895601E+03  0.12500147170E+03 0.  0.
          2    1    1    2  501    0  0.11409004067E+02 -0.21405647994E+02 -0.46057071683E+03  0.46120901156E+03  0.00000000000E+00 0. -1.
          1    1    1    2  502    0 -0.54066060263E+02  0.52279801359E-01  0.20333799400E+03  0.21040314021E+03  0.00000000000E+00 0. -1.
         22    1    3    3    0    0 -0.19585374930E+02  0.31783511169E+02 -0.83939463436E+02  0.91867360990E+02  0.00000000000E+00 0. -1.
         22    1    3    3    0    0  0.62242431126E+02 -0.10430142976E+02  0.52898783006E+01  0.63331595017E+02  0.00000000000E+00 0. -1.
</event>
<event>
 7    1  0.5593520E-006  0.9530577E+02  0.7818608E-02  0.1343101E+00
          2   -1    0    0  502    0  0.00000000000E+00  0.00000000000E+00  0.16807306208E+04  0.16807306208E+04  0.00000000000E+00 0. -1.
          1   -1    0    0  501    0 -0.00000000000E+00 -0.00000000000E+00 -0.42528181264E+02  0.42528181264E+02  0.00000000000E+00 0. -1.
         25    2    1    2    0    0 -0.12619829774E+03 -0.33788633308E+02  0.72735860836E+03  0.74949462774E+03  0.12499587895E+03 0.  0.
          2    1    1    2  501    0  0.72157394643E+02  0.58477258544E+02  0.40381508356E+02  0.10127657965E+03  0.00000000000E+00 0. -1.
          1    1    1    2  502    0  0.54040903093E+02 -0.24688625235E+02  0.87046232278E+03  0.87248759464E+03  0.00000000000E+00 0. -1.
         22    1    3    3    0    0 -0.11923218758E+03 -0.36452736094E+02  0.73074392022E+03  0.74130411672E+03  0.00000000000E+00 0.  1.
         22    1    3    3    0    0 -0.69661101582E+01  0.26641027854E+01 -0.33853118570E+01  0.81905110193E+01  0.00000000000E+00 0.  1.
</event>
<event>
 7    1  0.5593520E-006  0.5915119E+02  0.7818608E-02  0.1455816E+00
          2   -1    0    0  502    0  0.00000000000E+00  0.00000000000E+00  0.67511393388E+03  0.67511393388E+03  0.00000000000E+00 0. -1.
          1   -1    0    0  501    0 -0.00000000000E+00 -0.00000000000E+00 -0.44938541890E+03  0.44938541890E+03  0.00000000000E+00 0. -1.
         25    2    1    2    0    0 -0.10096956776E+02  0.93048548190E+02  0.21143624506E+03  0.26285066910E+03  0.12500083065E+03 0.  0.
          2    1    1    2  501    0 -0.61478930874E+01 -0.38642285219E+02 -0.42092675520E+03  0.42274147661E+03  0.00000000000E+00 0. -1.
          1    1    1    2  502    0  0.16244849864E+02 -0.54406262970E+02  0.43521902512E+03  0.43890720708E+03  0.00000000000E+00 0. -1.
         22    1    3    3    0    0 -0.60038739377E+02  0.51769779020E+02  0.16524749314E+03  0.18327982495E+03  0.00000000000E+00 0.  1.
         22    1    3    3    0    0  0.49941782601E+02  0.41278769169E+02  0.46188751922E+02  0.79570844143E+02  0.00000000000E+00 0.  1.
</event>
<event>
 7    1  0.5593520E-006  0.1016341E+03  0.7818608E-02  0.1403128E+00
          2   -1    0    0  502    0  0.00000000000E+00  0.00000000000E+00  0.14452317434E+04  0.14452317434E+04  0.00000000000E+00 0. -1.
          1   -1    0    0  501    0 -0.00000000000E+00 -0.00000000000E+00 -0.58941175929E+03  0.58941175929E+03  0.00000000000E+00 0. -1.
         25    2    1    2    0    0 -0.68192303270E+02 -0.62077921703E+02 -0.96697750578E+02  0.18297083192E+03  0.12499604706E+03 0.  0.
          2    1    1    2  501    0  0.49926601253E+02  0.90716279108E+02 -0.44340579600E+03  0.45533592954E+03  0.00000000000E+00 0. -1.
          1    1    1    2  502    0  0.18265702017E+02 -0.28638357405E+02  0.13959235307E+04  0.13963367412E+04  0.00000000000E+00 0. -1.
         22    1    3    3    0    0 -0.64718988544E+02 -0.55179751664E+02  0.91398863355E+00  0.85054028988E+02  0.00000000000E+00 0.  1.
         22    1    3    3    0    0 -0.34733147259E+01 -0.68981700389E+01 -0.97611739212E+02  0.97916802935E+02  0.00000000000E+00 0.  1.
</event>
<event>
 7    1  0.5593520E-006  0.4265893E+03  0.7818608E-02  0.1198548E+00
          2   -1    0    0  502    0  0.00000000000E+00  0.00000000000E+00  0.92125063826E+03  0.92125063826E+03  0.00000000000E+00 0. -1.
          1   -1    0    0  501    0 -0.00000000000E+00 -0.00000000000E+00 -0.74057595024E+03  0.74057595024E+03  0.00000000000E+00 0. -1.
         25    2    1    2    0    0  0.42747330378E+03 -0.15828235517E+02  0.19597678501E+03  0.48684297940E+03  0.12500091135E+03 0.  0.
          2    1    1    2  501    0 -0.20209863923E+01  0.53821406167E+02 -0.51488196504E+03  0.51769128453E+03  0.00000000000E+00 0. -1.
          1    1    1    2  502    0 -0.42545231739E+03 -0.37993170650E+02  0.49957986805E+03  0.65729232458E+03  0.00000000000E+00 0. -1.
         22    1    3    3    0    0  0.31340638047E+03 -0.43530903576E+02  0.19049364997E+03  0.36933227528E+03  0.00000000000E+00 0.  1.
         22    1    3    3    0    0  0.11406692331E+03  0.27702668059E+02  0.54831350358E+01  0.11751070411E+03  0.00000000000E+00 0.  1.
</event>
<event>
 7    1  0.5593520E-006  0.1804127E+03  0.7818608E-02  0.1194766E+00
          2   -1    0    0  502    0  0.00000000000E+00  0.00000000000E+00  0.47678373162E+03  0.47678373162E+03  0.00000000000E+00 0. -1.
          1   -1    0    0  501    0 -0.00000000000E+00 -0.00000000000E+00 -0.27501697393E+03  0.27501697393E+03  0.00000000000E+00 0. -1.
         25    2    1    2    0    0  0.22142203244E+02  0.16615562999E+03 -0.12042849361E+03  0.24130084528E+03  0.12500042126E+03 0.  0.
          2    1    1    2  501    0  0.93699639067E+02 -0.23093066929E+03  0.14242029719E+03  0.28704030628E+03  0.00000000000E+00 0. -1.
          1    1    1    2  502    0 -0.11584184231E+03  0.64775039299E+02  0.17977495411E+03  0.22345955399E+03  0.00000000000E+00 0. -1.
         22    1    3    3    0    0  0.35412011792E+02 -0.35784136187E+01 -0.58145379379E+01  0.36064171620E+02  0.00000000000E+00 0. -1.
         22    1    3    3    0    0 -0.13269808549E+02  0.16973404361E+03 -0.11461395567E+03  0.20523667366E+03  0.00000000000E+00 0. -1.
</event>
<event>
 7    1  0.5593520E-006  0.4608602E+02  0.7818608E-02  0.1477760E+00
          2   -1    0    0  502    0  0.00000000000E+00  0.00000000000E+00  0.12672051123E+02  0.12672051123E+02  0.00000000000E+00 0. -1.
          1   -1    0    0  501    0 -0.00000000000E+00 -0.00000000000E+00 -0.20981260094E+04  0.20981260094E+04  0.00000000000E+00 0. -1.
         25    2    1    2    0    0 -0.74742123846E+01 -0.76425069918E+01 -0.67922591966E+03  0.69071445375E+03  0.12499733966E+03 0.  0.
          2    1    1    2  501    0 -0.39316140492E+01  0.48983502835E+02 -0.13417282901E+04  0.13426278880E+04  0.00000000000E+00 0. -1.
          1    1    1    2  502    0  0.11405826434E+02 -0.41340995844E+02 -0.64499748524E+02  0.77455718792E+02  0.00000000000E+00 0. -1.
         22    1    3    3    0    0  0.30032774714E+01 -0.41010639039E+00  0.52810398748E+01  0.60891087181E+01  0.00000000000E+00 0. -1.
         22    1    3    3    0    0 -0.10477489856E+02 -0.72324006014E+01 -0.68450695953E+03  0.68462534503E+03  0.00000000000E+00 0. -1.
</event>
<event>
 7    1  0.5668367E-006  0.1123668E+03  0.7818608E-02  0.1319956E+00
          2   -1    0    0  502    0  0.00000000000E+00  0.00000000000E+00  0.13364693242E+04  0.13364693242E+04  0.00000000000E+00 0. -1.
          1   -1    0    0  501    0 -0.00000000000E+00 -0.00000000000E+00 -0.64903680262E+03  0.64903680262E+03  0.00000000000E+00 0. -1.
         25    2    1    2    0    0  0.10073663131E+03  0.12706303268E+03 -0.89386447955E+02  0.22339725621E+03  0.12499405522E+03 0.  0.
          2    1    1    2  501    0 -0.46341213025E+02 -0.97851365756E+02 -0.48593283696E+03  0.49784849085E+03  0.00000000000E+00 0. -1.
          1    1    1    2  502    0 -0.54395418286E+02 -0.29211666927E+02  0.12627518065E+04  0.12642603798E+04  0.00000000000E+00 0. -1.
         22    1    3    3    0    0  0.22883664270E+02  0.60593985401E+02  0.25419424427E+02  0.69580459149E+02  0.00000000000E+00 0. -1.
         22    1    3    3    0    0  0.77852967042E+02  0.66469047282E+02 -0.11480587238E+03  0.15381679706E+03  0.00000000000E+00 0. -1.
</event>
<event>
 7    1  0.5593520E-006  0.5878294E+02  0.7818608E-02  0.1514149E+00
          2   -1    0    0  502    0  0.00000000000E+00  0.00000000000E+00  0.17753092649E+04  0.17753092649E+04  0.00000000000E+00 0. -1.
          1   -1    0    0  501    0 -0.00000000000E+00 -0.00000000000E+00 -0.33293577725E+03  0.33293577725E+03  0.00000000000E+00 0. -1.
         25    2    1    2    0    0 -0.27760032980E+02  0.72597589549E+02  0.28093394929E+03  0.31716494674E+03  0.12501475967E+03 0.  0.
          2    1    1    2  501    0  0.58406018403E+01 -0.58342913522E+02 -0.31197314688E+03  0.31743543054E+03  0.00000000000E+00 0. -1.
          1    1    1    2  502    0  0.21919431140E+02 -0.14254676026E+02  0.14734126853E+04  0.14736446649E+04  0.00000000000E+00 0. -1.
         22    1    3    3    0    0  0.31778661036E+02  0.62277144464E+02  0.74938096484E+02  0.10248924004E+03  0.00000000000E+00 0.  1.
         22    1    3    3    0    0 -0.59538694016E+02  0.10320445085E+02  0.20599585281E+03  0.21467570670E+03  0.00000000000E+00 0.  1.
</event>
<event>
 7    1  0.5593520E-006  0.4451344E+02  0.7818608E-02  0.1494176E+00
          2   -1    0    0  502    0  0.00000000000E+00  0.00000000000E+00  0.11704209786E+03  0.11704209786E+03  0.00000000000E+00 0. -1.
          1   -1    0    0  501    0 -0.00000000000E+00 -0.00000000000E+00 -0.11700752398E+04  0.11700752398E+04  0.00000000000E+00 0. -1.
         25    2    1    2    0    0 -0.19541255950E+02  0.24712103261E+01 -0.64507814797E+03  0.65737251547E+03  0.12499935817E+03 0.  0.
          2    1    1    2  501    0  0.39572407370E+02  0.31662547921E+02 -0.51403242718E+03  0.51652476084E+03  0.00000000000E+00 0. -1.
          1    1    1    2  502    0 -0.20031151420E+02 -0.34133758247E+02  0.10607743316E+03  0.11322006141E+03  0.00000000000E+00 0. -1.
         22    1    3    3    0    0  0.48689186445E+02 -0.16086285691E+02 -0.18843739811E+03  0.19528967835E+03  0.00000000000E+00 0. -1.
         22    1    3    3    0    0 -0.68230442395E+02  0.18557496017E+02 -0.45664074985E+03  0.46208283711E+03  0.00000000000E+00 0. -1.
</event>
<event>
 7    1  0.5593520E-006  0.1015835E+03  0.7818608E-02  0.1428552E+00
          2   -1    0    0  502    0  0.00000000000E+00  0.00000000000E+00  0.18501592682E+04  0.18501592682E+04  0.00000000000E+00 0. -1.
          1   -1    0    0  501    0 -0.00000000000E+00 -0.00000000000E+00 -0.24344111326E+02  0.24344111326E+02  0.00000000000E+00 0. -1.
         25    2    1    2    0    0  0.94371486817E+01  0.12242370127E+03  0.98992417794E+03  0.10053120907E+04  0.12500359694E+03 0.  0.
          2    1    1    2  501    0 -0.19867998447E+02 -0.96530320703E+02  0.13192752041E+03  0.16467456033E+03  0.00000000000E+00 0. -1.
          1    1    1    2  502    0  0.10430849765E+02 -0.25893380571E+02  0.70396345852E+03  0.70451672848E+03  0.00000000000E+00 0. -1.
         22    1    3    3    0    0  0.46488563493E-01  0.45044424681E+02  0.78137464084E+03  0.78267191831E+03  0.00000000000E+00 0. -1.
         22    1    3    3    0    0  0.93906601182E+01  0.77379276593E+02  0.20854953709E+03  0.22264017240E+03  0.00000000000E+00 0. -1.
</event>
<event>
 7    1  0.5593520E-006  0.9349009E+02  0.7818608E-02  0.1301617E+00
          2   -1    0    0  502    0  0.00000000000E+00  0.00000000000E+00  0.63927872062E+03  0.63927872062E+03  0.00000000000E+00 0. -1.
          1   -1    0    0  501    0 -0.00000000000E+00 -0.00000000000E+00 -0.87312222865E+02  0.87312222865E+02  0.00000000000E+00 0. -1.
         25    2    1    2    0    0  0.40265262760E+02 -0.28828509550E+02  0.74304321212E+02  0.15362061925E+03  0.12500315260E+03 0.  0.
          2    1    1    2  501    0 -0.90320200614E+02  0.10075391660E+03  0.63194777221E+02  0.14934078551E+03  0.00000000000E+00 0. -1.
          1    1    1    2  502    0  0.50054937854E+02 -0.71925407046E+02  0.41446739932E+03  0.42362953873E+03  0.00000000000E+00 0. -1.
         22    1    3    3    0    0  0.55640647437E+01 -0.75762827923E+02  0.38811923112E+02  0.85307269837E+02  0.00000000000E+00 0. -1.
         22    1    3    3    0    0  0.34701198016E+02  0.46934318372E+02  0.35492398099E+02  0.68313349411E+02  0.00000000000E+00 0. -1.
</event>
<event>
 7    1  0.1143201E-005  0.8638439E+02  0.7818608E-02  0.1333333E+00
          2   -1    0    0  502    0  0.00000000000E+00  0.00000000000E+00  0.63160105812E+03  0.63160105812E+03  0.00000000000E+00 0. -1.
          1   -1    0    0  501    0 -0.00000000000E+00 -0.00000000000E+00 -0.19015518134E+04  0.19015518134E+04  0.00000000000E+00 0. -1.
         25    2    1    2    0    0  0.46394245149E+02  0.62622754909E+02 -0.97723332024E+03  0.98827366930E+03  0.12500339124E+03 0.  0.
          2    1    1    2  501    0  0.40030932287E+02 -0.59066577279E+02 -0.91441420120E+03  0.91719390940E+03  0.00000000000E+00 0. -1.
          1    1    1    2  502    0 -0.86425177436E+02 -0.35561776296E+01  0.62169676619E+03  0.62768529279E+03  0.00000000000E+00 0. -1.
         22    1    3    3    0    0  0.77335216296E+02  0.26403480929E+00 -0.54865965313E+03  0.55408322513E+03  0.00000000000E+00 0. -1.
         22    1    3    3    0    0 -0.30940971147E+02  0.62358720099E+02 -0.42857366711E+03  0.43419044417E+03  0.00000000000E+00 0. -1.
</event>
<event>
 7    1  0.5593520E-006  0.9194736E+02  0.7818608E-02  0.1405085E+00
          2   -1    0    0  502    0  0.00000000000E+00  0.00000000000E+00  0.64519467056E+02  0.64519467056E+02  0.00000000000E+00 0. -1.
          1   -1    0    0  501    0 -0.00000000000E+00 -0.00000000000E+00 -0.21999162417E+04  0.21999162417E+04  0.00000000000E+00 0. -1.
         25    2    1    2    0    0 -0.36599027726E+02  0.71463983668E+02 -0.65069711447E+03  0.66744170942E+03  0.12500044364E+03 0.  0.
          2    1    1    2  501    0 -0.34949339268E+02 -0.12061403501E+02 -0.15019574780E+04  0.15024124598E+04  0.00000000000E+00 0. -1.
          1    1    1    2  502    0  0.71548366994E+02 -0.59402580167E+02  0.17257817762E+02  0.94581539551E+02  0.00000000000E+00 0. -1.
         22    1    3    3    0    0 -0.71654976381E+02  0.60027344213E+02 -0.58213968060E+03  0.58959674815E+03  0.00000000000E+00 0.  1.
         22    1    3    3    0    0  0.35055948655E+02  0.11436639454E+02 -0.68557433865E+02  0.77844961277E+02  0.00000000000E+00 0.  1.
</event>
<event>
 7    1  0.5593520E-006  0.4224996E+03  0.7818608E-02  0.1183773E+00
          2   -1    0    0  502    0  0.00000000000E+00  0.00000000000E+00  0.10751829985E+04  0.10751829985E+04  0.00000000000E+00 0. -1.
          1   -1    0    0  501    0 -0.00000000000E+00 -0.00000000000E+00 -0.10671682314E+04  0.10671682314E+04  0.00000000000E+00 0. -1.
         25    2    1    2    0    0  0.43524108775E+03 -0.16846598929E+03  0.18311604414E+03  0.51669257415E+03  0.12499654616E+03 0.  0.
          2    1    1    2  501    0 -0.63999524881E+02  0.47333303321E+00 -0.84183546276E+03  0.84426483379E+03  0.00000000000E+00 0. -1.
          1    1    1    2  502    0 -0.37124156287E+03  0.16799265625E+03  0.66673418569E+03  0.78139382191E+03  0.00000000000E+00 0. -1.
         22    1    3    3    0    0  0.37666201816E+03 -0.10251775934E+03  0.17597611290E+03  0.42819593554E+03  0.00000000000E+00 0. -1.
         22    1    3    3    0    0  0.58579069596E+02 -0.65948229943E+02  0.71399312315E+01  0.88496638610E+02  0.00000000000E+00 0. -1.
</event>
<event>
 7    1  0.5593520E-006  0.4625919E+02  0.7818608E-02  0.1529446E+00
          2   -1    0    0  502    0  0.00000000000E+00  0.00000000000E+00  0.22542470198E+03  0.22542470198E+03  0.00000000000E+00 0. -1.
          1   -1    0    0  501    0 -0.00000000000E+00 -0.00000000000E+00 -0.37225248788E+03  0.37225248788E+03  0.00000000000E+00 0. -1.
         25    2    1    2    0    0 -0.55413794304E+02 -0.29992007360E+01 -0.18412697975E+03  0.22936088621E+03  0.12499595051E+03 0.  0.
          2    1    1    2  501    0  0.15207752130E+02  0.25862516671E+02 -0.16147157969E+03  0.16423524756E+03  0.00000000000E+00 0. -1.
          1    1    1    2  502    0  0.40206042174E+02 -0.22863315935E+02  0.19877077354E+03  0.20408105610E+03  0.00000000000E+00 0. -1.
         22    1    3    3    0    0  0.20243142024E+02  0.98882694607E+01 -0.13798315533E+03  0.13981027797E+03  0.00000000000E+00 0.  1.
         22    1    3    3    0    0 -0.75656936329E+02 -0.12887470197E+02 -0.46143824422E+02  0.89550608234E+02  0.00000000000E+00 0.  1.
</event>
<event>
 7    1  0.5593520E-006  0.5781148E+02  0.7818608E-02  0.1453977E+00
          2   -1    0    0  502    0  0.00000000000E+00  0.00000000000E+00  0.15801429059E+03  0.15801429059E+03  0.00000000000E+00 0. -1.
          1   -1    0    0  501    0 -0.00000000000E+00 -0.00000000000E+00 -0.75802475722E+03  0.75802475722E+03  0.00000000000E+00 0. -1.
         25    2    1    2    0    0  0.22101071519E+02 -0.33508623326E+01 -0.25514837403E+03  0.28500096481E+03  0.12500068611E+03 0.  0.
          2    1    1    2  501    0 -0.60197569783E+02  0.17321515428E+02 -0.48300964433E+03  0.48705451319E+03  0.00000000000E+00 0. -1.
          1    1    1    2  502    0  0.38096498264E+02 -0.13970653096E+02  0.13814755173E+03  0.14398356981E+03  0.00000000000E+00 0. -1.
         22    1    3    3    0    0  0.16078437613E+02  0.36024111646E+02 -0.23864659021E+03  0.24188519548E+03  0.00000000000E+00 0. -1.
         22    1    3    3    0    0  0.60226339066E+01 -0.39374973978E+02 -0.16501783823E+02  0.43115769323E+02  0.00000000000E+00 0. -1.
</event>
<event>
 7    1  0.5593520E-006  0.1236820E+03  0.7818608E-02  0.1253972E+00
          2   -1    0    0  502    0  0.00000000000E+00  0.00000000000E+00  0.55742814682E+03  0.55742814682E+03  0.00000000000E+00 0. -1.
          1   -1    0    0  501    0 -0.00000000000E+00 -0.00000000000E+00 -0.28120160901E+03  0.28120160901E+03  0.00000000000E+00 0. -1.
         25    2    1    2    0    0 -0.83181033955E+01  0.75295949650E+02  0.12822347947E+03  0.19443805042E+03  0.12500489546E+03 0.  0.
          2    1    1    2  501    0 -0.99612642589E+02  0.31303084316E+02 -0.22143650820E+03  0.24481970676E+03  0.00000000000E+00 0. -1.
          1    1    1    2  502    0  0.10793074598E+03 -0.10659903397E+03  0.36943956655E+03  0.39937199865E+03  0.00000000000E+00 0. -1.
         22    1    3    3    0    0  0.55978411341E+01  0.10576939131E+03  0.69042945514E+02  0.12643349354E+03  0.00000000000E+00 0.  1.
         22    1    3    3    0    0 -0.13915944530E+02 -0.30473441657E+02  0.59180533951E+02  0.68004556886E+02  0.00000000000E+00 0.  1.
</event>
<event>
 7    1  0.5593520E-006  0.7354988E+02  0.7818608E-02  0.1446756E+00
          2   -1    0    0  502    0  0.00000000000E+00  0.00000000000E+00  0.58586406422E+03  0.58586406422E+03  0.00000000000E+00 0. -1.
          1   -1    0    0  501    0 -0.00000000000E+00 -0.00000000000E+00 -0.17458747822E+03  0.17458747822E+03  0.00000000000E+00 0. -1.
         25    2    1    2    0    0 -0.58116682025E+02 -0.18575423462E+02  0.86510591334E+02  0.16380532839E+03  0.12500203242E+03 0.  0.
          2    1    1    2  501    0  0.54175318239E+02  0.51979893800E+02 -0.12489737511E+03  0.14572655480E+03  0.00000000000E+00 0. -1.
          1    1    1    2  502    0  0.39413637855E+01 -0.33404470338E+02  0.44966336977E+03  0.45091965926E+03  0.00000000000E+00 0. -1.
         22    1    3    3    0    0 -0.36165416554E+02  0.27263891413E+02 -0.17091323392E+02  0.48408371846E+02  0.00000000000E+00 0.  1.
         22    1    3    3    0    0 -0.21951265471E+02 -0.45839314875E+02  0.10360191473E+03  0.11539695654E+03  0.00000000000E+00 0.  1.
</event>
<event>
 7    1  0.5593520E-006  0.6846304E+02  0.7818608E-02  0.1432543E+00
          2   -1    0    0  502    0  0.00000000000E+00  0.00000000000E+00  0.18943931401E+04  0.18943931401E+04  0.00000000000E+00 0. -1.
          1   -1    0    0  501    0 -0.00000000000E+00 -0.00000000000E+00 -0.62155444571E+03  0.62155444571E+03  0.00000000000E+00 0. -1.
         25    2    1    2    0    0  0.47174364037E+02  0.52942797888E+02  0.43689673355E+03  0.45992596547E+03  0.12499910984E+03 0.  0.
          2    1    1    2  501    0  0.19554051332E+02 -0.35108707537E+02 -0.60855189383E+03  0.60987735632E+03  0.00000000000E+00 0. -1.
          1    1    1    2  502    0 -0.66728415369E+02 -0.17834090351E+02  0.14444938547E+04  0.14461442641E+04  0.00000000000E+00 0. -1.
         22    1    3    3    0    0 -0.36725160956E+02 -0.94900706546E+01  0.91707669713E+02  0.99242609662E+02  0.00000000000E+00 0. -1.
         22    1    3    3    0    0  0.83899524993E+02  0.62432868543E+02  0.34518906383E+03  0.36068335581E+03  0.00000000000E+00 0. -1.
</event>
<event>
 7    1  0.5593520E-006  0.7222426E+02  0.7818608E-02  0.1450426E+00
          2   -1    0    0  502    0  0.00000000000E+00  0.00000000000E+00  0.57856074388E+02  0.57856074388E+02  0.00000000000E+00 0. -1.
          1   -1    0    0  501    0 -0.00000000000E+00 -0.00000000000E+00 -0.15623555677E+04  0.15623555677E+04  0.00000000000E+00 0. -1.
         25    2    1    2    0    0 -0.24681542903E+02 -0.33770301028E+02 -0.34440696590E+03  0.36876766262E+03  0.12499527609E+03 0.  0.
          2    1    1    2  501    0  0.43804571521E+02  0.61078532276E+02 -0.11983465959E+04  0.12007014581E+04  0.00000000000E+00 0. -1.
          1    1    1    2  502    0 -0.19123028619E+02 -0.27308231248E+02  0.38254068490E+02  0.50742521355E+02  0.00000000000E+00 0. -1.
         22    1    3    3    0    0 -0.18488731445E+02 -0.22108038970E+02 -0.35223838755E+03  0.35341544992E+03  0.00000000000E+00 0.  1.
         22    1    3    3    0    0 -0.61928114572E+01 -0.11662262058E+02  0.78314216464E+01  0.15352212709E+02  0.00000000000E+00 0.  1.
</event>
<event>
 7    1  0.5593520E-006  0.9446922E+02  0.7818608E-02  0.1478952E+00
          2   -1    0    0  502    0  0.00000000000E+00  0.00000000000E+00  0.18427992244E+04  0.18427992244E+04  0.00000000000E+00 0. -1.
          1   -1    0    0  501    0 -0.00000000000E+00 -0.00000000000E+00 -0.97037189214E+03  0.97037189214E+03  0.00000000000E+00 0. -1.
         25    2    1    2    0    0 -0.56758750717E+02 -0.48216909303E+02  0.10802622570E+03  0.18121963670E+03  0.12499786064E+03 0.  0.
          2    1    1    2  501    0 -0.16482466631E+02 -0.12598011695E+02 -0.93232551909E+03  0.93255630133E+03  0.00000000000E+00 0. -1.
          1    1    1    2  502    0  0.73241217347E+02  0.60814920998E+02  0.16967266257E+04  0.16993951786E+04  0.00000000000E+00 0. -1.
         22    1    3    3    0    0 -0.45909857137E+02  0.37362548903E+02  0.41728477506E+02  0.72421964056E+02  0.00000000000E+00 0. -1.
         22    1    3    3    0    0 -0.10848893580E+02 -0.85579458205E+02  0.66297748191E+02  0.10879767265E+03  0.00000000000E+00 0. -1.
</event>
<event>
 7    1  0.5593520E-006  0.9513369E+02  0.7818608E-02  0.1423913E+00
          2   -1    0    0  502    0  0.00000000000E+00  0.00000000000E+00  0.96760823823E+02  0.96760823823E+02  0.00000000000E+00 0. -1.
          1   -1    0    0  501    0 -0.00000000000E+00 -0.00000000000E+00 -0.13613789346E+04  0.13613789346E+04  0.00000000000E+00 0. -1.
         25    2    1    2    0    0  0.56136332904E+02 -0.94530115520E+02 -0.39965568116E+03  0.43293974792E+03  0.12499972491E+03 0.  0.
          2    1    1    2  501    0 -0.66716147285E+02  0.65518207532E+02 -0.93969634372E+03  0.94433727991E+03  0.00000000000E+00 0. -1.
          1    1    1    2  502    0  0.10579814381E+02  0.29011907988E+02  0.74733914121E+02  0.80862730582E+02  0.00000000000E+00 0. -1.
         22    1    3    3    0    0  0.96203757254E+02 -0.61554898781E+02 -0.26115249691E+03  0.28503472616E+03  0.00000000000E+00 0.  1.
         22    1    3    3    0    0 -0.40067424351E+02 -0.32975216739E+02 -0.13850318425E+03  0.14790502176E+03  0.00000000000E+00 0.  1.
</event>
<event>
 7    1  0.5593520E-006  0.6371908E+02  0.7818608E-02  0.1443427E+00
          2   -1    0    0  502    0  0.00000000000E+00  0.00000000000E+00  0.53628246265E+03  0.53628246265E+03  0.00000000000E+00 0. -1.
          1   -1    0    0  501    0 -0.00000000000E+00 -0.00000000000E+00 -0.72229722922E+03  0.72229722922E+03  0.00000000000E+00 0. -1.
         25    2    1    2    0    0 -0.50926980376E+02  0.87502485949E+02  0.40802662564E+03  0.43858946735E+03  0.12499900505E+03 0.  0.
          2    1    1    2  501    0  0.22767653722E+02 -0.59380945561E+02 -0.70202860378E+03  0.70490327228E+03  0.00000000000E+00 0. -1.
          1    1    1    2  502    0  0.28159326653E+02 -0.28121540389E+02  0.10798721157E+03  0.11508695224E+03  0.00000000000E+00 0. -1.
         22    1    3    3    0    0 -0.45897704471E+02  0.11966199489E+03  0.31769992074E+03  0.34257675335E+03  0.00000000000E+00 0. -1.
         22    1    3    3    0    0 -0.50292759043E+01 -0.32159508946E+02  0.90326704897E+02  0.96012713998E+02  0.00000000000E+00 0. -1.
</event>
<event>
 7    1  0.5593520E-006  0.2395419E+03  0.7818608E-02  0.1258882E+00
          2   -1    0    0  502    0  0.00000000000E+00  0.00000000000E+00  0.25476494187E+04  0.25476494187E+04  0.00000000000E+00 0. -1.
          1   -1    0    0  501    0 -0.00000000000E+00 -0.00000000000E+00 -0.33517667791E+03  0.33517667791E+03  0.00000000000E+00 0. -1.
         25    2    1    2    0    0  0.83599525628E+01  0.19085600933E+03 -0.39476919405E+02  0.23168708156E+03  0.12499828595E+03 0.  0.
          2    1    1    2  501    0 -0.73868129820E+01  0.50824183669E+02 -0.19022436884E+03  0.19703546166E+03  0.00000000000E+00 0. -1.
          1    1    1    2  502    0 -0.97313958086E+00 -0.24168019300E+03  0.24421740290E+04  0.24541035534E+04  0.00000000000E+00 0. -1.
         22    1    3    3    0    0 -0.15049926381E+01  0.10693754890E+02 -0.49802352993E+02  0.50959746469E+02  0.00000000000E+00 0.  1.
         22    1    3    3    0    0  0.98649452009E+01  0.18016225444E+03  0.10325433589E+02  0.18072733509E+03  0.00000000000E+00 0.  1.
</event>
<event>
 7    1  0.5593520E-006  0.7138213E+02  0.7818608E-02  0.1423634E+00
          2   -1    0    0  502    0  0.00000000000E+00  0.00000000000E+00  0.14179927033E+04  0.14179927033E+04  0.00000000000E+00 0. -1.
          1   -1    0    0  501    0 -0.00000000000E+00 -0.00000000000E+00 -0.11786885477E+03  0.11786885477E+03  0.00000000000E+00 0. -1.
         25    2    1    2    0    0  0.32947488088E+02  0.16367200660E+02  0.15833216214E+03  0.20505467042E+03  0.12499968827E+03 0.  0.
          2    1    1    2  501    0  0.39914643484E+02 -0.10387255073E+02 -0.88870747788E+02  0.97974913344E+02  0.00000000000E+00 0. -1.
          1    1    1    2  502    0 -0.72862131572E+02 -0.59799455874E+01  0.12306624342E+04  0.12328319744E+04  0.00000000000E+00 0. -1.
         22    1    3    3    0    0 -0.35994022160E+01 -0.32452604919E+02 -0.27968417539E+01  0.32771170045E+02  0.00000000000E+00 0. -1.
         22    1    3    3    0    0  0.36546890304E+02  0.48819805579E+02  0.16112900389E+03  0.17228350038E+03  0.00000000000E+00 0. -1.
</event>
<event>
 7    1  0.5593520E-006  0.3213771E+02  0.7818608E-02  0.1599834E+00
          2   -1    0    0  502    0  0.00000000000E+00  0.00000000000E+00  0.52270196913E+02  0.52270196913E+02  0.00000000000E+00 0. -1.
          1   -1    0    0  501    0 -0.00000000000E+00 -0.00000000000E+00 -0.32795177051E+03  0.32795177051E+03  0.00000000000E+00 0. -1.
         25    2    1    2    0    0  0.42600652700E+02  0.10215060948E+02 -0.79324374273E+02  0.15439061301E+03  0.12499976781E+03 0.  0.
          2    1    1    2  501    0 -0.14099930957E+02 -0.23856285968E+02 -0.19193636407E+03  0.19392652806E+03  0.00000000000E+00 0. -1.
          1    1    1    2  502    0 -0.28500721743E+02  0.13641225020E+02 -0.44208352506E+01  0.31904826347E+02  0.00000000000E+00 0. -1.
         22    1    3    3    0    0  0.65335099957E+02 -0.11149135383E+02 -0.97792175815E+02  0.11813673500E+03  0.00000000000E+00 0.  1.
         22    1    3    3    0    0 -0.22734447258E+02  0.21364196331E+02  0.18467801542E+02  0.36253878011E+02  0.00000000000E+00 0.  1.
</event>
<event>
 7    1  0.5593520E-006  0.7778872E+02  0.7818608E-02  0.1363342E+00
          2   -1    0    0  502    0  0.00000000000E+00  0.00000000000E+00  0.18784107429E+04  0.18784107429E+04  0.00000000000E+00 0. -1.
          1   -1    0    0  501    0 -0.00000000000E+00 -0.00000000000E+00 -0.87280599055E+03  0.87280599055E+03  0.00000000000E+00 0. -1.
         25    2    1    2    0    0  0.68021692708E+02  0.11475206758E+03  0.28926162628E+02  0.18509437119E+03  0.12501286202E+03 0.  0.
          2    1    1    2  501    0 -0.22727852884E+02 -0.73447562836E+02 -0.79233028473E+03  0.79605174448E+03  0.00000000000E+00 0. -1.
          1    1    1    2  502    0 -0.45293839825E+02 -0.41304504743E+02  0.17690088745E+04  0.17700706178E+04  0.00000000000E+00 0. -1.
         22    1    3    3    0    0  0.15882009296E+02  0.74589214242E+02  0.73253067188E+02  0.10574403507E+03  0.00000000000E+00 0. -1.
         22    1    3    3    0    0  0.52139683412E+02  0.40162853337E+02 -0.44326904560E+02  0.79350336120E+02  0.00000000000E+00 0. -1.
</event>
<event>
 7    1  0.5593520E-006  0.8317136E+02  0.7818608E-02  0.1400562E+00
          2   -1    0    0  502    0  0.00000000000E+00  0.00000000000E+00  0.47239336132E+03  0.47239336132E+03  0.00000000000E+00 0. -1.
          1   -1    0    0  501    0 -0.00000000000E+00 -0.00000000000E+00 -0.70633551264E+02  0.70633551264E+02  0.00000000000E+00 0. -1.
         25    2    1    2    0    0 -0.48286870886E+02  0.41323607972E+02  0.31414850285E+03  0.34402392998E+03  0.12499568027E+03 0.  0.
          2    1    1    2  501    0  0.31366525306E+02 -0.80154553665E+02 -0.15566092404E+02  0.87469506776E+02  0.00000000000E+00 0. -1.
          1    1    1    2  502    0  0.16920345580E+02  0.38830945693E+02  0.10317739961E+03  0.11153347582E+03  0.00000000000E+00 0. -1.
         22    1    3    3    0    0 -0.45222291214E+02  0.80628642433E+02  0.15877590338E+03  0.18372757304E+03  0.00000000000E+00 0.  1.
         22    1    3    3    0    0 -0.30645796719E+01 -0.39305034461E+02  0.15537259947E+03  0.16029635694E+03  0.00000000000E+00 0.  1.
</event>
<event>
 7    1  0.1189610E-005  0.7562120E+02  0.7818608E-02  0.1346586E+00
          2   -1    0    0  502    0  0.00000000000E+00  0.00000000000E+00  0.13037832586E+04  0.13037832586E+04  0.00000000000E+00 0. -1.
          1   -1    0    0  501    0 -0.00000000000E+00 -0.00000000000E+00 -0.10138136763E+04  0.10138136763E+04  0.00000000000E+00 0. -1.
         25    2    1    2    0    0 -0.76792046971E+02 -0.16014597495E+02 -0.15865048040E+03  0.21667545281E+03  0.12499916443E+03 0.  0.
          2    1    1    2  501    0  0.29857836226E+02  0.71493557649E+02 -0.82329481987E+03  0.82693239119E+03  0.00000000000E+00 0. -1.
          1    1    1    2  502    0  0.46934210745E+02 -0.55478960153E+02  0.12719148826E+04  0.12739890909E+04  0.00000000000E+00 0. -1.
         22    1    3    3    0    0 -0.10716786828E+03 -0.32362684882E+02 -0.10924217589E+03  0.15641658594E+03  0.00000000000E+00 0.  1.
         22    1    3    3    0    0  0.30375821311E+02  0.16348087386E+02 -0.49408304509E+02  0.60258866866E+02  0.00000000000E+00 0.  1.
</event>
<event>
 7    1  0.5593520E-006  0.4999507E+03  0.7818608E-02  0.1217372E+00
          2   -1    0    0  502    0  0.00000000000E+00  0.00000000000E+00  0.25870394122E+04  0.25870394122E+04  0.00000000000E+00 0. -1.
          1   -1    0    0  501    0 -0.00000000000E+00 -0.00000000000E+00 -0.26546483649E+03  0.26546483649E+03  0.00000000000E+00 0. -1.
         25    2    1    2    0    0  0.43704891894E+03  0.19476851655E+03  0.12685013580E+03  0.51055150766E+03  0.12500140976E+03 0.  0.
          2    1    1    2  501    0  0.99918212857E+01  0.36208923438E+02 -0.37880170360E+02  0.53346320732E+02  0.00000000000E+00 0. -1.
          1    1    1    2  502    0 -0.44704074022E+03 -0.23097743999E+03  0.22326046103E+04  0.22886064203E+04  0.00000000000E+00 0. -1.
         22    1    3    3    0    0 -0.25140205658E+01  0.15638551094E+02  0.17215506840E+02  0.23393551579E+02  0.00000000000E+00 0.  1.
         22    1    3    3    0    0  0.43956293950E+03  0.17912996545E+03  0.10963462896E+03  0.48715795608E+03  0.00000000000E+00 0.  1.
</event>
<event>
 7    1  0.5593520E-006  0.1166300E+03  0.7818608E-02  0.1385337E+00
          2   -1    0    0  502    0  0.00000000000E+00  0.00000000000E+00  0.46478696256E+02  0.46478696256E+02  0.00000000000E+00 0. -1.
          1   -1    0    0  501    0 -0.00000000000E+00 -0.00000000000E+00 -0.13585613000E+04  0.13585613000E+04  0.00000000000E+00 0. -1.
         25    2    1    2    0    0 -0.88270901180E+02  0.23801889593E+02 -0.35620807683E+03  0.38841700115E+03  0.12500116334E+03 0.  0.
          2    1    1    2  501    0 -0.33352364596E+02  0.71905077302E+01 -0.85478374604E+03  0.85546439793E+03  0.00000000000E+00 0. -1.
          1    1    1    2  502    0  0.12162326578E+03 -0.30992397323E+02 -0.10109078088E+03  0.16115859719E+03  0.00000000000E+00 0. -1.
         22    1    3    3    0    0 -0.67049319335E+02 -0.31791256867E+02 -0.29024124734E+03  0.29957682970E+03  0.00000000000E+00 0. -1.
         22    1    3    3    0    0 -0.21221581845E+02  0.55593146460E+02 -0.65966829495E+02  0.88840171448E+02  0.00000000000E+00 0. -1.
</event>
<event>
 7    1  0.5593520E-006  0.1382132E+03  0.7818608E-02  0.1430936E+00
          2   -1    0    0  502    0  0.00000000000E+00  0.00000000000E+00  0.91120619051E+02  0.91120619051E+02  0.00000000000E+00 0. -1.
          1   -1    0    0  501    0 -0.00000000000E+00 -0.00000000000E+00 -0.88000057343E+03  0.88000057343E+03  0.00000000000E+00 0. -1.
         25    2    1    2    0    0  0.13242460227E+03  0.40428474234E+02 -0.62160948211E+03  0.64899469380E+03  0.12500011005E+03 0.  0.
          2    1    1    2  501    0  0.43303463020E+01 -0.19678825753E+02 -0.18192022607E+03  0.18303272040E+03  0.00000000000E+00 0. -1.
          1    1    1    2  502    0 -0.13675494857E+03 -0.20749648481E+02  0.14649753807E+02  0.13909377828E+03  0.00000000000E+00 0. -1.
         22    1    3    3    0    0  0.17280916879E+02 -0.40893805369E+02 -0.18202728193E+03  0.18736292262E+03  0.00000000000E+00 0. -1.
         22    1    3    3    0    0  0.11514368539E+03  0.81322279602E+02 -0.43958220018E+03  0.46163177117E+03  0.00000000000E+00 0. -1.
</event>
<event>
 7    1  0.5593520E-006  0.7068840E+02  0.7818608E-02  0.1413796E+00
          2   -1    0    0  502    0  0.00000000000E+00  0.00000000000E+00  0.23225413300E+03  0.23225413300E+03  0.00000000000E+00 0. -1.
          1   -1    0    0  501    0 -0.00000000000E+00 -0.00000000000E+00 -0.11453086154E+04  0.11453086154E+04  0.00000000000E+00 0. -1.
         25    2    1    2    0    0  0.13465874204E+02  0.29838420829E+02 -0.55626150745E+02  0.14068038824E+03  0.12500016745E+03 0.  0.
          2    1    1    2  501    0 -0.10352748259E+02  0.43719524507E+02 -0.10395093446E+04  0.10404798190E+04  0.00000000000E+00 0. -1.
          1    1    1    2  502    0 -0.31131259449E+01 -0.73557945336E+02  0.18208101298E+03  0.19640254113E+03  0.00000000000E+00 0. -1.
         22    1    3    3    0    0  0.20293589074E+02 -0.43763226667E+02 -0.45060648272E+02  0.66011451950E+02  0.00000000000E+00 0. -1.
         22    1    3    3    0    0 -0.68277148708E+01  0.73601647496E+02 -0.10565502473E+02  0.74668936292E+02  0.00000000000E+00 0. -1.
</event>
<event>
 7    1  0.5593520E-006  0.9521764E+02  0.7818608E-02  0.1374455E+00
          2   -1    0    0  502    0  0.00000000000E+00  0.00000000000E+00  0.44979350105E+03  0.44979350105E+03  0.00000000000E+00 0. -1.
          1   -1    0    0  501    0 -0.00000000000E+00 -0.00000000000E+00 -0.43845745284E+03  0.43845745284E+03  0.00000000000E+00 0. -1.
         25    2    1    2    0    0  0.94737648010E+01  0.59939938003E+02  0.10493648781E+03  0.17412207383E+03  0.12499712690E+03 0.  0.
          2    1    1    2  501    0 -0.11358261934E+02  0.44235272439E+02 -0.39376004586E+03  0.39639972648E+03  0.00000000000E+00 0. -1.
          1    1    1    2  502    0  0.18844971327E+01 -0.10417521044E+03  0.30015960626E+03  0.31772915358E+03  0.00000000000E+00 0. -1.
         22    1    3    3    0    0  0.38642906464E+02  0.82806840371E+02  0.10199378947E+03  0.13694152081E+03  0.00000000000E+00 0. -1.
         22    1    3    3    0    0 -0.29169141663E+02 -0.22866902367E+02  0.29426983423E+01  0.37180553019E+02  0.00000000000E+00 0. -1.
</event>
<event>
 7    1  0.5593520E-006  0.1099289E+03  0.7818608E-02  0.1380553E+00
          2   -1    0    0  502    0  0.00000000000E+00  0.00000000000E+00  0.55505590245E+03  0.55505590245E+03  0.00000000000E+00 0. -1.
          1   -1    0    0  501    0 -0.00000000000E+00 -0.00000000000E+00 -0.46358461369E+03  0.46358461369E+03  0.00000000000E+00 0. -1.
         25    2    1    2    0    0 -0.34053870513E+02 -0.12641215223E+03 -0.25201600407E+02  0.18275515737E+03  0.12499851421E+03 0.  0.
          2    1    1    2  501    0  0.11584683595E+01  0.10813388282E+03 -0.35070287599E+03  0.36699698349E+03  0.00000000000E+00 0. -1.
          1    1    1    2  502    0  0.32895402154E+02  0.18278269406E+02  0.46737576515E+03  0.46888837527E+03  0.00000000000E+00 0. -1.
         22    1    3    3    0    0 -0.29380590999E+02 -0.12522354953E+03  0.26084919818E+02  0.13124244560E+03  0.00000000000E+00 0.  1.
         22    1    3    3    0    0 -0.46732795143E+01 -0.11886026977E+01 -0.51286520225E+02  0.51512711777E+02  0.00000000000E+00 0.  1.
</event>
<event>
 7    1  0.5593520E-006  0.9597136E+02  0.7818608E-02  0.1432002E+00
          2   -1    0    0  502    0  0.00000000000E+00  0.00000000000E+00  0.62128747450E+03  0.62128747450E+03  0.00000000000E+00 0. -1.
          1   -1    0    0  501    0 -0.00000000000E+00 -0.00000000000E+00 -0.57455128951E+03  0.57455128951E+03  0.00000000000E+00 0. -1.
         25    2    1    2    0    0 -0.57626430784E+02 -0.56004919311E+02  0.28283645794E+03  0.31949868998E+03  0.12500237777E+03 0.  0.
          2    1    1    2  501    0 -0.28762077698E+02 -0.11599398493E+01 -0.54745183944E+03  0.54820809833E+03  0.00000000000E+00 0. -1.
          1    1    1    2  502    0  0.86388508481E+02  0.57164859160E+02  0.31135156650E+03  0.32813197570E+03  0.00000000000E+00 0. -1.
         22    1    3    3    0    0 -0.58917647099E+02  0.27371749163E+02  0.11470278696E+03  0.13182272615E+03  0.00000000000E+00 0. -1.
         22    1    3    3    0    0  0.12912163157E+01 -0.83376668474E+02  0.16813367097E+03  0.18767596383E+03  0.00000000000E+00 0. -1.
</event>
<event>
 7    1  0.5593520E-006  0.1265142E+03  0.7818608E-02  0.1278321E+00
          2   -1    0    0  502    0  0.00000000000E+00  0.00000000000E+00  0.15359198681E+04  0.15359198681E+04  0.00000000000E+00 0. -1.
          1   -1    0    0  501    0 -0.00000000000E+00 -0.00000000000E+00 -0.45467804407E+03  0.45467804407E+03  0.00000000000E+00 0. -1.
         25    2    1    2    0    0  0.31003866954E+02 -0.91351522548E+02 -0.38403576217E+02  0.16249997602E+03  0.12500026841E+03 0.  0.
          2    1    1    2  501    0 -0.11066281082E+03  0.79447170552E+02 -0.33997717239E+03  0.36625481342E+03  0.00000000000E+00 0. -1.
          1    1    1    2  502    0  0.79658943864E+02  0.11904351996E+02  0.14596225727E+04  0.14618431228E+04  0.00000000000E+00 0. -1.
         22    1    3    3    0    0 -0.34268651437E+02 -0.42451424525E+01 -0.41021094788E+02  0.53619883657E+02  0.00000000000E+00 0.  1.
         22    1    3    3    0    0  0.65272518392E+02 -0.87106380095E+02  0.26175185710E+01  0.10888009237E+03  0.00000000000E+00 0.  1.
</event>
<event>
 7    1  0.5593520E-006  0.7398067E+02  0.7818608E-02  0.1361458E+00
          2   -1    0    0  502    0  0.00000000000E+00  0.00000000000E+00  0.44251415432E+03  0.44251415432E+03  0.00000000000E+00 0. -1.
          1   -1    0    0  501    0 -0.00000000000E+00 -0.00000000000E+00 -0.17267763675E+03  0.17267763675E+03  0.00000000000E+00 0. -1.
         25    2    1    2    0    0 -0.42706279173E+02  0.39963509304E+02  0.17490894006E+03  0.22279761108E+03  0.12499891933E+03 0.  0.
          2    1    1    2  501    0 -0.12618069333E+02 -0.74988530586E+02 -0.13411645544E+03  0.15417431373E+03  0.00000000000E+00 0. -1.
          1    1    1    2  502    0  0.55324348507E+02  0.35025021282E+02  0.22904403296E+03  0.23821986627E+03  0.00000000000E+00 0. -1.
         22    1    3    3    0    0 -0.28612559076E+02  0.81728859194E+02  0.78874066891E+02  0.11712985695E+03  0.00000000000E+00 0.  1.
         22    1    3    3    0    0 -0.14093720097E+02 -0.41765349890E+02  0.96034873164E+02  0.10566775412E+03  0.00000000000E+00 0.  1.
</event>
<event>
 7    1  0.5593520E-006  0.3714146E+02  0.7818608E-02  0.1552902E+00
          2   -1    0    0  502    0  0.00000000000E+00  0.00000000000E+00  0.26104898973E+04  0.26104898973E+04  0.00000000000E+00 0. -1.
          1   -1    0    0  501    0 -0.00000000000E+00 -0.00000000000E+00 -0.37292715352E+02  0.37292715352E+02  0.00000000000E+00 0. -1.
         25    2    1    2    0    0  0.51571997164E+01  0.19749780545E+02  0.89375175206E+03  0.90268210513E+03  0.12500455217E+03 0.  0.
          2    1    1    2  501    0 -0.30865633474E+02  0.87582001270E+01 -0.24720020831E+02  0.40502750883E+02  0.00000000000E+00 0. -1.
          1    1    1    2  502    0  0.25708433757E+02 -0.28507980672E+02  0.17041654507E+04  0.17045977566E+04  0.00000000000E+00 0. -1.
         22    1    3    3    0    0  0.43080976718E+02  0.17804477119E+02  0.13208492194E+03  0.14006925631E+03  0.00000000000E+00 0.  1.
         22    1    3    3    0    0 -0.37923777001E+02  0.19453034255E+01  0.76166683012E+03  0.76261284881E+03  0.00000000000E+00 0.  1.
</event>
<event>
 7    1  0.5593520E-006  0.4345488E+02  0.7818608E-02  0.1542453E+00
          2   -1    0    0  502    0  0.00000000000E+00  0.00000000000E+00  0.68611116450E+03  0.68611116450E+03  0.00000000000E+00 0. -1.
          1   -1    0    0  501    0 -0.00000000000E+00 -0.00000000000E+00 -0.87421535905E+03  0.87421535905E+03  0.00000000000E+00 0. -1.
         25    2    1    2    0    0  0.52569047463E+01  0.24973615448E+02  0.21977930224E+03  0.25412471485E+03  0.12500044996E+03 0.  0.
          2    1    1    2  501    0  0.29042896997E+02  0.41114030353E+01 -0.85566504779E+03  0.85616766320E+03  0.00000000000E+00 0. -1.
          1    1    1    2  502    0 -0.34299801743E+02 -0.29085018483E+02  0.44778155100E+03  0.45003414550E+03  0.00000000000E+00 0. -1.
         22    1    3    3    0    0 -0.15960476114E+02  0.72929925935E+02  0.11807692791E+03  0.13969850321E+03  0.00000000000E+00 0. -1.
         22    1    3    3    0    0  0.21217380860E+02 -0.47956310487E+02  0.10170237434E+03  0.11442621165E+03  0.00000000000E+00 0. -1.
</event>
<event>
 7    1  0.5593520E-006  0.1003880E+03  0.7818608E-02  0.1405100E+00
          2   -1    0    0  502    0  0.00000000000E+00  0.00000000000E+00  0.12591790321E+04  0.12591790321E+04  0.00000000000E+00 0. -1.
          1   -1    0    0  501    0 -0.00000000000E+00 -0.00000000000E+00 -0.30717918188E+03  0.30717918188E+03  0.00000000000E+00 0. -1.
         25    2    1    2    0    0  0.81925252292E+02  0.25350634146E+02  0.80448195359E+03  0.81863948890E+03  0.12499999005E+03 0.  0.
          2    1    1    2  501    0 -0.81318401699E+02 -0.59204853665E+02 -0.29100064786E+03  0.30789490773E+03  0.00000000000E+00 0. -1.
          1    1    1    2  502    0 -0.60685059310E+00  0.33854219519E+02  0.43851854444E+03  0.43982381730E+03  0.00000000000E+00 0. -1.
         22    1    3    3    0    0  0.84437210702E+02  0.49840250606E+02  0.77030016161E+03  0.77651531350E+03  0.00000000000E+00 0. -1.
         22    1    3    3    0    0 -0.25119584103E+01 -0.24489616460E+02  0.34181791984E+02  0.42124175394E+02  0.00000000000E+00 0. -1.
</event>
<event>
 7    1  0.5593520E-006  0.7764157E+02  0.7818608E-02  0.1415914E+00
          2   -1    0    0  502    0  0.00000000000E+00  0.00000000000E+00  0.13446736417E+03  0.13446736417E+03  0.00000000000E+00 0. -1.
          1   -1    0    0  501    0 -0.00000000000E+00 -0.00000000000E+00 -0.12567307854E+04  0.12567307854E+04  0.00000000000E+00 0. -1.
         25    2    1    2    0    0 -0.42295733764E+02 -0.23643332307E+02 -0.27405236746E+02  0.13683433934E+03  0.12499861265E+03 0.  0.
          2    1    1    2  501    0  0.45745518068E+02  0.63734478141E+02 -0.11681344369E+04  0.11707659027E+04  0.00000000000E+00 0. -1.
          1    1    1    2  502    0 -0.34497843041E+01 -0.40091145834E+02  0.73276252413E+02  0.83597907592E+02  0.00000000000E+00 0. -1.
         22    1    3    3    0    0 -0.54779258441E+02 -0.13454567360E+02 -0.70812406709E+02  0.90532808872E+02  0.00000000000E+00 0.  1.
         22    1    3    3    0    0  0.12483524677E+02 -0.10188764947E+02  0.43407169964E+02  0.46301530469E+02  0.00000000000E+00 0.  1.
</event>
<event>
 7    1  0.5593520E-006  0.5202633E+02  0.7818608E-02  0.1457578E+00
          2   -1    0    0  502    0  0.00000000000E+00  0.00000000000E+00  0.30092350351E+03  0.30092350351E+03  0.00000000000E+00 0. -1.
          1   -1    0    0  501    0 -0.00000000000E+00 -0.00000000000E+00 -0.81303779105E+03  0.81303779105E+03  0.00000000000E+00 0. -1.
         25    2    1    2    0    0  0.32653019502E+02 -0.77423625439E+02 -0.13780368509E+03  0.20414757057E+03  0.12500294991E+03 0.  0.
          2    1    1    2  501    0  0.63032897726E+01  0.43463829883E+02 -0.63880736545E+03  0.64031530212E+03  0.00000000000E+00 0. -1.
          1    1    1    2  502    0 -0.38956309275E+02  0.33959795556E+02  0.26449676300E+03  0.26949842186E+03  0.00000000000E+00 0. -1.
         22    1    3    3    0    0 -0.54104556522E+01 -0.50484210770E+02 -0.14795397106E+03  0.15642348327E+03  0.00000000000E+00 0.  1.
         22    1    3    3    0    0  0.38063475154E+02 -0.26939414670E+02  0.10150285965E+02  0.47724087301E+02  0.00000000000E+00 0.  1.
</event>
<event>
 7    1  0.5593520E-006  0.5910176E+02  0.7818608E-02  0.1482374E+00
          2   -1    0    0  502    0  0.00000000000E+00  0.00000000000E+00  0.53410509139E+03  0.53410509139E+03  0.00000000000E+00 0. -1.
          1   -1    0    0  501    0 -0.00000000000E+00 -0.00000000000E+00 -0.42481448731E+03  0.42481448731E+03  0.00000000000E+00 0. -1.
         25    2    1    2    0    0  0.22411282058E+02 -0.28996207602E+02 -0.30071406755E+02  0.13369134279E+03  0.12500415998E+03 0.  0.
          2    1    1    2  501    0  0.32050605074E+02  0.45283574532E+01 -0.34031439066E+03  0.34185030613E+03  0.00000000000E+00 0. -1.
          1    1    1    2  502    0 -0.54461887132E+02  0.24467850149E+02  0.47967640150E+03  0.48337792978E+03  0.00000000000E+00 0. -1.
         22    1    3    3    0    0  0.69488158845E+02  0.15629027486E+00 -0.35540189793E+02  0.78049559492E+02  0.00000000000E+00 0. -1.
         22    1    3    3    0    0 -0.47076876787E+02 -0.29152497877E+02  0.54687830384E+01  0.55641783296E+02  0.00000000000E+00 0. -1.
</event>
<event>
 7    1  0.5593520E-006  0.8670818E+02  0.7818608E-02  0.1383271E+00
          2   -1    0    0  502    0  0.00000000000E+00  0.00000000000E+00  0.24836802223E+03  0.24836802223E+03  0.00000000000E+00 0. -1.
          1   -1    0    0  501    0 -0.00000000000E+00 -0.00000000000E+00 -0.11055170138E+04  0.11055170138E+04  0.00000000000E+00 0. -1.
         25    2    1    2    0    0  0.63071301407E+01 -0.12672503973E+03 -0.23352904325E+03  0.29369975442E+03  0.12499886446E+03 0.  0.
          2    1    1    2  501    0 -0.19068505050E+02  0.81836386415E+02 -0.83728108640E+03  0.84148702882E+03  0.00000000000E+00 0. -1.
          1    1    1    2  502    0  0.12761374909E+02  0.44888653310E+02  0.21366113804E+03  0.21869825283E+03  0.00000000000E+00 0. -1.
         22    1    3    3    0    0 -0.36495830236E+02 -0.70166183174E+02 -0.20034569780E+03  0.21539182323E+03  0.00000000000E+00 0.  1.
         22    1    3    3    0    0  0.42802960377E+02 -0.56558856551E+02 -0.33183345450E+02  0.78307931186E+02  0.00000000000E+00 0.  1.
</event>
<event>
 7    1  0.5593520E-006  0.7653438E+02  0.7818608E-02  0.1453569E+00
          2   -1    0    0  502    0  0.00000000000E+00  0.00000000000E+00  0.12373437236E+04  0.12373437236E+04  0.00000000000E+00 0. -1.
          1   -1    0    0  501    0 -0.00000000000E+00 -0.00000000000E+00 -0.47823250821E+03  0.47823250821E+03  0.00000000000E+00 0. -1.
         25    2    1    2    0    0 -0.33548183423E+02  0.33832690294E+02  0.67756800132E+02  0.14995724413E+03  0.12500423817E+03 0.  0.
          2    1    1    2  501    0  0.47334357300E+02 -0.61310613319E+02 -0.43348943769E+03  0.44035511269E+03  0.00000000000E+00 0. -1.
          1    1    1    2  502    0 -0.13786173877E+02  0.27477923025E+02  0.11248438530E+04  0.11252638750E+04  0.00000000000E+00 0. -1.
         22    1    3    3    0    0 -0.48770778341E+02 -0.41866742962E+01 -0.20183890351E+02  0.52948149084E+02  0.00000000000E+00 0.  1.
         22    1    3    3    0    0  0.15222594918E+02  0.38019364590E+02  0.87940690483E+02  0.97009095050E+02  0.00000000000E+00 0.  1.
</event>
<event>
 7    1  0.5593520E-006  0.7696061E+02  0.7818608E-02  0.1362734E+00
          2   -1    0    0  502    0  0.00000000000E+00  0.00000000000E+00  0.45956000036E+03  0.45956000036E+03  0.00000000000E+00 0. -1.
          1   -1    0    0  501    0 -0.00000000000E+00 -0.00000000000E+00 -0.29122682306E+03  0.29122682306E+03  0.00000000000E+00 0. -1.
         25    2    1    2    0    0 -0.19723826499E+02 -0.74893596507E+02  0.10262269927E+03  0.17931232726E+03  0.12499364852E+03 0.  0.
          2    1    1    2  501    0  0.68844485616E+02  0.36614455045E+02 -0.24369402530E+03  0.25586511971E+03  0.00000000000E+00 0. -1.
          1    1    1    2  502    0 -0.49120659116E+02  0.38279141463E+02  0.30940450333E+03  0.31560937645E+03  0.00000000000E+00 0. -1.
         22    1    3    3    0    0 -0.57790487431E+02 -0.76403904308E+02  0.35561991562E+02  0.10218587121E+03  0.00000000000E+00 0.  1.
         22    1    3    3    0    0  0.38066660931E+02  0.15103078012E+01  0.67060707710E+02  0.77126456049E+02  0.00000000000E+00 0.  1.
</event>
<event>
 7    1  0.5593520E-006  0.1132354E+03  0.7818608E-02  0.1313397E+00
          2   -1    0    0  502    0  0.00000000000E+00  0.00000000000E+00  0.80915801220E+02  0.80915801220E+02  0.00000000000E+00 0. -1.
          1   -1    0    0  501    0 -0.00000000000E+00 -0.00000000000E+00 -0.49161156465E+03  0.49161156465E+03  0.00000000000E+00 0. -1.
         25    2    1    2    0    0 -0.93092189947E+02 -0.51915536410E+02 -0.32999461643E+03  0.36862232033E+03  0.12499835768E+03 0.  0.
          2    1    1    2  501    0  0.38334904783E+02 -0.52475554115E+02 -0.50268392541E+02  0.82159357307E+02  0.00000000000E+00 0. -1.
          1    1    1    2  502    0  0.54757285163E+02  0.10439109052E+03 -0.30432754459E+02  0.12174568823E+03  0.00000000000E+00 0. -1.
         22    1    3    3    0    0 -0.94174139034E+02 -0.47089449323E+02 -0.34082386144E+03  0.35671709971E+03  0.00000000000E+00 0. -1.
         22    1    3    3    0    0  0.10819490877E+01 -0.48260870865E+01  0.10829245012E+02  0.11905220616E+02  0.00000000000E+00 0. -1.
</event>
<event>
 7    1  0.5593520E-006  0.6313742E+02  0.7818608E-02  0.1399828E+00
          2   -1    0    0  502    0  0.00000000000E+00  0.00000000000E+00  0.16601513013E+03  0.16601513013E+03  0.00000000000E+00 0. -1.
          1   -1    0    0  501    0 -0.00000000000E+00 -0.00000000000E+00 -0.15665856487E+04  0.15665856487E+04  0.00000000000E+00 0. -1.
         25    2    1    2    0    0 -0.15876347340E+01  0.35815502357E+02 -0.19732547372E+03  0.23632043830E+03  0.12499894474E+03 0.  0.
          2    1    1    2  501    0  0.56111628858E+02 -0.11283317444E+01 -0.13420220158E+04  0.13431950264E+04  0.00000000000E+00 0. -1.
          1    1    1    2  502    0 -0.54523994124E+02 -0.34687170612E+02  0.13877697094E+03  0.15308531414E+03  0.00000000000E+00 0. -1.
         22    1    3    3    0    0  0.26612614855E+02  0.41456952790E+02 -0.20134297281E+03  0.20728218183E+03  0.00000000000E+00 0. -1.
         22    1    3    3    0    0 -0.28200249589E+02 -0.56414504334E+01  0.40174990903E+01  0.29038256470E+02  0.00000000000E+00 0. -1.
</event>
<event>
 7    1  0.5593520E-006  0.1214823E+03  0.7818608E-02  0.1268365E+00
          2   -1    0    0  502    0  0.00000000000E+00  0.00000000000E+00  0.11413186177E+04  0.11413186177E+04  0.00000000000E+00 0. -1.
          1   -1    0    0  501    0 -0.00000000000E+00 -0.00000000000E+00 -0.45224699547E+03  0.45224699547E+03  0.00000000000E+00 0. -1.
         25    2    1    2    0    0  0.73830179500E+02 -0.35200010370E+02  0.71756451973E+03  0.73294582191E+03  0.12498320585E+03 0.  0.
          2    1    1    2  501    0 -0.32678484447E+02  0.11782830137E+03 -0.43082143677E+03  0.44783758477E+03  0.00000000000E+00 0. -1.
          1    1    1    2  502    0 -0.41151695053E+02 -0.82628290999E+02  0.40232853930E+03  0.41278220651E+03  0.00000000000E+00 0. -1.
         22    1    3    3    0    0  0.41363340243E+02  0.31453159502E+02  0.11957672686E+03  0.13037952587E+03  0.00000000000E+00 0. -1.
         22    1    3    3    0    0  0.32466839257E+02 -0.66653169872E+02  0.59798779287E+03  0.60256629604E+03  0.00000000000E+00 0. -1.
</event>
<event>
 7    1  0.5593520E-006  0.3429338E+02  0.7818608E-02  0.1565544E+00
          2   -1    0    0  502    0  0.00000000000E+00  0.00000000000E+00  0.14522584918E+04  0.14522584918E+04  0.00000000000E+00 0. -1.
          1   -1    0    0  501    0 -0.00000000000E+00 -0.00000000000E+00 -0.35406879793E+03  0.35406879793E+03  0.00000000000E+00 0. -1.
         25    2    1    2    0    0  0.52628777777E+02  0.79440290905E+01 -0.12854065592E+03  0.18703042347E+03  0.12499913291E+03 0.  0.
          2    1    1    2  501    0 -0.30265910918E+02  0.15042993026E+02 -0.19464610619E+03  0.19755865877E+03  0.00000000000E+00 0. -1.
          1    1    1    2  502    0 -0.22362866860E+02 -0.22987022117E+02  0.14213764560E+04  0.14217382075E+04  0.00000000000E+00 0. -1.
         22    1    3    3    0    0  0.18763116981E+02  0.53410885639E+02 -0.11583875915E+03  0.12893174700E+03  0.00000000000E+00 0. -1.
         22    1    3    3    0    0  0.33865660796E+02 -0.45466856549E+02 -0.12701896775E+02  0.58098676467E+02  0.00000000000E+00 0. -1.
</event>
<event>
 7    1  0.5593520E-006  0.7214890E+02  0.7818608E-02  0.1453524E+00
          2   -1    0    0  502    0  0.00000000000E+00  0.00000000000E+00  0.57430691086E+03  0.57430691086E+03  0.00000000000E+00 0. -1.
          1   -1    0    0  501    0 -0.00000000000E+00 -0.00000000000E+00 -0.11679810531E+04  0.11679810531E+04  0.00000000000E+00 0. -1.
         25    2    1    2    0    0  0.58076477111E+02  0.24047204180E+02 -0.13149381371E+02  0.14053258463E+03  0.12500142356E+03 0.  0.
          2    1    1    2  501    0 -0.10490807226E+02  0.30888875030E+02 -0.10883081530E+04  0.10887969579E+04  0.00000000000E+00 0. -1.
          1    1    1    2  502    0 -0.47585669885E+02 -0.54936079211E+02  0.50778339214E+03  0.51295842143E+03  0.00000000000E+00 0. -1.
         22    1    3    3    0    0 -0.94199653741E+01  0.18244037642E+02  0.46142750279E+02  0.50504792450E+02  0.00000000000E+00 0. -1.
         22    1    3    3    0    0  0.67496442485E+02  0.58031665388E+01 -0.59292131650E+02  0.90027792185E+02  0.00000000000E+00 0. -1.
</event>
<event>
 7    1  0.5593520E-006  0.1082465E+03  0.7818608E-02  0.1308087E+00
          2   -1    0    0  502    0  0.00000000000E+00  0.00000000000E+00  0.10700935337E+04  0.10700935337E+04  0.00000000000E+00 0. -1.
          1   -1    0    0  501    0 -0.00000000000E+00 -0.00000000000E+00 -0.53598324281E+03  0.53598324281E+03  0.00000000000E+00 0. -1.
         25    2    1    2    0    0  0.11196325359E+03  0.10762793053E+03 -0.13252951614E+03  0.23939303356E+03  0.12500164112E+03 0.  0.
          2    1    1    2  501    0 -0.10842942601E+02 -0.70504118625E+02 -0.34349399194E+03  0.35082263702E+03  0.00000000000E+00 0. -1.
          1    1    1    2  502    0 -0.10112031098E+03 -0.37123811903E+02  0.10101337989E+04  0.10158611059E+04  0.00000000000E+00 0. -1.
         22    1    3    3    0    0 -0.63205148010E+01  0.44073214887E+02 -0.86781875062E+02  0.97537126352E+02  0.00000000000E+00 0. -1.
         22    1    3    3    0    0  0.11828376839E+03  0.63554715642E+02 -0.45747641082E+02  0.14185590720E+03  0.00000000000E+00 0. -1.
</event>
<event>
 7    1  0.5593520E-006  0.1136795E+03  0.7818608E-02  0.1359855E+00
          2   -1    0    0  502    0  0.00000000000E+00  0.00000000000E+00  0.34502131801E+03  0.34502131801E+03  0.00000000000E+00 0. -1.
          1   -1    0    0  501    0 -0.00000000000E+00 -0.00000000000E+00 -0.87144408093E+03  0.87144408093E+03  0.00000000000E+00 0. -1.
         25    2    1    2    0    0  0.14557963764E+03  0.13615630160E+02 -0.37895111369E+03  0.42497942247E+03  0.12499898671E+03 0.  0.
          2    1    1    2  501    0 -0.37941778557E+02  0.20634500636E+02 -0.45852688184E+03  0.46055647052E+03  0.00000000000E+00 0. -1.
          1    1    1    2  502    0 -0.10763785908E+03 -0.34250130796E+02  0.31105523261E+03  0.33092950594E+03  0.00000000000E+00 0. -1.
         22    1    3    3    0    0  0.14414402201E+03  0.11880872629E+02 -0.20430161893E+03  0.25031541246E+03  0.00000000000E+00 0.  1.
         22    1    3    3    0    0  0.14356156357E+01  0.17347575312E+01 -0.17464949476E+03  0.17466401002E+03  0.00000000000E+00 0.  1.
</event>
<event>
 7    1  0.5593520E-006  0.2631581E+03  0.7818608E-02  0.1278893E+00
          2   -1    0    0  502    0  0.00000000000E+00  0.00000000000E+00  0.10981863001E+04  0.10981863001E+04  0.00000000000E+00 0. -1.
          1   -1    0    0  501    0 -0.00000000000E+00 -0.00000000000E+00 -0.62566304625E+03  0.62566304625E+03  0.00000000000E+00 0. -1.
         25    2    1    2    0    0 -0.21939673318E+03  0.17346329550E+03 -0.37103643679E+03  0.48116201679E+03  0.12499763023E+03 0.  0.
          2    1    1    2  501    0  0.18796568206E+03 -0.15121030791E+03 -0.12613814726E+03  0.27222506690E+03  0.00000000000E+00 0. -1.
          1    1    1    2  502    0  0.31431051119E+02 -0.22252987590E+02  0.96969783794E+03  0.97046226271E+03  0.00000000000E+00 0. -1.
         22    1    3    3    0    0 -0.78134025079E+02  0.23478919586E+02 -0.39077828020E+02  0.90461385036E+02  0.00000000000E+00 0. -1.
         22    1    3    3    0    0 -0.14126270810E+03  0.14998437591E+03 -0.33195860877E+03  0.39070063175E+03  0.00000000000E+00 0. -1.
</event>
<event>
 7    1  0.5593520E-006  0.1605915E+03  0.7818608E-02  0.1277285E+00
          2   -1    0    0  502    0  0.00000000000E+00  0.00000000000E+00  0.13399083256E+04  0.13399083256E+04  0.00000000000E+00 0. -1.
          1   -1    0    0  501    0 -0.00000000000E+00 -0.00000000000E+00 -0.12576809567E+03  0.12576809567E+03  0.00000000000E+00 0. -1.
         25    2    1    2    0    0 -0.10173240102E+03  0.32070171021E+02  0.16183544697E+03  0.23064937127E+03  0.12502177123E+03 0.  0.
          2    1    1    2  501    0 -0.59894286822E+02  0.22788760027E+02 -0.72835747117E+02  0.97013912588E+02  0.00000000000E+00 0. -1.
          1    1    1    2  502    0  0.16162668784E+03 -0.54858931048E+02  0.11251405301E+04  0.11380131375E+04  0.00000000000E+00 0. -1.
         22    1    3    3    0    0  0.20540572370E+02 -0.20142542860E+02  0.46297548684E+02  0.54507799078E+02  0.00000000000E+00 0.  1.
         22    1    3    3    0    0 -0.12227297339E+03  0.52212713881E+02  0.11553789829E+03  0.17614157219E+03  0.00000000000E+00 0.  1.
</event>
<event>
 7    1  0.5593520E-006  0.5499570E+02  0.7818608E-02  0.1479712E+00
          2   -1    0    0  502    0  0.00000000000E+00  0.00000000000E+00  0.12699877296E+04  0.12699877296E+04  0.00000000000E+00 0. -1.
          1   -1    0    0  501    0 -0.00000000000E+00 -0.00000000000E+00 -0.16227487361E+02  0.16227487361E+02  0.00000000000E+00 0. -1.
         25    2    1    2    0    0  0.31334896820E+02 -0.43674771716E+01  0.59827956957E+03  0.61201627349E+03  0.12499810015E+03 0.  0.
          2    1    1    2  501    0  0.26050406401E+02  0.24035742444E+02  0.31934864823E+02  0.47709288192E+02  0.00000000000E+00 0. -1.
          1    1    1    2  502    0 -0.57385303221E+02 -0.19668265273E+02  0.62354580788E+03  0.62648965531E+03  0.00000000000E+00 0. -1.
         22    1    3    3    0    0  0.21128856746E+02 -0.59740242534E+02  0.42809155780E+03  0.43275594395E+03  0.00000000000E+00 0. -1.
         22    1    3    3    0    0  0.10206040074E+02  0.55372765362E+02  0.17018801177E+03  0.17926032955E+03  0.00000000000E+00 0. -1.
</event>
<event>
 7    1  0.5593520E-006  0.5576496E+02  0.7818608E-02  0.1438319E+00
          2   -1    0    0  502    0  0.00000000000E+00  0.00000000000E+00  0.66724320201E+03  0.66724320201E+03  0.00000000000E+00 0. -1.
          1   -1    0    0  501    0 -0.00000000000E+00 -0.00000000000E+00 -0.36496596404E+03  0.36496596404E+03  0.00000000000E+00 0. -1.
         25    2    1    2    0    0 -0.36370248271E+02  0.83785417672E+02  0.23503977785E+03  0.28144555893E+03  0.12500045717E+03 0.  0.
          2    1    1    2  501    0 -0.14711179985E+01 -0.55507452469E+02 -0.33812693232E+03  0.34265589712E+03  0.00000000000E+00 0. -1.
          1    1    1    2  502    0  0.37841366270E+02 -0.28277965203E+02  0.40536439244E+03  0.40810771001E+03  0.00000000000E+00 0. -1.
         22    1    3    3    0    0 -0.60719149090E+02 -0.55163255300E+01  0.11144843008E+03  0.12703541822E+03  0.00000000000E+00 0.  1.
         22    1    3    3    0    0  0.24348900819E+02  0.89301743202E+02  0.12359134777E+03  0.15441014071E+03  0.00000000000E+00 0.  1.
</event>
<event>
 7    1  0.5593520E-006  0.5952229E+02  0.7818608E-02  0.1403189E+00
          2   -1    0    0  502    0  0.00000000000E+00  0.00000000000E+00  0.41517550004E+04  0.41517550004E+04  0.00000000000E+00 0. -1.
          1   -1    0    0  501    0 -0.00000000000E+00 -0.00000000000E+00 -0.31539730029E+02  0.31539730029E+02  0.00000000000E+00 0. -1.
         25    2    1    2    0    0  0.29512317305E+02  0.25392555572E+02  0.25569547866E+03  0.28725999714E+03  0.12498947716E+03 0.  0.
          2    1    1    2  501    0 -0.48526119463E+02  0.31716536082E+02  0.38612008508E+02  0.69653500502E+02  0.00000000000E+00 0. -1.
          1    1    1    2  502    0  0.19013802157E+02 -0.57109091655E+02  0.38259077832E+04  0.38263812328E+04  0.00000000000E+00 0. -1.
         22    1    3    3    0    0 -0.47717314874E+02 -0.26105145320E+01  0.77664122847E+02  0.91189214836E+02  0.00000000000E+00 0. -1.
         22    1    3    3    0    0  0.77229632179E+02  0.28003070104E+02  0.17803135581E+03  0.19607078230E+03  0.00000000000E+00 0. -1.
</event>
<event>
 7    1  0.5593520E-006  0.1329219E+03  0.7818608E-02  0.1290614E+00
          2   -1    0    0  502    0  0.00000000000E+00  0.00000000000E+00  0.12541362497E+04  0.12541362497E+04  0.00000000000E+00 0. -1.
          1   -1    0    0  501    0 -0.00000000000E+00 -0.00000000000E+00 -0.83034806732E+02  0.83034806732E+02  0.00000000000E+00 0. -1.
         25    2    1    2    0    0 -0.11826584551E+03  0.11962549866E+03  0.47742287667E+03  0.52139748124E+03  0.12500264053E+03 0.  0.
          2    1    1    2  501    0  0.68157626779E+02 -0.36420372420E+01 -0.34664741865E+02  0.76553059064E+02  0.00000000000E+00 0. -1.
          1    1    1    2  502    0  0.50108218727E+02 -0.11598346142E+03  0.72834330814E+03  0.73922051609E+03  0.00000000000E+00 0. -1.
         22    1    3    3    0    0 -0.67285906726E+02  0.14713420278E+02  0.72463484331E+02  0.99974169372E+02  0.00000000000E+00 0. -1.
         22    1    3    3    0    0 -0.50979938779E+02  0.10491207838E+03  0.40495939233E+03  0.42142331187E+03  0.00000000000E+00 0. -1.
</event>
<event>
 7    1  0.5593520E-006  0.4075966E+02  0.7818608E-02  0.1564146E+00
          2   -1    0    0  502    0  0.00000000000E+00  0.00000000000E+00  0.19486951330E+04  0.19486951330E+04  0.00000000000E+00 0. -1.
          1   -1    0    0  501    0 -0.00000000000E+00 -0.00000000000E+00 -0.98142342531E+03  0.98142342531E+03  0.00000000000E+00 0. -1.
         25    2    1    2    0    0 -0.89740716754E+01  0.18071900165E+02 -0.56596670230E+03  0.57995584443E+03  0.12499338318E+03 0.  0.
          2    1    1    2  501    0  0.33919501098E+02 -0.28967804993E+02 -0.40714862308E+03  0.40958475015E+03  0.00000000000E+00 0. -1.
          1    1    1    2  502    0 -0.24945429423E+02  0.10895904828E+02  0.19403870331E+04  0.19405779637E+04  0.00000000000E+00 0. -1.
         22    1    3    3    0    0  0.24358863924E+02  0.64774963668E+02 -0.30316575787E+03  0.31096402833E+03  0.00000000000E+00 0. -1.
         22    1    3    3    0    0 -0.33332935599E+02 -0.46703063504E+02 -0.26280094443E+03  0.26899181610E+03  0.00000000000E+00 0. -1.
</event>
<event>
 7    1  0.5593520E-006  0.6028849E+02  0.7818608E-02  0.1409755E+00
          2   -1    0    0  502    0  0.00000000000E+00  0.00000000000E+00  0.10879093832E+04  0.10879093832E+04  0.00000000000E+00 0. -1.
          1   -1    0    0  501    0 -0.00000000000E+00 -0.00000000000E+00 -0.50497053924E+02  0.50497053924E+02  0.00000000000E+00 0. -1.
         25    2    1    2    0    0  0.15546600494E+02 -0.53696503232E+02  0.66264622909E+03  0.67664543506E+03  0.12499603441E+03 0.  0.
          2    1    1    2  501    0  0.44862901031E+02  0.40274339140E+02 -0.18961482498E+02  0.63200000796E+02  0.00000000000E+00 0. -1.
          1    1    1    2  502    0 -0.60409501524E+02  0.13422164092E+02  0.39372758268E+03  0.39856100126E+03  0.00000000000E+00 0. -1.
         22    1    3    3    0    0  0.58626925745E+02 -0.22299544538E+02  0.17142453488E+03  0.18253974161E+03  0.00000000000E+00 0. -1.
         22    1    3    3    0    0 -0.43080325252E+02 -0.31396958694E+02  0.49122169421E+03  0.49410569345E+03  0.00000000000E+00 0. -1.
</event>
<event>
 7    1  0.5593520E-006  0.9628920E+02  0.7818608E-02  0.1301344E+00
          2   -1    0    0  502    0  0.00000000000E+00  0.00000000000E+00  0.51342036959E+03  0.51342036959E+03  0.00000000000E+00 0. -1.
          1   -1    0    0  501    0 -0.00000000000E+00 -0.00000000000E+00 -0.31822894441E+03  0.31822894441E+03  0.00000000000E+00 0. -1.
         25    2    1    2    0    0 -0.51309549217E+02  0.11661418698E+02  0.51857115240E+02  0.14519781138E+03  0.12499834199E+03 0.  0.
          2    1    1    2  501    0 -0.29035937650E+02 -0.80200282230E+02 -0.25785454459E+03  0.27159553957E+03  0.00000000000E+00 0. -1.
          1    1    1    2  502    0  0.80345486866E+02  0.68538863532E+02  0.40118885454E+03  0.41485596305E+03  0.00000000000E+00 0. -1.
         22    1    3    3    0    0  0.77259485311E+01 -0.39657270317E+02 -0.14188676613E+02  0.42821815862E+02  0.00000000000E+00 0. -1.
         22    1    3    3    0    0 -0.59035497748E+02  0.51318689015E+02  0.66045791852E+02  0.10237599552E+03  0.00000000000E+00 0. -1.
</event>
<event>
 7    1  0.5593520E-006  0.1353463E+03  0.7818608E-02  0.1337319E+00
          2   -1    0    0  502    0  0.00000000000E+00  0.00000000000E+00  0.18732521181E+04  0.18732521181E+04  0.00000000000E+00 0. -1.
          1   -1    0    0  501    0 -0.00000000000E+00 -0.00000000000E+00 -0.12344588942E+04  0.12344588942E+04  0.00000000000E+00 0. -1.
         25    2    1    2    0    0  0.61032585263E+02  0.15386290658E+03 -0.62806679479E+02  0.21672194391E+03  0.12499980600E+03 0.  0.
          2    1    1    2  501    0  0.13900006131E+02 -0.41730634226E+02 -0.10917197111E+04  0.10926054108E+04  0.00000000000E+00 0. -1.
          1    1    1    2  502    0 -0.74932591394E+02 -0.11213227236E+03  0.17933196146E+04  0.17983836575E+04  0.00000000000E+00 0. -1.
         22    1    3    3    0    0  0.50125735981E+02  0.13128958914E+03  0.88448142389E+01  0.14081113722E+03  0.00000000000E+00 0. -1.
         22    1    3    3    0    0  0.10906849282E+02  0.22573317439E+02 -0.71651493718E+02  0.75910806697E+02  0.00000000000E+00 0. -1.
</event>
<event>
 7    1  0.5593520E-006  0.8272867E+02  0.7818608E-02  0.1382172E+00
          2   -1    0    0  502    0  0.00000000000E+00  0.00000000000E+00  0.12954112230E+04  0.12954112230E+04  0.00000000000E+00 0. -1.
          1   -1    0    0  501    0 -0.00000000000E+00 -0.00000000000E+00 -0.29915839004E+03  0.29915839004E+03  0.00000000000E+00 0. -1.
         25    2    1    2    0    0 -0.10737848309E+03 -0.61063110004E+02 -0.38033586513E+02  0.17980597226E+03  0.12499916769E+03 0.  0.
          2    1    1    2  501    0  0.58950555115E+02  0.51562778574E+02 -0.18165602206E+03  0.19782011636E+03  0.00000000000E+00 0. -1.
          1    1    1    2  502    0  0.48427927971E+02  0.95003314295E+01  0.12159424416E+04  0.12169435245E+04  0.00000000000E+00 0. -1.
         22    1    3    3    0    0 -0.10312383869E+03 -0.92910433663E+02 -0.46832206624E+02  0.14649276558E+03  0.00000000000E+00 0. -1.
         22    1    3    3    0    0 -0.42546443905E+01  0.31847323659E+02  0.87986201101E+01  0.33313206675E+02  0.00000000000E+00 0. -1.
</event>
<event>
 7    1  0.5593520E-006  0.5774182E+02  0.7818608E-02  0.1541788E+00
          2   -1    0    0  502    0  0.00000000000E+00  0.00000000000E+00  0.18997342907E+03  0.18997342907E+03  0.00000000000E+00 0. -1.
          1   -1    0    0  501    0 -0.00000000000E+00 -0.00000000000E+00 -0.13415897299E+03  0.13415897299E+03  0.00000000000E+00 0. -1.
         25    2    1    2    0    0 -0.71895494911E+02  0.14884413671E+01 -0.27679185253E+02  0.14684204887E+03  0.12500108949E+03 0.  0.
          2    1    1    2  501    0  0.53231422488E+02  0.10476982651E+02 -0.29765561152E+02  0.61881662359E+02  0.00000000000E+00 0. -1.
          1    1    1    2  502    0  0.18664072423E+02 -0.11965424018E+02  0.11325920248E+03  0.11540869083E+03  0.00000000000E+00 0. -1.
         22    1    3    3    0    0 -0.10625907617E+03  0.23463234298E+01 -0.34605813426E+02  0.11177682598E+03  0.00000000000E+00 0.  1.
         22    1    3    3    0    0  0.34363581260E+02 -0.85788206273E+00  0.69266281725E+01  0.35065222892E+02  0.00000000000E+00 0.  1.
</event>
<event>
 7    1  0.5593520E-006  0.1537426E+03  0.7818608E-02  0.1347205E+00
          2   -1    0    0  502    0  0.00000000000E+00  0.00000000000E+00  0.12302195756E+03  0.12302195756E+03  0.00000000000E+00 0. -1.
          1   -1    0    0  501    0 -0.00000000000E+00 -0.00000000000E+00 -0.17066150952E+04  0.17066150952E+04  0.00000000000E+00 0. -1.
         25    2    1    2    0    0 -0.12942876345E+03 -0.14981128798E+02 -0.62879479506E+03  0.65420494698E+03  0.12499991729E+03 0.  0.
          2    1    1    2  501    0  0.16498216765E+03  0.15206254771E+02 -0.10556107962E+04  0.10685338081E+04  0.00000000000E+00 0. -1.
          1    1    1    2  502    0 -0.35553404198E+02 -0.22512597359E+00  0.10081245369E+03  0.10689829770E+03  0.00000000000E+00 0. -1.
         22    1    3    3    0    0 -0.13213398402E+01 -0.10877368693E+00 -0.31417791399E+03  0.31418071139E+03  0.00000000000E+00 0. -1.
         22    1    3    3    0    0 -0.12810742361E+03 -0.14872355111E+02 -0.31461688107E+03  0.34002423558E+03  0.00000000000E+00 0. -1.
</event>
<event>
 7    1  0.5593520E-006  0.1269516E+03  0.7818608E-02  0.1316996E+00
          2   -1    0    0  502    0  0.00000000000E+00  0.00000000000E+00  0.27368019676E+03  0.27368019676E+03  0.00000000000E+00 0. -1.
          1   -1    0    0  501    0 -0.00000000000E+00 -0.00000000000E+00 -0.54519695250E+03  0.54519695250E+03  0.00000000000E+00 0. -1.
         25    2    1    2    0    0 -0.71289981014E+02  0.54631364531E+02 -0.15680414931E+03  0.21972760556E+03  0.12500332804E+03 0.  0.
          2    1    1    2  501    0  0.12350703674E+03 -0.75186580087E+02 -0.33868244171E+03  0.36825644091E+03  0.00000000000E+00 0. -1.
          1    1    1    2  502    0 -0.52217055727E+02  0.20555215556E+02  0.22396983528E+03  0.23089310278E+03  0.00000000000E+00 0. -1.
         22    1    3    3    0    0 -0.52166517243E+02 -0.19803858305E+02 -0.13955579049E+02  0.57517793001E+02  0.00000000000E+00 0. -1.
         22    1    3    3    0    0 -0.19123463771E+02  0.74435222836E+02 -0.14284857026E+03  0.16220981256E+03  0.00000000000E+00 0. -1.
</event>
<event>
 7    1  0.5593520E-006  0.5984909E+02  0.7818608E-02  0.1502771E+00
          2   -1    0    0  502    0  0.00000000000E+00  0.00000000000E+00  0.46006258875E+02  0.46006258875E+02  0.00000000000E+00 0. -1.
          1   -1    0    0  501    0 -0.00000000000E+00 -0.00000000000E+00 -0.12990696071E+04  0.12990696071E+04  0.00000000000E+00 0. -1.
         25    2    1    2    0    0 -0.61984591668E+02  0.14153736215E+02 -0.34359418261E+03  0.37110882754E+03  0.12498952634E+03 0.  0.
          2    1    1    2  501    0  0.58491598033E+02  0.13369863158E+02 -0.93460538955E+03  0.93652936657E+03  0.00000000000E+00 0. -1.
          1    1    1    2  502    0  0.34929936345E+01 -0.27523599373E+02  0.25136223889E+02  0.37437671914E+02  0.00000000000E+00 0. -1.
         22    1    3    3    0    0  0.22131855718E+01  0.30573887264E+02 -0.27135484786E+03  0.27308078334E+03  0.00000000000E+00 0.  1.
         22    1    3    3    0    0 -0.64197777240E+02 -0.16420151050E+02 -0.72239334754E+02  0.98028044195E+02  0.00000000000E+00 0.  1.
</event>
<event>
 7    1  0.5593520E-006  0.1372400E+03  0.7818608E-02  0.1345700E+00
          2   -1    0    0  502    0  0.00000000000E+00  0.00000000000E+00  0.45511610836E+03  0.45511610836E+03  0.00000000000E+00 0. -1.
          1   -1    0    0  501    0 -0.00000000000E+00 -0.00000000000E+00 -0.19692065453E+03  0.19692065453E+03  0.00000000000E+00 0. -1.
         25    2    1    2    0    0  0.12565132543E+03  0.11719834599E+03  0.53124600417E+02  0.21901985113E+03  0.12499505645E+03 0.  0.
          2    1    1    2  501    0 -0.28407978199E+02 -0.28650947926E+02 -0.96184835492E+02  0.10430442283E+03  0.00000000000E+00 0. -1.
          1    1    1    2  502    0 -0.97243347233E+02 -0.88547398060E+02  0.30125568890E+03  0.32871248893E+03  0.00000000000E+00 0. -1.
         22    1    3    3    0    0 -0.23400973088E+02  0.94743626443E+00  0.46516790403E+01  0.23877631684E+02  0.00000000000E+00 0. -1.
         22    1    3    3    0    0  0.14905229852E+03  0.11625090972E+03  0.48472921377E+02  0.19514221945E+03  0.00000000000E+00 0. -1.
</event>
<event>
 7    1  0.5593520E-006  0.1051172E+03  0.7818608E-02  0.1450375E+00
          2   -1    0    0  502    0  0.00000000000E+00  0.00000000000E+00  0.10862060111E+04  0.10862060111E+04  0.00000000000E+00 0. -1.
          1   -1    0    0  501    0 -0.00000000000E+00 -0.00000000000E+00 -0.59794147857E+03  0.59794147857E+03  0.00000000000E+00 0. -1.
         25    2    1    2    0    0 -0.11209553154E+03  0.48221113014E+02 -0.26152864169E+03  0.31450267814E+03  0.12499608074E+03 0.  0.
          2    1    1    2  501    0  0.22143948765E+02  0.58930735263E+01 -0.30689797180E+03  0.30775225081E+03  0.00000000000E+00 0. -1.
          1    1    1    2  502    0  0.89951582773E+02 -0.54114186541E+02  0.10566911460E+04  0.10618925607E+04  0.00000000000E+00 0. -1.
         22    1    3    3    0    0 -0.13308504935E+03  0.51978758693E+02 -0.25483315880E+03  0.29215297456E+03  0.00000000000E+00 0.  1.
         22    1    3    3    0    0  0.20989517814E+02 -0.37576456786E+01 -0.66954828903E+01  0.22349703583E+02  0.00000000000E+00 0.  1.
</event>
<event>
 7    1  0.5593520E-006  0.6028186E+02  0.7818608E-02  0.1415377E+00
          2   -1    0    0  502    0  0.00000000000E+00  0.00000000000E+00  0.20043574144E+04  0.20043574144E+04  0.00000000000E+00 0. -1.
          1   -1    0    0  501    0 -0.00000000000E+00 -0.00000000000E+00 -0.67628182898E+03  0.67628182898E+03  0.00000000000E+00 0. -1.
         25    2    1    2    0    0  0.64629762208E+02  0.45481125586E+02  0.42762016705E+03  0.45247026221E+03  0.12499916786E+03 0.  0.
          2    1    1    2  501    0 -0.59948688757E+02  0.63507783186E+01 -0.66205407207E+03  0.66479302945E+03  0.00000000000E+00 0. -1.
          1    1    1    2  502    0 -0.46810734513E+01 -0.51831903904E+02  0.15625094905E+04  0.15633759517E+04  0.00000000000E+00 0. -1.
         22    1    3    3    0    0  0.66919934469E+02  0.62820479000E+02  0.16137909266E+03  0.18565533054E+03  0.00000000000E+00 0. -1.
         22    1    3    3    0    0 -0.22901722610E+01 -0.17339353414E+02  0.26624107439E+03  0.26681493166E+03  0.00000000000E+00 0. -1.
</event>
<event>
 7    1  0.5593520E-006  0.1001749E+03  0.7818608E-02  0.1341342E+00
          2   -1    0    0  502    0  0.00000000000E+00  0.00000000000E+00  0.49040405619E+03  0.49040405619E+03  0.00000000000E+00 0. -1.
          1   -1    0    0  501    0 -0.00000000000E+00 -0.00000000000E+00 -0.40618583774E+03  0.40618583774E+03  0.00000000000E+00 0. -1.
         25    2    1    2    0    0 -0.96211881898E+02 -0.79423847428E+02  0.19953235093E+03  0.26646309764E+03  0.12499819829E+03 0.  0.
          2    1    1    2  501    0  0.56794509109E+02 -0.82490538675E+01 -0.36140221927E+03  0.36593063175E+03  0.00000000000E+00 0. -1.
          1    1    1    2  502    0  0.39417372789E+02  0.87672901295E+02  0.24608808680E+03  0.26419616455E+03  0.00000000000E+00 0. -1.
         22    1    3    3    0    0 -0.33343078400E+02 -0.51704606089E+02  0.68580079361E+01  0.61904437974E+02  0.00000000000E+00 0.  1.
         22    1    3    3    0    0 -0.62868803498E+02 -0.27719241338E+02  0.19267434300E+03  0.20455865966E+03  0.00000000000E+00 0.  1.
</event>
<event>
 7    1  0.5593520E-006  0.4059266E+02  0.7818608E-02  0.1515389E+00
          2   -1    0    0  502    0  0.00000000000E+00  0.00000000000E+00  0.67181586213E+03  0.67181586213E+03  0.00000000000E+00 0. -1.
          1   -1    0    0  501    0 -0.00000000000E+00 -0.00000000000E+00 -0.93826291895E+03  0.93826291895E+03  0.00000000000E+00 0. -1.
         25    2    1    2    0    0  0.74015458207E+02 -0.11059989633E+01 -0.98084959259E+02  0.17528266134E+03  0.12499536330E+03 0.  0.
          2    1    1    2  501    0 -0.38576293967E+02 -0.11302804839E+02 -0.80051769878E+03  0.80152633763E+03  0.00000000000E+00 0. -1.
          1    1    1    2  502    0 -0.35439164240E+02  0.12408803803E+02  0.63215560123E+03  0.63326978211E+03  0.00000000000E+00 0. -1.
         22    1    3    3    0    0  0.77859088141E+02 -0.39241288151E+02 -0.21742994324E+02  0.89859190427E+02  0.00000000000E+00 0. -1.
         22    1    3    3    0    0 -0.38436299341E+01  0.38135289188E+02 -0.76341964935E+02  0.85423470912E+02  0.00000000000E+00 0. -1.
</event>
<event>
 7    1  0.5593520E-006  0.9642578E+02  0.7818608E-02  0.1433661E+00
          2   -1    0    0  502    0  0.00000000000E+00  0.00000000000E+00  0.22364116041E+02  0.22364116041E+02  0.00000000000E+00 0. -1.
          1   -1    0    0  501    0 -0.00000000000E+00 -0.00000000000E+00 -0.13808144226E+04  0.13808144226E+04  0.00000000000E+00 0. -1.
         25    2    1    2    0    0  0.71290590860E+02  0.41892530381E+02 -0.76595814422E+03  0.78048348747E+03  0.12500105226E+03 0.  0.
          2    1    1    2  501    0 -0.99207402442E+02 -0.37293570336E+02 -0.58344121871E+03  0.59298952333E+03  0.00000000000E+00 0. -1.
          1    1    1    2  502    0  0.27916811582E+02 -0.45989600446E+01 -0.90509435925E+01  0.29705527807E+02  0.00000000000E+00 0. -1.
         22    1    3    3    0    0  0.23661084437E+02  0.55658831818E+02 -0.66762337516E+03  0.67035716117E+03  0.00000000000E+00 0.  1.
         22    1    3    3    0    0  0.47629506423E+02 -0.13766301437E+02 -0.98334769065E+02  0.11012632630E+03  0.00000000000E+00 0.  1.
</event>
<event>
 7    1  0.5593520E-006  0.8224860E+02  0.7818608E-02  0.1429952E+00
          2   -1    0    0  502    0  0.00000000000E+00  0.00000000000E+00  0.18894313211E+04  0.18894313211E+04  0.00000000000E+00 0. -1.
          1   -1    0    0  501    0 -0.00000000000E+00 -0.00000000000E+00 -0.59996565822E+02  0.59996565822E+02  0.00000000000E+00 0. -1.
         25    2    1    2    0    0 -0.49732793074E+02 -0.43105294562E+02  0.11494180618E+04  0.11580662370E+04  0.12499644542E+03 0.  0.
          2    1    1    2  501    0 -0.34096857323E+02 -0.10643981173E+01 -0.47067156318E+02  0.58129560694E+02  0.00000000000E+00 0. -1.
          1    1    1    2  502    0  0.83829650397E+02  0.44169692679E+02  0.72708384986E+03  0.73323208929E+03  0.00000000000E+00 0. -1.
         22    1    3    3    0    0 -0.22631753351E+01 -0.76307163015E+02  0.46749532431E+03  0.47368743211E+03  0.00000000000E+00 0. -1.
         22    1    3    3    0    0 -0.47469617739E+02  0.33201868453E+02  0.68192273747E+03  0.68437880487E+03  0.00000000000E+00 0. -1.
</event>
<event>
 7    1  0.5593520E-006  0.9147581E+02  0.7818608E-02  0.1349615E+00
          2   -1    0    0  502    0  0.00000000000E+00  0.00000000000E+00  0.12266371568E+04  0.12266371568E+04  0.00000000000E+00 0. -1.
          1   -1    0    0  501    0 -0.00000000000E+00 -0.00000000000E+00 -0.16189639050E+03  0.16189639050E+03  0.00000000000E+00 0. -1.
         25    2    1    2    0    0 -0.45213674434E+02 -0.44822944074E+02  0.26951517806E+02  0.14284502844E+03  0.12499978067E+03 0.  0.
          2    1    1    2  501    0 -0.47076816760E+02  0.34789238204E+02 -0.93654248259E+02  0.11044290827E+03  0.00000000000E+00 0. -1.
          1    1    1    2  502    0  0.92290491194E+02  0.10033705870E+02  0.11314434968E+04  0.11352456106E+04  0.00000000000E+00 0. -1.
         22    1    3    3    0    0  0.13750013330E+02 -0.65712968806E+02  0.41089842887E+02  0.78712339086E+02  0.00000000000E+00 0. -1.
         22    1    3    3    0    0 -0.58963687764E+02  0.20890024733E+02 -0.14138325082E+02  0.64132689357E+02  0.00000000000E+00 0. -1.
</event>
<event>
 7    1  0.5593520E-006  0.8674727E+02  0.7818608E-02  0.1423783E+00
          2   -1    0    0  502    0  0.00000000000E+00  0.00000000000E+00  0.38534067224E+03  0.38534067224E+03  0.00000000000E+00 0. -1.
          1   -1    0    0  501    0 -0.00000000000E+00 -0.00000000000E+00 -0.26899653634E+03  0.26899653634E+03  0.00000000000E+00 0. -1.
         25    2    1    2    0    0  0.54619237517E+02 -0.65671860854E+02  0.10534309182E+03  0.18443965179E+03  0.12499905497E+03 0.  0.
          2    1    1    2  501    0 -0.25673058246E+02  0.83316243131E+02 -0.21988412947E+03  0.23653695839E+03  0.00000000000E+00 0. -1.
          1    1    1    2  502    0 -0.28946179271E+02 -0.17644382277E+02  0.23088517355E+03  0.23336059840E+03  0.00000000000E+00 0. -1.
         22    1    3    3    0    0 -0.30437109841E+02 -0.24945080125E+02 -0.45671032998E+01  0.39617333460E+02  0.00000000000E+00 0. -1.
         22    1    3    3    0    0  0.85056347358E+02 -0.40726780729E+02  0.10991019512E+03  0.14482231833E+03  0.00000000000E+00 0. -1.
</event>
<event>
 7    1  0.5593520E-006  0.5831248E+02  0.7818608E-02  0.1423624E+00
          2   -1    0    0  502    0  0.00000000000E+00  0.00000000000E+00  0.20533672838E+04  0.20533672838E+04  0.00000000000E+00 0. -1.
          1   -1    0    0  501    0 -0.00000000000E+00 -0.00000000000E+00 -0.15896552115E+04  0.15896552115E+04  0.00000000000E+00 0. -1.
         25    2    1    2    0    0  0.39612743661E+02  0.61751680400E+02  0.10478335101E+04  0.10578102044E+04  0.12499969663E+03 0.  0.
          2    1    1    2  501    0  0.10685090040E+02 -0.57327679565E+02 -0.15834928027E+04  0.15845662151E+04  0.00000000000E+00 0. -1.
          1    1    1    2  502    0 -0.50297833700E+02 -0.44240008345E+01  0.99937136487E+03  0.10006460757E+04  0.00000000000E+00 0. -1.
         22    1    3    3    0    0  0.65197386687E+02  0.84291085499E+02  0.88861051504E+03  0.89497728114E+03  0.00000000000E+00 0.  1.
         22    1    3    3    0    0 -0.25584643026E+02 -0.22539405099E+02  0.15922299508E+03  0.16283292328E+03  0.00000000000E+00 0.  1.
</event>
<event>
 7    1  0.5593520E-006  0.2484896E+03  0.7818608E-02  0.1241301E+00
          2   -1    0    0  502    0  0.00000000000E+00  0.00000000000E+00  0.21096433165E+04  0.21096433165E+04  0.00000000000E+00 0. -1.
          1   -1    0    0  501    0 -0.00000000000E+00 -0.00000000000E+00 -0.57205798549E+03  0.57205798549E+03  0.00000000000E+00 0. -1.
         25    2    1    2    0    0 -0.16032473361E+03 -0.18083274358E+03  0.28764483042E+03  0.39594108937E+03  0.12500118572E+03 0.  0.
          2    1    1    2  501    0  0.42900025888E+02 -0.40522591648E+02 -0.50731190625E+03  0.51073267262E+03  0.00000000000E+00 0. -1.
          1    1    1    2  502    0  0.11742470772E+03  0.22135533522E+03  0.17572524068E+04  0.17750275400E+04  0.00000000000E+00 0. -1.
         22    1    3    3    0    0 -0.73847467777E+02 -0.11503963497E+03  0.72087342315E+02  0.15454498061E+03  0.00000000000E+00 0.  1.
         22    1    3    3    0    0 -0.86477265835E+02 -0.65793108608E+02  0.21555748810E+03  0.24139610876E+03  0.00000000000E+00 0.  1.
</event>
<event>
 7    1  0.5593520E-006  0.5832186E+02  0.7818608E-02  0.1430595E+00
          2   -1    0    0  502    0  0.00000000000E+00  0.00000000000E+00  0.31269616183E+03  0.31269616183E+03  0.00000000000E+00 0. -1.
          1   -1    0    0  501    0 -0.00000000000E+00 -0.00000000000E+00 -0.90205952602E+02  0.90205952602E+02  0.00000000000E+00 0. -1.
         25    2    1    2    0    0 -0.27667737299E+02  0.50988039300E+02  0.20494380392E+03  0.24696621493E+03  0.12500025885E+03 0.  0.
          2    1    1    2  501    0 -0.35538321691E+02 -0.32078112774E+02 -0.44504983066E+02  0.65365672531E+02  0.00000000000E+00 0. -1.
          1    1    1    2  502    0  0.63206058990E+02 -0.18909926527E+02  0.62051388372E+02  0.90570226969E+02  0.00000000000E+00 0. -1.
         22    1    3    3    0    0  0.23938641048E+01 -0.38933523313E+02  0.35219064166E+02  0.52554089314E+02  0.00000000000E+00 0. -1.
         22    1    3    3    0    0 -0.30061601404E+02  0.89921562613E+02  0.16972473976E+03  0.19441212562E+03  0.00000000000E+00 0. -1.
</event>
<event>
 7    1  0.5593520E-006  0.2002711E+03  0.7818608E-02  0.1342744E+00
          2   -1    0    0  502    0  0.00000000000E+00  0.00000000000E+00  0.16805129404E+04  0.16805129404E+04  0.00000000000E+00 0. -1.
          1   -1    0    0  501    0 -0.00000000000E+00 -0.00000000000E+00 -0.29694019658E+03  0.29694019658E+03  0.00000000000E+00 0. -1.
         25    2    1    2    0    0 -0.18830718157E+02 -0.22537322987E+03  0.98517243073E+03  0.10184976089E+04  0.12499988964E+03 0.  0.
          2    1    1    2  501    0  0.25271567981E+02  0.19775312449E+03 -0.24447395935E+03  0.31545596712E+03  0.00000000000E+00 0. -1.
          1    1    1    2  502    0 -0.64408498244E+01  0.27620105389E+02  0.64287427239E+03  0.64349956089E+03  0.00000000000E+00 0. -1.
         22    1    3    3    0    0 -0.32309665009E+02 -0.27513845661E+00  0.14803647440E+03  0.15152157572E+03  0.00000000000E+00 0. -1.
         22    1    3    3    0    0  0.13478946852E+02 -0.22509809142E+03  0.83713595633E+03  0.86697603320E+03  0.00000000000E+00 0. -1.
</event>
<event>
 7    1  0.5593520E-006  0.3916097E+02  0.7818608E-02  0.1542041E+00
          2   -1    0    0  502    0  0.00000000000E+00  0.00000000000E+00  0.80505393622E+01  0.80505393622E+01  0.00000000000E+00 0. -1.
          1   -1    0    0  501    0 -0.00000000000E+00 -0.00000000000E+00 -0.24872561830E+04  0.24872561830E+04  0.00000000000E+00 0. -1.
         25    2    1    2    0    0  0.11424406779E+02 -0.47987746204E+02 -0.99678519057E+03  0.10058027286E+04  0.12500028777E+03 0.  0.
          2    1    1    2  501    0 -0.32026432894E+02  0.22676630101E+02 -0.14042004461E+04  0.14047486660E+04  0.00000000000E+00 0. -1.
          1    1    1    2  502    0  0.20602026115E+02  0.25311116103E+02 -0.78220006998E+02  0.84755327698E+02  0.00000000000E+00 0. -1.
         22    1    3    3    0    0 -0.55183713201E+02 -0.68343663564E+01 -0.37266279100E+03  0.37678841086E+03  0.00000000000E+00 0. -1.
         22    1    3    3    0    0  0.66608119980E+02 -0.41153379847E+02 -0.62412239957E+03  0.62901431778E+03  0.00000000000E+00 0. -1.
</event>
<event>
 7    1  0.5593520E-006  0.3964674E+03  0.7818608E-02  0.1185902E+00
          2   -1    0    0  502    0  0.00000000000E+00  0.00000000000E+00  0.40033043653E+03  0.40033043653E+03  0.00000000000E+00 0. -1.
          1   -1    0    0  501    0 -0.00000000000E+00 -0.00000000000E+00 -0.16409578655E+04  0.16409578655E+04  0.00000000000E+00 0. -1.
         25    2    1    2    0    0  0.10788721423E+03  0.37234480167E+03 -0.13759644696E+03  0.42992778711E+03  0.12499927036E+03 0.  0.
          2    1    1    2  501    0 -0.60338944303E+02  0.28202425259E+02 -0.11956502670E+04  0.11975039565E+04  0.00000000000E+00 0. -1.
          1    1    1    2  502    0 -0.47548269932E+02 -0.40054722693E+03  0.92619284962E+02  0.41385655839E+03  0.00000000000E+00 0. -1.
         22    1    3    3    0    0 -0.11841458402E+02  0.27122627457E+02 -0.43498051892E+02  0.52611192494E+02  0.00000000000E+00 0. -1.
         22    1    3    3    0    0  0.11972867264E+03  0.34522217421E+03 -0.94098395065E+02  0.37731659462E+03  0.00000000000E+00 0. -1.
</event>
<event>
 7    1  0.5593520E-006  0.7738882E+02  0.7818608E-02  0.1465570E+00
          2   -1    0    0  502    0  0.00000000000E+00  0.00000000000E+00  0.20168030755E+03  0.20168030755E+03  0.00000000000E+00 0. -1.
          1   -1    0    0  501    0 -0.00000000000E+00 -0.00000000000E+00 -0.64057304071E+03  0.64057304071E+03  0.00000000000E+00 0. -1.
         25    2    1    2    0    0  0.52678741219E+02 -0.54562779436E+02 -0.26145210273E+03  0.29955674769E+03  0.12499958557E+03 0.  0.
          2    1    1    2  501    0  0.17562128402E+02  0.21631866352E+02 -0.35125358520E+03  0.35235698817E+03  0.00000000000E+00 0. -1.
          1    1    1    2  502    0 -0.70240869621E+02  0.32930913085E+02  0.17381295477E+03  0.19033961239E+03  0.00000000000E+00 0. -1.
         22    1    3    3    0    0  0.40148339185E+02 -0.91835016740E+02 -0.14207585432E+03  0.17387095162E+03  0.00000000000E+00 0. -1.
         22    1    3    3    0    0  0.12530402034E+02  0.37272237304E+02 -0.11937624841E+03  0.12568579607E+03  0.00000000000E+00 0. -1.
</event>
<event>
 7    1  0.5593520E-006  0.4946325E+02  0.7818608E-02  0.1547786E+00
          2   -1    0    0  502    0  0.00000000000E+00  0.00000000000E+00  0.93379887342E+02  0.93379887342E+02  0.00000000000E+00 0. -1.
          1   -1    0    0  501    0 -0.00000000000E+00 -0.00000000000E+00 -0.12969189036E+04  0.12969189036E+04  0.00000000000E+00 0. -1.
         25    2    1    2    0    0  0.73479609972E+02 -0.98392423179E+00 -0.76408004964E+03  0.77771705503E+03  0.12500109693E+03 0.  0.
          2    1    1    2  501    0 -0.24394281204E+02  0.49731057685E+01 -0.51869302407E+03  0.51929015584E+03  0.00000000000E+00 0. -1.
          1    1    1    2  502    0 -0.49085328768E+02 -0.39891815367E+01  0.79234057401E+02  0.93291580123E+02  0.00000000000E+00 0. -1.
         22    1    3    3    0    0  0.54685316774E+02  0.32351039195E+02 -0.15612592463E+03  0.16855971627E+03  0.00000000000E+00 0. -1.
         22    1    3    3    0    0  0.18794293198E+02 -0.33334963427E+02 -0.60795412501E+03  0.60915733876E+03  0.00000000000E+00 0. -1.
</event>
<event>
 7    1  0.7575501E-006  0.1142941E+03  0.7818608E-02  0.1271659E+00
          2   -1    0    0  502    0  0.00000000000E+00  0.00000000000E+00  0.17031160073E+04  0.17031160073E+04  0.00000000000E+00 0. -1.
          1   -1    0    0  501    0 -0.00000000000E+00 -0.00000000000E+00 -0.49184076844E+03  0.49184076844E+03  0.00000000000E+00 0. -1.
         25    2    1    2    0    0 -0.23762256843E+02  0.90698949838E+01 -0.90822776513E+02  0.15659067444E+03  0.12499981897E+03 0.  0.
          2    1    1    2  501    0  0.20567756690E+00 -0.12091007464E+03 -0.35618570155E+03  0.37614829847E+03  0.00000000000E+00 0. -1.
          1    1    1    2  502    0  0.23556579276E+02  0.11184017966E+03  0.16582837169E+04  0.16622178028E+04  0.00000000000E+00 0. -1.
         22    1    3    3    0    0 -0.35182285310E+02 -0.45367499849E+02 -0.82260016900E+02  0.10031307802E+03  0.00000000000E+00 0. -1.
         22    1    3    3    0    0  0.11420028467E+02  0.54437394832E+02 -0.85627596131E+01  0.56277596417E+02  0.00000000000E+00 0. -1.
</event>
<event>
 7    1  0.5593520E-006  0.3200305E+02  0.7818608E-02  0.1620391E+00
          2   -1    0    0  502    0  0.00000000000E+00  0.00000000000E+00  0.56373926200E+03  0.56373926200E+03  0.00000000000E+00 0. -1.
          1   -1    0    0  501    0 -0.00000000000E+00 -0.00000000000E+00 -0.15328662386E+03  0.15328662386E+03  0.00000000000E+00 0. -1.
         25    2    1    2    0    0  0.55431979516E+01  0.50132958584E+01  0.43042440423E+03  0.44827027005E+03  0.12500082827E+03 0.  0.
          2    1    1    2  501    0 -0.23652428453E+02 -0.21707163264E+02 -0.14132637629E+03  0.14492681927E+03  0.00000000000E+00 0. -1.
          1    1    1    2  502    0  0.18109230501E+02  0.16693867406E+02  0.12135461020E+03  0.12382879655E+03  0.00000000000E+00 0. -1.
         22    1    3    3    0    0 -0.22593771711E+02  0.56269505863E+02  0.28793504904E+03  0.29425045161E+03  0.00000000000E+00 0. -1.
         22    1    3    3    0    0  0.28136969663E+02 -0.51256210004E+02  0.14248935519E+03  0.15401981843E+03  0.00000000000E+00 0. -1.
</event>
<event>
 7    1  0.5593520E-006  0.1214882E+03  0.7818608E-02  0.1262932E+00
          2   -1    0    0  502    0  0.00000000000E+00  0.00000000000E+00  0.10035327754E+04  0.10035327754E+04  0.00000000000E+00 0. -1.
          1   -1    0    0  501    0 -0.00000000000E+00 -0.00000000000E+00 -0.50179340631E+03  0.50179340631E+03  0.00000000000E+00 0. -1.
         25    2    1    2    0    0 -0.12063971690E+03 -0.34694579207E+02  0.10917810101E+03  0.20809240393E+03  0.12499974285E+03 0.  0.
          2    1    1    2  501    0  0.62002914447E+02 -0.75010519759E+02 -0.44244058545E+03  0.45301723049E+03  0.00000000000E+00 0. -1.
          1    1    1    2  502    0  0.58636802452E+02  0.10970509897E+03  0.83500185351E+03  0.84421654728E+03  0.00000000000E+00 0. -1.
         22    1    3    3    0    0 -0.13519313985E+02  0.26119896456E+02  0.74544348943E+02  0.80136638317E+02  0.00000000000E+00 0.  1.
         22    1    3    3    0    0 -0.10712040291E+03 -0.60814475662E+02  0.34633752070E+02  0.12795576561E+03  0.00000000000E+00 0.  1.
</event>
<event>
 7    1  0.5593520E-006  0.1400599E+03  0.7818608E-02  0.1275641E+00
          2   -1    0    0  502    0  0.00000000000E+00  0.00000000000E+00  0.33616393531E+04  0.33616393531E+04  0.00000000000E+00 0. -1.
          1   -1    0    0  501    0 -0.00000000000E+00 -0.00000000000E+00 -0.31660834082E+03  0.31660834082E+03  0.00000000000E+00 0. -1.
         25    2    1    2    0    0  0.34579838141E+02 -0.16771187166E+03  0.32398124084E+03  0.38718389179E+03  0.12499793817E+03 0.  0.
          2    1    1    2  501    0 -0.67268364524E+02  0.32349243989E+02 -0.27847664185E+03  0.28830668828E+03  0.00000000000E+00 0. -1.
          1    1    1    2  502    0  0.32688526382E+02  0.13536262767E+03  0.29995264133E+04  0.30027571138E+04  0.00000000000E+00 0. -1.
         22    1    3    3    0    0  0.19072719107E+02 -0.15148013706E+03  0.15808089191E+03  0.21977162903E+03  0.00000000000E+00 0.  1.
         22    1    3    3    0    0  0.15507119034E+02 -0.16231734596E+02  0.16590034893E+03  0.16741226276E+03  0.00000000000E+00 0.  1.
</event>
<event>
 7    1  0.5593520E-006  0.3715653E+02  0.7818608E-02  0.1532677E+00
          2   -1    0    0  502    0  0.00000000000E+00  0.00000000000E+00  0.24167982198E+04  0.24167982198E+04  0.00000000000E+00 0. -1.
          1   -1    0    0  501    0 -0.00000000000E+00 -0.00000000000E+00 -0.56818348716E+03  0.56818348716E+03  0.00000000000E+00 0. -1.
         25    2    1    2    0    0 -0.51246623717E+02 -0.33257341404E+02 -0.35665092240E+03  0.38282867555E+03  0.12500258868E+03 0.  0.
          2    1    1    2  501    0  0.14098522819E+02  0.33738692891E+02 -0.19661437461E+03  0.19998569961E+03  0.00000000000E+00 0. -1.
          1    1    1    2  502    0  0.37148100898E+02 -0.48135148708E+00  0.24018800296E+04  0.24021673318E+04  0.00000000000E+00 0. -1.
         22    1    3    3    0    0 -0.82252369707E+02 -0.50788541453E+02 -0.19943867130E+03  0.22163192883E+03  0.00000000000E+00 0.  1.
         22    1    3    3    0    0  0.31005745990E+02  0.17531200049E+02 -0.15721225110E+03  0.16119674673E+03  0.00000000000E+00 0.  1.
</event>
<event>
 7    1  0.5593520E-006  0.3732030E+02  0.7818608E-02  0.1598485E+00
          2   -1    0    0  502    0  0.00000000000E+00  0.00000000000E+00  0.21205928552E+03  0.21205928552E+03  0.00000000000E+00 0. -1.
          1   -1    0    0  501    0 -0.00000000000E+00 -0.00000000000E+00 -0.40934567223E+03  0.40934567223E+03  0.00000000000E+00 0. -1.
         25    2    1    2    0    0 -0.50210067131E+01 -0.27246488492E+02  0.13527529314E+03  0.18625632681E+03  0.12499773077E+03 0.  0.
          2    1    1    2  501    0  0.21233993253E+02 -0.11309471062E+02 -0.37487845010E+03  0.37564962259E+03  0.00000000000E+00 0. -1.
          1    1    1    2  502    0 -0.16212986540E+02  0.38555959554E+02  0.42316770253E+02  0.59499008347E+02  0.00000000000E+00 0. -1.
         22    1    3    3    0    0 -0.32852276445E+02 -0.10138485758E+01  0.14343269432E+03  0.14715039163E+03  0.00000000000E+00 0. -1.
         22    1    3    3    0    0  0.27831269732E+02 -0.26232639916E+02 -0.81574011857E+01  0.39105935176E+02  0.00000000000E+00 0. -1.
</event>
<event>
 7    1  0.5593520E-006  0.2086819E+03  0.7818608E-02  0.1223089E+00
          2   -1    0    0  502    0  0.00000000000E+00  0.00000000000E+00  0.23158365446E+03  0.23158365446E+03  0.00000000000E+00 0. -1.
          1   -1    0    0  501    0 -0.00000000000E+00 -0.00000000000E+00 -0.13573136908E+04  0.13573136908E+04  0.00000000000E+00 0. -1.
         25    2    1    2    0    0 -0.13699390827E+03 -0.21056285031E+02 -0.49656873841E+03  0.53048706061E+03  0.12500124587E+03 0.  0.
          2    1    1    2  501    0 -0.66652760101E+02 -0.52343401395E+02 -0.78634052069E+03  0.79089432706E+03  0.00000000000E+00 0. -1.
          1    1    1    2  502    0  0.20364666837E+03  0.73399686426E+02  0.15717922275E+03  0.26751595760E+03  0.00000000000E+00 0. -1.
         22    1    3    3    0    0 -0.97833428001E+02 -0.16269604893E+02 -0.47555713000E+03  0.48578870259E+03  0.00000000000E+00 0.  1.
         22    1    3    3    0    0 -0.39160480268E+02 -0.47866801385E+01 -0.21011608415E+02  0.44698358020E+02  0.00000000000E+00 0.  1.
</event>
<event>
 7    1  0.5593520E-006  0.9380203E+02  0.7818608E-02  0.1345086E+00
          2   -1    0    0  502    0  0.00000000000E+00  0.00000000000E+00  0.13244933636E+04  0.13244933636E+04  0.00000000000E+00 0. -1.
          1   -1    0    0  501    0 -0.00000000000E+00 -0.00000000000E+00 -0.34029812979E+04  0.34029812979E+04  0.00000000000E+00 0. -1.
         25    2    1    2    0    0 -0.27812668814E+02  0.94693019505E+02 -0.14164845452E+03  0.21314351062E+03  0.12500223583E+03 0.  0.
          2    1    1    2  501    0 -0.31229253828E+02 -0.88723073050E+02 -0.32242159703E+04  0.32255876477E+04  0.00000000000E+00 0. -1.
          1    1    1    2  502    0  0.59041922642E+02 -0.59699464551E+01  0.12873764905E+04  0.12887435032E+04  0.00000000000E+00 0. -1.
         22    1    3    3    0    0  0.24623911045E+02 -0.19272481902E+02 -0.44922101131E+02  0.54733542950E+02  0.00000000000E+00 0.  1.
         22    1    3    3    0    0 -0.52436579859E+02  0.11396550141E+03 -0.96726353391E+02  0.15840996767E+03  0.00000000000E+00 0.  1.
</event>
<event>
 7    1  0.5593520E-006  0.1574345E+03  0.7818608E-02  0.1265763E+00
          2   -1    0    0  502    0  0.00000000000E+00  0.00000000000E+00  0.19529378623E+03  0.19529378623E+03  0.00000000000E+00 0. -1.
          1   -1    0    0  501    0 -0.00000000000E+00 -0.00000000000E+00 -0.64405161034E+03  0.64405161034E+03  0.00000000000E+00 0. -1.
         25    2    1    2    0    0  0.90208148198E+02 -0.99497952204E+02 -0.27148735622E+02  0.18547063546E+03  0.12499980111E+03 0.  0.
          2    1    1    2  501    0  0.69284602405E+02  0.23157747270E+02 -0.46589863717E+03  0.47159111262E+03  0.00000000000E+00 0. -1.
          1    1    1    2  502    0 -0.15949275060E+03  0.76340204934E+02  0.44289548679E+02  0.18228364849E+03  0.00000000000E+00 0. -1.
         22    1    3    3    0    0  0.75698317565E+01 -0.99968946336E+02 -0.22195415773E+02  0.10268266195E+03  0.00000000000E+00 0. -1.
         22    1    3    3    0    0  0.82638316441E+02  0.47099413267E+00 -0.49533198488E+01  0.82787973506E+02  0.00000000000E+00 0. -1.
</event>
<event>
 7    1  0.5593520E-006  0.1606512E+03  0.7818608E-02  0.1292966E+00
          2   -1    0    0  502    0  0.00000000000E+00  0.00000000000E+00  0.68080173119E+03  0.68080173119E+03  0.00000000000E+00 0. -1.
          1   -1    0    0  501    0 -0.00000000000E+00 -0.00000000000E+00 -0.78125004033E+02  0.78125004033E+02  0.00000000000E+00 0. -1.
         25    2    1    2    0    0 -0.14090644471E+03  0.83514520788E+02  0.27461433535E+03  0.34331926784E+03  0.12500314055E+03 0.  0.
          2    1    1    2  501    0  0.15918831850E+03 -0.31380009528E+02  0.12403107180E+03  0.20422862805E+03  0.00000000000E+00 0. -1.
          1    1    1    2  502    0 -0.18281873781E+02 -0.52134511260E+02  0.20403132000E+03  0.21137883933E+03  0.00000000000E+00 0. -1.
         22    1    3    3    0    0  0.23704385429E+02  0.94102069250E+01  0.32421732448E+02  0.41250680211E+02  0.00000000000E+00 0.  1.
         22    1    3    3    0    0 -0.16461083014E+03  0.74104313863E+02  0.24219260290E+03  0.30206858763E+03  0.00000000000E+00 0.  1.
</event>
<event>
 7    1  0.5593520E-006  0.7495229E+02  0.7818608E-02  0.1474080E+00
          2   -1    0    0  502    0  0.00000000000E+00  0.00000000000E+00  0.77481314000E+03  0.77481314000E+03  0.00000000000E+00 0. -1.
          1   -1    0    0  501    0 -0.00000000000E+00 -0.00000000000E+00 -0.21085347727E+03  0.21085347727E+03  0.00000000000E+00 0. -1.
         25    2    1    2    0    0 -0.55720510107E+02  0.79439346453E+02  0.16390623988E+03  0.22782889230E+03  0.12500145472E+03 0.  0.
          2    1    1    2  501    0  0.52250339060E+02 -0.52595167602E+02 -0.17087663034E+03  0.18626640165E+03  0.00000000000E+00 0. -1.
          1    1    1    2  502    0  0.34701710470E+01 -0.26844178851E+02  0.57093005319E+03  0.57157132333E+03  0.00000000000E+00 0. -1.
         22    1    3    3    0    0 -0.77651900705E+00  0.43929875968E+02  0.15583802834E+03  0.16191333503E+03  0.00000000000E+00 0. -1.
         22    1    3    3    0    0 -0.54943991100E+02  0.35509470485E+02  0.80682115448E+01  0.65915557266E+02  0.00000000000E+00 0. -1.
</event>
<event>
 7    1  0.5593520E-006  0.6343546E+02  0.7818608E-02  0.1403127E+00
          2   -1    0    0  502    0  0.00000000000E+00  0.00000000000E+00  0.16637911901E+04  0.16637911901E+04  0.00000000000E+00 0. -1.
          1   -1    0    0  501    0 -0.00000000000E+00 -0.00000000000E+00 -0.12481465984E+03  0.12481465984E+03  0.00000000000E+00 0. -1.
         25    2    1    2    0    0 -0.10273115541E+02 -0.14120934927E+02 -0.10137540946E+02  0.12662097765E+03  0.12500065815E+03 0.  0.
          2    1    1    2  501    0  0.25895182794E+02 -0.47866464070E+02 -0.42522784833E+02  0.69064796420E+02  0.00000000000E+00 0. -1.
          1    1    1    2  502    0 -0.15622067254E+02  0.61987398998E+02  0.15916368560E+04  0.15929200759E+04  0.00000000000E+00 0. -1.
         22    1    3    3    0    0  0.41562751449E+02 -0.48606267959E+02 -0.54981335440E+01  0.64189259736E+02  0.00000000000E+00 0.  1.
         22    1    3    3    0    0 -0.51835866990E+02  0.34485333032E+02 -0.46394074020E+01  0.62431717916E+02  0.00000000000E+00 0.  1.
</event>
<event>
 7    1  0.5593520E-006  0.1327517E+03  0.7818608E-02  0.1295529E+00
          2   -1    0    0  502    0  0.00000000000E+00  0.00000000000E+00  0.11786247407E+04  0.11786247407E+04  0.00000000000E+00 0. -1.
          1   -1    0    0  501    0 -0.00000000000E+00 -0.00000000000E+00 -0.52123500927E+03  0.52123500927E+03  0.00000000000E+00 0. -1.
         25    2    1    2    0    0 -0.10103548898E+03 -0.16207773415E+03  0.98879683373E+02  0.24875465491E+03  0.12499729843E+03 0.  0.
          2    1    1    2  501    0  0.48633411933E+02  0.43550255652E+02 -0.43969893543E+03  0.44451882675E+03  0.00000000000E+00 0. -1.
          1    1    1    2  502    0  0.52402077051E+02  0.11852747850E+03  0.99820898351E+03  0.10065862683E+04  0.00000000000E+00 0. -1.
         22    1    3    3    0    0 -0.51571447140E+01  0.18431590726E+02 -0.45643364860E+01  0.19676199985E+02  0.00000000000E+00 0.  1.
         22    1    3    3    0    0 -0.95878344270E+02 -0.18050932488E+03  0.10344401986E+03  0.22907845493E+03  0.00000000000E+00 0.  1.
</event>
<event>
 7    1  0.5593520E-006  0.3283431E+02  0.7818608E-02  0.1628351E+00
          2   -1    0    0  502    0  0.00000000000E+00  0.00000000000E+00  0.10371985565E+04  0.10371985565E+04  0.00000000000E+00 0. -1.
          1   -1    0    0  501    0 -0.00000000000E+00 -0.00000000000E+00 -0.36572929455E+03  0.36572929455E+03  0.00000000000E+00 0. -1.
         25    2    1    2    0    0 -0.51954618943E+02  0.98117583976E+01  0.76457046692E+03  0.77652324288E+03  0.12499917925E+03 0.  0.
          2    1    1    2  501    0  0.22282783458E+02 -0.53557580633E+01 -0.35854185613E+03  0.35927352976E+03  0.00000000000E+00 0. -1.
          1    1    1    2  502    0  0.29671835485E+02 -0.44560003343E+01  0.26544065117E+03  0.26713107841E+03  0.00000000000E+00 0. -1.
         22    1    3    3    0    0 -0.23539601485E+02 -0.52049286835E+02  0.50323554601E+03  0.50646742824E+03  0.00000000000E+00 0. -1.
         22    1    3    3    0    0 -0.28415017458E+02  0.61861045233E+02  0.26133492091E+03  0.27005581464E+03  0.00000000000E+00 0. -1.
</event>
<event>
 7    1  0.5593520E-006  0.3793792E+02  0.7818608E-02  0.1537366E+00
          2   -1    0    0  502    0  0.00000000000E+00  0.00000000000E+00  0.16585646181E+03  0.16585646181E+03  0.00000000000E+00 0. -1.
          1   -1    0    0  501    0 -0.00000000000E+00 -0.00000000000E+00 -0.10684865626E+04  0.10684865626E+04  0.00000000000E+00 0. -1.
         25    2    1    2    0    0  0.49242431225E+02 -0.48881569037E+02 -0.32482340410E+02  0.14661060833E+03  0.12500137284E+03 0.  0.
          2    1    1    2  501    0 -0.30093277640E+02  0.17335526447E+02 -0.97549270995E+03  0.97611072784E+03  0.00000000000E+00 0. -1.
          1    1    1    2  502    0 -0.19149153586E+02  0.31546042591E+02  0.10534494957E+03  0.11162168824E+03  0.00000000000E+00 0. -1.
         22    1    3    3    0    0  0.23305116433E+02 -0.41127187825E+01 -0.75626584436E+02  0.79242811543E+02  0.00000000000E+00 0.  1.
         22    1    3    3    0    0  0.25937314793E+02 -0.44768850255E+02  0.43144244026E+02  0.67367796790E+02  0.00000000000E+00 0.  1.
</event>
<event>
 7    1  0.5593520E-006  0.3370054E+02  0.7818608E-02  0.1621064E+00
          2   -1    0    0  502    0  0.00000000000E+00  0.00000000000E+00  0.11885749514E+04  0.11885749514E+04  0.00000000000E+00 0. -1.
          1   -1    0    0  501    0 -0.00000000000E+00 -0.00000000000E+00 -0.15543808277E+02  0.15543808277E+02  0.00000000000E+00 0. -1.
         25    2    1    2    0    0  0.65193816699E+01  0.33148059179E+02  0.10348364147E+04  0.10429058548E+04  0.12499968314E+03 0.  0.
          2    1    1    2  501    0  0.16508541268E+02 -0.29616102442E+02  0.17245095821E+02  0.38039963046E+02  0.00000000000E+00 0. -1.
          1    1    1    2  502    0 -0.23027922938E+02 -0.35319567370E+01  0.12094963262E+03  0.12317294177E+03  0.00000000000E+00 0. -1.
         22    1    3    3    0    0  0.23131099730E+02 -0.26518292973E+02  0.99829985827E+02  0.10585033636E+03  0.00000000000E+00 0.  1.
         22    1    3    3    0    0 -0.16611718060E+02  0.59666352152E+02  0.93500642883E+03  0.93705551848E+03  0.00000000000E+00 0.  1.
</event>
<event>
 7    1  0.5593520E-006  0.8210239E+02  0.7818608E-02  0.1427017E+00
          2   -1    0    0  502    0  0.00000000000E+00  0.00000000000E+00  0.18223722657E+04  0.18223722657E+04  0.00000000000E+00 0. -1.
          1   -1    0    0  501    0 -0.00000000000E+00 -0.00000000000E+00 -0.13284001888E+04  0.13284001888E+04  0.00000000000E+00 0. -1.
         25    2    1    2    0    0  0.91889988948E+02  0.51392250071E+02 -0.10661471084E+03  0.19513380383E+03  0.12500228555E+03 0.  0.
          2    1    1    2  501    0 -0.79288851832E+02 -0.18798677588E+02 -0.11759441412E+04  0.11787640712E+04  0.00000000000E+00 0. -1.
          1    1    1    2  502    0 -0.12601137116E+02 -0.32593572483E+02  0.17765309290E+04  0.17768745795E+04  0.00000000000E+00 0. -1.
         22    1    3    3    0    0 -0.11574976326E+02  0.27846726655E+02  0.15045007462E+02  0.33701224190E+02  0.00000000000E+00 0.  1.
         22    1    3    3    0    0  0.10346496527E+03  0.23545523416E+02 -0.12165971830E+03  0.16143257964E+03  0.00000000000E+00 0.  1.
</event>
<event>
 7    1  0.5593520E-006  0.1595951E+03  0.7818608E-02  0.1200955E+00
          2   -1    0    0  502    0  0.00000000000E+00  0.00000000000E+00  0.24595320303E+04  0.24595320303E+04  0.00000000000E+00 0. -1.
          1   -1    0    0  501    0 -0.00000000000E+00 -0.00000000000E+00 -0.11182043464E+04  0.11182043464E+04  0.00000000000E+00 0. -1.
         25    2    1    2    0    0 -0.30581993684E+02 -0.10178663509E+03 -0.24075326608E+01  0.16409256675E+03  0.12499918731E+03 0.  0.
          2    1    1    2  501    0 -0.12693323501E+03  0.59640558443E+02 -0.10273902878E+04  0.10369184374E+04  0.00000000000E+00 0. -1.
          1    1    1    2  502    0  0.15751522869E+03  0.42146076648E+02  0.23711255044E+04  0.23767253726E+04  0.00000000000E+00 0. -1.
         22    1    3    3    0    0  0.40897986192E+02 -0.16710234994E+02  0.23431468897E+02  0.50009108798E+02  0.00000000000E+00 0. -1.
         22    1    3    3    0    0 -0.71479979876E+02 -0.85076400097E+02 -0.25839001557E+02  0.11408345795E+03  0.00000000000E+00 0. -1.
</event>
<event>
 7    1  0.5593520E-006  0.9109649E+02  0.7818608E-02  0.1314047E+00
          2   -1    0    0  502    0  0.00000000000E+00  0.00000000000E+00  0.13729170020E+04  0.13729170020E+04  0.00000000000E+00 0. -1.
          1   -1    0    0  501    0 -0.00000000000E+00 -0.00000000000E+00 -0.21404652207E+03  0.21404652207E+03  0.00000000000E+00 0. -1.
         25    2    1    2    0    0  0.90623610056E+02  0.17825792139E+02 -0.20204148584E+02  0.15672460814E+03  0.12499599039E+03 0.  0.
          2    1    1    2  501    0 -0.47904619336E+02 -0.85828922561E+02 -0.10490022076E+03  0.14375504449E+03  0.00000000000E+00 0. -1.
          1    1    1    2  502    0 -0.42718990720E+02  0.68003130422E+02  0.12839748493E+04  0.12864838715E+04  0.00000000000E+00 0. -1.
         22    1    3    3    0    0  0.20956235348E+02 -0.28786949118E+02 -0.55364460991E+02  0.65826102575E+02  0.00000000000E+00 0. -1.
         22    1    3    3    0    0  0.69667374708E+02  0.46612741256E+02  0.35160312407E+02  0.90898505569E+02  0.00000000000E+00 0. -1.
</event>
<event>
 7    1  0.5593520E-006  0.1552711E+03  0.7818608E-02  0.1275743E+00
          2   -1    0    0  502    0  0.00000000000E+00  0.00000000000E+00  0.29880298642E+03  0.29880298642E+03  0.00000000000E+00 0. -1.
          1   -1    0    0  501    0 -0.00000000000E+00 -0.00000000000E+00 -0.69821856243E+03  0.69821856243E+03  0.00000000000E+00 0. -1.
         25    2    1    2    0    0 -0.48994364920E+02  0.17357036502E+03 -0.18390591019E+03  0.28630869295E+03  0.12499665775E+03 0.  0.
          2    1    1    2  501    0  0.91026681768E+02 -0.12105565081E+03 -0.44578592571E+03  0.47081357132E+03  0.00000000000E+00 0. -1.
          1    1    1    2  502    0 -0.42032316848E+02 -0.52514714215E+02  0.23027625989E+03  0.23989928457E+03  0.00000000000E+00 0. -1.
         22    1    3    3    0    0 -0.38522809874E+02  0.19306154809E+03 -0.15954603881E+03  0.25340028952E+03  0.00000000000E+00 0.  1.
         22    1    3    3    0    0 -0.10471555046E+02 -0.19491183068E+02 -0.24359871385E+02  0.32908403431E+02  0.00000000000E+00 0.  1.
</event>
<event>
 7    1  0.5593520E-006  0.4581448E+02  0.7818608E-02  0.1516137E+00
          2   -1    0    0  502    0  0.00000000000E+00  0.00000000000E+00  0.86278487726E+03  0.86278487726E+03  0.00000000000E+00 0. -1.
          1   -1    0    0  501    0 -0.00000000000E+00 -0.00000000000E+00 -0.17981459721E+03  0.17981459721E+03  0.00000000000E+00 0. -1.
         25    2    1    2    0    0 -0.82879847398E+01  0.15074817418E+02 -0.26446229581E+02  0.12890907211E+03  0.12498881951E+03 0.  0.
          2    1    1    2  501    0  0.10375438208E+02 -0.48111147934E+02 -0.95847970628E+02  0.10774583865E+03  0.00000000000E+00 0. -1.
          1    1    1    2  502    0 -0.20874534686E+01  0.33036330516E+02  0.80526448026E+03  0.80594456371E+03  0.00000000000E+00 0. -1.
         22    1    3    3    0    0 -0.21761239950E+02  0.50323839398E+02  0.28857033582E+02  0.61957798242E+02  0.00000000000E+00 0.  1.
         22    1    3    3    0    0  0.13473255210E+02 -0.35249021980E+02 -0.55303263163E+02  0.66951273871E+02  0.00000000000E+00 0.  1.
</event>
<event>
 7    1  0.5593520E-006  0.7923178E+02  0.7818608E-02  0.1337279E+00
          2   -1    0    0  502    0  0.00000000000E+00  0.00000000000E+00  0.85709893695E+03  0.85709893695E+03  0.00000000000E+00 0. -1.
          1   -1    0    0  501    0 -0.00000000000E+00 -0.00000000000E+00 -0.31430730909E+02  0.31430730909E+02  0.00000000000E+00 0. -1.
         25    2    1    2    0    0  0.30751870739E+02 -0.16970136727E+02  0.43396530267E+03  0.45297330055E+03  0.12500105597E+03 0.  0.
          2    1    1    2  501    0 -0.78351429517E+02 -0.46369874462E+02  0.10931369088E+03  0.14226241520E+03  0.00000000000E+00 0. -1.
          1    1    1    2  502    0  0.47599558778E+02  0.63340011189E+02  0.28238921249E+03  0.29329395211E+03  0.00000000000E+00 0. -1.
         22    1    3    3    0    0 -0.13124726417E+02  0.47892305977E+02  0.13239072726E+03  0.14139744015E+03  0.00000000000E+00 0. -1.
         22    1    3    3    0    0  0.43876597156E+02 -0.64862442704E+02  0.30157457541E+03  0.31157586040E+03  0.00000000000E+00 0. -1.
</event>
<event>
 7    1  0.5593520E-006  0.1407047E+03  0.7818608E-02  0.1369916E+00
          2   -1    0    0  502    0  0.00000000000E+00  0.00000000000E+00  0.84077620699E+03  0.84077620699E+03  0.00000000000E+00 0. -1.
          1   -1    0    0  501    0 -0.00000000000E+00 -0.00000000000E+00 -0.53400510903E+03  0.53400510903E+03  0.00000000000E+00 0. -1.
         25    2    1    2    0    0 -0.86619414643E+02 -0.72861612082E+02  0.11566816686E+03  0.20448867797E+03  0.12499902833E+03 0.  0.
          2    1    1    2  501    0  0.99125280559E+02  0.10240960180E+03 -0.47883012842E+03  0.49959167294E+03  0.00000000000E+00 0. -1.
          1    1    1    2  502    0 -0.12505865916E+02 -0.29547989717E+02  0.66993305952E+03  0.67070096512E+03  0.00000000000E+00 0. -1.
         22    1    3    3    0    0 -0.59888231166E+02 -0.72465340110E+02  0.13980319699E+03  0.16847183634E+03  0.00000000000E+00 0.  1.
         22    1    3    3    0    0 -0.26731183477E+02 -0.39627197288E+00 -0.24135030132E+02  0.36016841631E+02  0.00000000000E+00 0.  1.
</event>
<event>
 7    1  0.5593520E-006  0.5268756E+02  0.7818608E-02  0.1479659E+00
          2   -1    0    0  502    0  0.00000000000E+00  0.00000000000E+00  0.15380101063E+03  0.15380101063E+03  0.00000000000E+00 0. -1.
          1   -1    0    0  501    0 -0.00000000000E+00 -0.00000000000E+00 -0.20603227833E+03  0.20603227833E+03  0.00000000000E+00 0. -1.
         25    2    1    2    0    0 -0.11008895245E+02  0.28440374399E+02  0.21224384565E+02  0.13040537276E+03  0.12500014429E+03 0.  0.
          2    1    1    2  501    0 -0.17813759338E+02 -0.51658907359E+02 -0.14165699532E+03  0.15183108066E+03  0.00000000000E+00 0. -1.
          1    1    1    2  502    0  0.28822654584E+02  0.23218532960E+02  0.68201343063E+02  0.77596835539E+02  0.00000000000E+00 0. -1.
         22    1    3    3    0    0 -0.63890852449E+02  0.20564260141E+02  0.34284442636E+02  0.75368115464E+02  0.00000000000E+00 0. -1.
         22    1    3    3    0    0  0.52881957204E+02  0.78761142585E+01 -0.13060058071E+02  0.55037257293E+02  0.00000000000E+00 0. -1.
</event>
<event>
 7    1  0.5593520E-006  0.1185369E+03  0.7818608E-02  0.1316956E+00
          2   -1    0    0  502    0  0.00000000000E+00  0.00000000000E+00  0.11583285785E+04  0.11583285785E+04  0.00000000000E+00 0. -1.
          1   -1    0    0  501    0 -0.00000000000E+00 -0.00000000000E+00 -0.25307855443E+03  0.25307855443E+03  0.00000000000E+00 0. -1.
         25    2    1    2    0    0 -0.81507081258E+02 -0.14892953392E+03  0.21836807716E+02  0.21195671200E+03  0.12500156487E+03 0.  0.
          2    1    1    2  501    0  0.58042725651E+02  0.93574659336E+02 -0.13784341483E+03  0.17642557038E+03  0.00000000000E+00 0. -1.
          1    1    1    2  502    0  0.23464355606E+02  0.55354874586E+02  0.10212566312E+04  0.10230248506E+04  0.00000000000E+00 0. -1.
         22    1    3    3    0    0 -0.57824385127E+02 -0.16248895198E+03  0.42613999197E+02  0.17765773825E+03  0.00000000000E+00 0.  1.
         22    1    3    3    0    0 -0.23682696131E+02  0.13559418062E+02 -0.20777191481E+02  0.34298973746E+02  0.00000000000E+00 0.  1.
</event>
<event>
 7    1  0.5593520E-006  0.8724923E+02  0.7818608E-02  0.1364387E+00
          2   -1    0    0  502    0  0.00000000000E+00  0.00000000000E+00  0.70974943953E+03  0.70974943953E+03  0.00000000000E+00 0. -1.
          1   -1    0    0  501    0 -0.00000000000E+00 -0.00000000000E+00 -0.32944095871E+04  0.32944095871E+04  0.00000000000E+00 0. -1.
         25    2    1    2    0    0 -0.13716673635E+03 -0.24944361434E+02 -0.56026951479E+03  0.59073169442E+03  0.12500028343E+03 0.  0.
          2    1    1    2  501    0  0.50291914037E+02  0.20146470935E+02 -0.27159127660E+04  0.27164530751E+04  0.00000000000E+00 0. -1.
          1    1    1    2  502    0  0.86874822308E+02  0.47978904986E+01  0.69152213314E+03  0.69697425715E+03  0.00000000000E+00 0. -1.
         22    1    3    3    0    0 -0.15962098335E+03 -0.11844596558E+02 -0.45618891066E+03  0.48345369478E+03  0.00000000000E+00 0.  1.
         22    1    3    3    0    0  0.22454247006E+02 -0.13099764876E+02 -0.10408060413E+03  0.10727799963E+03  0.00000000000E+00 0.  1.
</event>
<event>
 7    1  0.5593520E-006  0.1169932E+03  0.7818608E-02  0.1305258E+00
          2   -1    0    0  502    0  0.00000000000E+00  0.00000000000E+00  0.14142645655E+03  0.14142645655E+03  0.00000000000E+00 0. -1.
          1   -1    0    0  501    0 -0.00000000000E+00 -0.00000000000E+00 -0.73061564567E+03  0.73061564567E+03  0.00000000000E+00 0. -1.
         25    2    1    2    0    0 -0.36881370091E+01 -0.13091374201E+03 -0.60740365881E+02  0.19096201008E+03  0.12500034817E+03 0.  0.
          2    1    1    2  501    0  0.61119495741E+02  0.29174533238E+02 -0.55676391072E+03  0.56086789748E+03  0.00000000000E+00 0. -1.
          1    1    1    2  502    0 -0.57431358732E+02  0.10173920877E+03  0.28315087471E+02  0.12021219466E+03  0.00000000000E+00 0. -1.
         22    1    3    3    0    0 -0.36664474769E+01 -0.11339754818E+03  0.13889753485E+02  0.11430385830E+03  0.00000000000E+00 0. -1.
         22    1    3    3    0    0 -0.21689532176E-01 -0.17516193827E+02 -0.74630119367E+02  0.76658151773E+02  0.00000000000E+00 0. -1.
</event>
<event>
 7    1  0.5593520E-006  0.6627553E+02  0.7818608E-02  0.1471717E+00
          2   -1    0    0  502    0  0.00000000000E+00  0.00000000000E+00  0.30699262292E+03  0.30699262292E+03  0.00000000000E+00 0. -1.
          1   -1    0    0  501    0 -0.00000000000E+00 -0.00000000000E+00 -0.84622116427E+02  0.84622116427E+02  0.00000000000E+00 0. -1.
         25    2    1    2    0    0 -0.33270661679E+02  0.49622288433E+02  0.35621629862E+02  0.14305266306E+03  0.12500342177E+03 0.  0.
          2    1    1    2  501    0  0.10367498298E+02 -0.70708467821E+02  0.13738483505E+02  0.72773060754E+02  0.00000000000E+00 0. -1.
          1    1    1    2  502    0  0.22903163381E+02  0.21086179387E+02  0.17301039312E+03  0.17578901553E+03  0.00000000000E+00 0. -1.
         22    1    3    3    0    0 -0.17585518965E+02  0.66611936459E+02  0.72188878357E+02  0.99787948744E+02  0.00000000000E+00 0. -1.
         22    1    3    3    0    0 -0.15685142715E+02 -0.16989648026E+02 -0.36567248495E+02  0.43264714312E+02  0.00000000000E+00 0. -1.
</event>
<event>
 7    1  0.5593520E-006  0.2615803E+03  0.7818608E-02  0.1272324E+00
          2   -1    0    0  502    0  0.00000000000E+00  0.00000000000E+00  0.47955352733E+03  0.47955352733E+03  0.00000000000E+00 0. -1.
          1   -1    0    0  501    0 -0.00000000000E+00 -0.00000000000E+00 -0.18264702303E+04  0.18264702303E+04  0.00000000000E+00 0. -1.
         25    2    1    2    0    0 -0.13835798827E+03  0.21731946487E+03 -0.91200562700E+02  0.30051783133E+03  0.12499096599E+03 0.  0.
          2    1    1    2  501    0 -0.35963079717E+02 -0.20226071109E+02 -0.15841406042E+04  0.15846778508E+04  0.00000000000E+00 0. -1.
          1    1    1    2  502    0  0.17432106799E+03 -0.19709339376E+03  0.32842446393E+03  0.42082807548E+03  0.00000000000E+00 0. -1.
         22    1    3    3    0    0 -0.81340403747E+02  0.19194661722E+03 -0.25703303973E+02  0.21004862528E+03  0.00000000000E+00 0.  1.
         22    1    3    3    0    0 -0.57017584526E+02  0.25372847642E+02 -0.65497258727E+02  0.90469206050E+02  0.00000000000E+00 0.  1.
</event>
<event>
 7    1  0.5593520E-006  0.9042544E+02  0.7818608E-02  0.1432467E+00
          2   -1    0    0  502    0  0.00000000000E+00  0.00000000000E+00  0.48460019376E+03  0.48460019376E+03  0.00000000000E+00 0. -1.
          1   -1    0    0  501    0 -0.00000000000E+00 -0.00000000000E+00 -0.46596872678E+03  0.46596872678E+03  0.00000000000E+00 0. -1.
         25    2    1    2    0    0  0.42033516034E+02  0.47987592054E+02 -0.18639364178E+03  0.23332544517E+03  0.12501419201E+03 0.  0.
          2    1    1    2  501    0  0.47859282889E+01  0.30065154302E+02 -0.25068804667E+03  0.25252983063E+03  0.00000000000E+00 0. -1.
          1    1    1    2  502    0 -0.46819444322E+02 -0.78052746357E+02  0.45571315543E+03  0.46471364474E+03  0.00000000000E+00 0. -1.
         22    1    3    3    0    0  0.81024224336E+02  0.34332877897E+01 -0.10474113728E+03  0.13246666839E+03  0.00000000000E+00 0.  1.
         22    1    3    3    0    0 -0.38990708303E+02  0.44554304265E+02 -0.81652504498E+02  0.10085877678E+03  0.00000000000E+00 0.  1.
</event>
<event>
 7    1  0.5593520E-006  0.3179072E+02  0.7818608E-02  0.1604350E+00
          2   -1    0    0  502    0  0.00000000000E+00  0.00000000000E+00  0.11294021582E+04  0.11294021582E+04  0.00000000000E+00 0. -1.
          1   -1    0    0  501    0 -0.00000000000E+00 -0.00000000000E+00 -0.12515932902E+04  0.12515932902E+04  0.00000000000E+00 0. -1.
         25    2    1    2    0    0  0.18561107276E+01  0.17265047699E+02 -0.55802025804E+03  0.57211230467E+03  0.12499741499E+03 0.  0.
          2    1    1    2  501    0 -0.27195478968E+02  0.19481039164E+01 -0.68603091226E+03  0.68657250292E+03  0.00000000000E+00 0. -1.
          1    1    1    2  502    0  0.25339368241E+02 -0.19213151615E+02  0.11218600384E+04  0.11223106408E+04  0.00000000000E+00 0. -1.
         22    1    3    3    0    0  0.52629559397E+02 -0.68687894242E+01 -0.13002204551E+03  0.14043782649E+03  0.00000000000E+00 0.  1.
         22    1    3    3    0    0 -0.50773448669E+02  0.24133837123E+02 -0.42799821253E+03  0.43167447819E+03  0.00000000000E+00 0.  1.
</event>
<event>
 7    1  0.5593520E-006  0.3312442E+02  0.7818608E-02  0.1605012E+00
          2   -1    0    0  502    0  0.00000000000E+00  0.00000000000E+00  0.28809459972E+03  0.28809459972E+03  0.00000000000E+00 0. -1.
          1   -1    0    0  501    0 -0.00000000000E+00 -0.00000000000E+00 -0.10879303745E+03  0.10879303745E+03  0.00000000000E+00 0. -1.
         25    2    1    2    0    0 -0.37335723379E+02 -0.13271039153E+02 -0.71446665812E+01  0.13132635218E+03  0.12500195117E+03 0.  0.
          2    1    1    2  501    0  0.16534154346E+02  0.28975460030E+02 -0.31606887679E+02  0.45955966888E+02  0.00000000000E+00 0. -1.
          1    1    1    2  502    0  0.20801569033E+02 -0.15704420877E+02  0.21805311653E+03  0.21960531810E+03  0.00000000000E+00 0. -1.
         22    1    3    3    0    0 -0.49721762736E+02 -0.53392039657E+02  0.26394590367E+02  0.77586326044E+02  0.00000000000E+00 0.  1.
         22    1    3    3    0    0  0.12386039357E+02  0.40121000505E+02 -0.33539256949E+02  0.53740026136E+02  0.00000000000E+00 0.  1.
</event>
<event>
 7    1  0.5593520E-006  0.8295161E+02  0.7818608E-02  0.1353275E+00
          2   -1    0    0  502    0  0.00000000000E+00  0.00000000000E+00  0.38129018412E+04  0.38129018412E+04  0.00000000000E+00 0. -1.
          1   -1    0    0  501    0 -0.00000000000E+00 -0.00000000000E+00 -0.12842098576E+04  0.12842098576E+04  0.00000000000E+00 0. -1.
         25    2    1    2    0    0  0.18586880474E+02  0.46592265650E+02  0.17629135158E+03  0.22187127871E+03  0.12502764626E+03 0.  0.
          2    1    1    2  501    0  0.37471478284E+02 -0.74390003026E+02 -0.12597736080E+04  0.12625242682E+04  0.00000000000E+00 0. -1.
          1    1    1    2  502    0 -0.56058358758E+02  0.27797737375E+02  0.36121742401E+04  0.36127161519E+04  0.00000000000E+00 0. -1.
         22    1    3    3    0    0 -0.21846992426E+02  0.55023478473E+02  0.17009784825E+03  0.18010594726E+03  0.00000000000E+00 0. -1.
         22    1    3    3    0    0  0.40433872900E+02 -0.84312128230E+01  0.61935033353E+01  0.41765331447E+02  0.00000000000E+00 0. -1.
</event>
<event>
 7    1  0.5593520E-006  0.9221048E+02  0.7818608E-02  0.1310725E+00
          2   -1    0    0  502    0  0.00000000000E+00  0.00000000000E+00  0.19592977239E+03  0.19592977239E+03  0.00000000000E+00 0. -1.
          1   -1    0    0  501    0 -0.00000000000E+00 -0.00000000000E+00 -0.31562637170E+03  0.31562637170E+03  0.00000000000E+00 0. -1.
         25    2    1    2    0    0 -0.94797357435E+01  0.42801238470E+01 -0.48245425431E+02  0.13439276439E+03  0.12500243676E+03 0.  0.
          2    1    1    2  501    0  0.94987643105E+02 -0.38793447664E+02 -0.19656967842E+03  0.22173683139E+03  0.00000000000E+00 0. -1.
          1    1    1    2  502    0 -0.85507907361E+02  0.34513323817E+02  0.12511850453E+03  0.15542654830E+03  0.00000000000E+00 0. -1.
         22    1    3    3    0    0  0.28390312815E+02 -0.51031601350E+02 -0.22957713031E+02  0.62747834909E+02  0.00000000000E+00 0. -1.
         22    1    3    3    0    0 -0.37870048559E+02  0.55311725197E+02 -0.25287712399E+02  0.71644929483E+02  0.00000000000E+00 0. -1.
</event>
<event>
 7    1  0.5593520E-006  0.4254741E+02  0.7818608E-02  0.1555074E+00
          2   -1    0    0  502    0  0.00000000000E+00  0.00000000000E+00  0.32957594058E+03  0.32957594058E+03  0.00000000000E+00 0. -1.
          1   -1    0    0  501    0 -0.00000000000E+00 -0.00000000000E+00 -0.18646977661E+04  0.18646977661E+04  0.00000000000E+00 0. -1.
         25    2    1    2    0    0  0.25135085113E+02 -0.59102725962E+02  0.83047096712E+02  0.16323747150E+03  0.12499898843E+03 0.  0.
          2    1    1    2  501    0 -0.31397426009E+01  0.42394568276E+02 -0.18234297588E+04  0.18239252295E+04  0.00000000000E+00 0. -1.
          1    1    1    2  502    0 -0.21995342512E+02  0.16708157686E+02  0.20526083661E+03  0.20711100567E+03  0.00000000000E+00 0. -1.
         22    1    3    3    0    0 -0.18627168917E+02 -0.76828854555E+02  0.84871454345E+02  0.11598624089E+03  0.00000000000E+00 0. -1.
         22    1    3    3    0    0  0.43762254030E+02  0.17726128593E+02 -0.18243576328E+01  0.47251230602E+02  0.00000000000E+00 0. -1.
</event>
<event>
 7    1  0.5593520E-006  0.9443008E+02  0.7818608E-02  0.1436121E+00
          2   -1    0    0  502    0  0.00000000000E+00  0.00000000000E+00  0.62978495294E+03  0.62978495294E+03  0.00000000000E+00 0. -1.
          1   -1    0    0  501    0 -0.00000000000E+00 -0.00000000000E+00 -0.35864686331E+03  0.35864686331E+03  0.00000000000E+00 0. -1.
         25    2    1    2    0    0 -0.64772951846E+02  0.67126179458E+02 -0.21964861038E+03  0.26939332477E+03  0.12500316849E+03 0.  0.
          2    1    1    2  501    0  0.22423116235E+02  0.17365202369E+02 -0.10860212744E+03  0.11224423584E+03  0.00000000000E+00 0. -1.
          1    1    1    2  502    0  0.42349835611E+02 -0.84491381827E+02  0.59938882746E+03  0.60679425563E+03  0.00000000000E+00 0. -1.
         22    1    3    3    0    0 -0.54918252217E+02  0.40561867426E+02 -0.22946592316E+03  0.23940737125E+03  0.00000000000E+00 0. -1.
         22    1    3    3    0    0 -0.98546996295E+01  0.26564312031E+02  0.98173127829E+01  0.29985953524E+02  0.00000000000E+00 0. -1.
</event>
<event>
 7    1  0.5593520E-006  0.1706925E+03  0.7818608E-02  0.1334615E+00
          2   -1    0    0  502    0  0.00000000000E+00  0.00000000000E+00  0.32243035077E+03  0.32243035077E+03  0.00000000000E+00 0. -1.
          1   -1    0    0  501    0 -0.00000000000E+00 -0.00000000000E+00 -0.60470464284E+03  0.60470464284E+03  0.00000000000E+00 0. -1.
         25    2    1    2    0    0 -0.10336360686E+03 -0.15066229857E+03 -0.10344441861E+03  0.24435387717E+03  0.12499962445E+03 0.  0.
          2    1    1    2  501    0  0.67832040511E+02  0.15421070332E+03 -0.41292932802E+03  0.44597394170E+03  0.00000000000E+00 0. -1.
          1    1    1    2  502    0  0.35531566351E+02 -0.35484047511E+01  0.23409945456E+03  0.23680717474E+03  0.00000000000E+00 0. -1.
         22    1    3    3    0    0 -0.13165891028E+03 -0.10903804735E+03 -0.82943334082E+02  0.19000779219E+03  0.00000000000E+00 0. -1.
         22    1    3    3    0    0  0.28295303418E+02 -0.41624251217E+02 -0.20501084531E+02  0.54346084973E+02  0.00000000000E+00 0. -1.
</event>
<event>
 7    1  0.5593520E-006  0.9146326E+02  0.7818608E-02  0.1433540E+00
          2   -1    0    0  502    0  0.00000000000E+00  0.00000000000E+00  0.68532961818E+03  0.68532961818E+03  0.00000000000E+00 0. -1.
          1   -1    0    0  501    0 -0.00000000000E+00 -0.00000000000E+00 -0.52750323144E+03  0.52750323144E+03  0.00000000000E+00 0. -1.
         25    2    1    2    0    0  0.56493954429E+02 -0.54827752121E+02  0.39108611970E+01  0.14777738065E+03  0.12500084042E+03 0.  0.
          2    1    1    2  501    0 -0.13330684997E+02 -0.26714037449E+02 -0.45158270320E+03  0.45256854153E+03  0.00000000000E+00 0. -1.
          1    1    1    2  502    0 -0.43163269432E+02  0.81541789570E+02  0.60549822874E+03  0.61248692743E+03  0.00000000000E+00 0. -1.
         22    1    3    3    0    0  0.48512252099E+02  0.36691524293E+01  0.52308992193E+02  0.71436208939E+02  0.00000000000E+00 0.  1.
         22    1    3    3    0    0  0.79817023297E+01 -0.58496904550E+02 -0.48398130996E+02  0.76341171710E+02  0.00000000000E+00 0.  1.
</event>
<event>
 7    1  0.5593520E-006  0.1168788E+03  0.7818608E-02  0.1442073E+00
          2   -1    0    0  502    0  0.00000000000E+00  0.00000000000E+00  0.22378816116E+04  0.22378816116E+04  0.00000000000E+00 0. -1.
          1   -1    0    0  501    0 -0.00000000000E+00 -0.00000000000E+00 -0.26304874214E+02  0.26304874214E+02  0.00000000000E+00 0. -1.
         25    2    1    2    0    0  0.49447353376E+02  0.11590246353E+03  0.17867950716E+04  0.17955889178E+04  0.12499804894E+03 0.  0.
          2    1    1    2  501    0 -0.62262246135E+02 -0.98123891914E+02  0.13558888038E+03  0.17857555807E+03  0.00000000000E+00 0. -1.
          1    1    1    2  502    0  0.12814892759E+02 -0.17778571613E+02  0.28919278547E+03  0.29002200994E+03  0.00000000000E+00 0. -1.
         22    1    3    3    0    0  0.49817839435E+01  0.53052110129E+02  0.14101168585E+04  0.14111232756E+04  0.00000000000E+00 0.  1.
         22    1    3    3    0    0  0.44465569433E+02  0.62850353398E+02  0.37667821311E+03  0.38446564218E+03  0.00000000000E+00 0.  1.
</event>
<event>
 7    1  0.5593520E-006  0.7023321E+02  0.7818608E-02  0.1478122E+00
          2   -1    0    0  502    0  0.00000000000E+00  0.00000000000E+00  0.22644692910E+03  0.22644692910E+03  0.00000000000E+00 0. -1.
          1   -1    0    0  501    0 -0.00000000000E+00 -0.00000000000E+00 -0.56897811932E+03  0.56897811932E+03  0.00000000000E+00 0. -1.
         25    2    1    2    0    0  0.31570736796E+02  0.58515802752E+02 -0.43101713621E+02  0.14799227621E+03  0.12499258181E+03 0.  0.
          2    1    1    2  501    0 -0.61496648300E+01 -0.70416788044E+02 -0.46963688523E+03  0.47492646419E+03  0.00000000000E+00 0. -1.
          1    1    1    2  502    0 -0.25421071966E+02  0.11900985292E+02  0.17020740864E+03  0.17250630802E+03  0.00000000000E+00 0. -1.
         22    1    3    3    0    0 -0.25797227685E+02 -0.26599398612E+01 -0.57334287063E+02  0.62926883836E+02  0.00000000000E+00 0. -1.
         22    1    3    3    0    0  0.57367964481E+02  0.61175742613E+02  0.14232573442E+02  0.85065392374E+02  0.00000000000E+00 0. -1.
</event>
<event>
 7    1  0.5593520E-006  0.4231037E+02  0.7818608E-02  0.1596507E+00
          2   -1    0    0  502    0  0.00000000000E+00  0.00000000000E+00  0.70743341694E+03  0.70743341694E+03  0.00000000000E+00 0. -1.
          1   -1    0    0  501    0 -0.00000000000E+00 -0.00000000000E+00 -0.71878472434E+02  0.71878472434E+02  0.00000000000E+00 0. -1.
         25    2    1    2    0    0 -0.47766935935E+02 -0.21750116402E+02  0.13322559298E+03  0.19006617394E+03  0.12498537562E+03 0.  0.
          2    1    1    2  501    0  0.41900282191E+02  0.10915467572E+01 -0.33086204386E+02  0.53399644593E+02  0.00000000000E+00 0. -1.
          1    1    1    2  502    0  0.58666537440E+01  0.20658569645E+02  0.53541555591E+03  0.53584607084E+03  0.00000000000E+00 0. -1.
         22    1    3    3    0    0 -0.73748448301E+02 -0.13127383368E+02  0.14264394902E+03  0.16111628724E+03  0.00000000000E+00 0.  1.
         22    1    3    3    0    0  0.25981512366E+02 -0.86227330337E+01 -0.94183560357E+01  0.28949886705E+02  0.00000000000E+00 0.  1.
</event>
<event>
 7    1  0.5593520E-006  0.9908708E+02  0.7818608E-02  0.1283814E+00
          2   -1    0    0  502    0  0.00000000000E+00  0.00000000000E+00  0.66296170800E+03  0.66296170800E+03  0.00000000000E+00 0. -1.
          1   -1    0    0  501    0 -0.00000000000E+00 -0.00000000000E+00 -0.10093727508E+04  0.10093727508E+04  0.00000000000E+00 0. -1.
         25    2    1    2    0    0 -0.21119238745E+02 -0.26327106918E+02 -0.78812104068E+02  0.15157613700E+03  0.12499935502E+03 0.  0.
          2    1    1    2  501    0 -0.69339932438E+02  0.70782930654E+02 -0.88734968159E+03  0.89286488727E+03  0.00000000000E+00 0. -1.
          1    1    1    2  502    0  0.90459171183E+02 -0.44455823736E+02  0.61975074284E+03  0.62789343456E+03  0.00000000000E+00 0. -1.
         22    1    3    3    0    0  0.31320572071E+01 -0.44968229156E+02  0.19130240972E+02  0.48968536178E+02  0.00000000000E+00 0.  1.
         22    1    3    3    0    0 -0.24251295952E+02  0.18641122238E+02 -0.97942345039E+02  0.10260760082E+03  0.00000000000E+00 0.  1.
</event>
<event>
 7    1  0.5593520E-006  0.1159570E+03  0.7818608E-02  0.1330233E+00
          2   -1    0    0  502    0  0.00000000000E+00  0.00000000000E+00  0.23538172358E+02  0.23538172358E+02  0.00000000000E+00 0. -1.
          1   -1    0    0  501    0 -0.00000000000E+00 -0.00000000000E+00 -0.29330116335E+04  0.29330116335E+04  0.00000000000E+00 0. -1.
         25    2    1    2    0    0  0.36387050200E+02 -0.72535988948E+02 -0.62572234239E+03  0.64322516197E+03  0.12499868843E+03 0.  0.
          2    1    1    2  501    0  0.37967239185E+01 -0.54489542126E+02 -0.19902576407E+04  0.19910070320E+04  0.00000000000E+00 0. -1.
          1    1    1    2  502    0 -0.40183774118E+02  0.12702553107E+03 -0.29349347814E+03  0.32231761193E+03  0.00000000000E+00 0. -1.
         22    1    3    3    0    0  0.62086710022E+02 -0.87896673581E+02 -0.35773498010E+03  0.37357047632E+03  0.00000000000E+00 0.  1.
         22    1    3    3    0    0 -0.25699659822E+02  0.15360684633E+02 -0.26798736229E+03  0.26965468565E+03  0.00000000000E+00 0.  1.
</event>
<event>
 7    1  0.5593520E-006  0.6689232E+02  0.7818608E-02  0.1396890E+00
          2   -1    0    0  502    0  0.00000000000E+00  0.00000000000E+00  0.15636383206E+04  0.15636383206E+04  0.00000000000E+00 0. -1.
          1   -1    0    0  501    0 -0.00000000000E+00 -0.00000000000E+00 -0.70067656367E+02  0.70067656367E+02  0.00000000000E+00 0. -1.
         25    2    1    2    0    0  0.34764709559E+02 -0.52742695548E+02  0.71165915180E+03  0.72530983354E+03  0.12500091732E+03 0.  0.
          2    1    1    2  501    0  0.18036843733E+02  0.65073272908E+02 -0.44071093799E+02  0.80635723395E+02  0.00000000000E+00 0. -1.
          1    1    1    2  502    0 -0.52801553292E+02 -0.12330577360E+02  0.82598260621E+03  0.82776042001E+03  0.00000000000E+00 0. -1.
         22    1    3    3    0    0  0.46274088227E+02  0.48328511808E+01  0.94178781795E+02  0.10504423179E+03  0.00000000000E+00 0. -1.
         22    1    3    3    0    0 -0.11509378668E+02 -0.57575546729E+02  0.61748037000E+03  0.62026560175E+03  0.00000000000E+00 0. -1.
</event>
<event>
 7    1  0.5593520E-006  0.3462784E+03  0.7818608E-02  0.1169969E+00
          2   -1    0    0  502    0  0.00000000000E+00  0.00000000000E+00  0.26599109988E+04  0.26599109988E+04  0.00000000000E+00 0. -1.
          1   -1    0    0  501    0 -0.00000000000E+00 -0.00000000000E+00 -0.13582170951E+04  0.13582170951E+04  0.00000000000E+00 0. -1.
         25    2    1    2    0    0  0.14469659306E+03 -0.21776319608E+03  0.36822548298E+03  0.46858719328E+03  0.12500415104E+03 0.  0.
          2    1    1    2  501    0 -0.17734249131E+03  0.30299723565E+03 -0.12835225374E+04  0.13306719310E+04  0.00000000000E+00 0. -1.
          1    1    1    2  502    0  0.32645898253E+02 -0.85234039566E+02  0.22169909581E+04  0.22188689696E+04  0.00000000000E+00 0. -1.
         22    1    3    3    0    0  0.41962760547E+01 -0.21719747660E+02 -0.64048541499E+01  0.23029944156E+02  0.00000000000E+00 0. -1.
         22    1    3    3    0    0  0.14050031700E+03 -0.19604344842E+03  0.37463033713E+03  0.44555724913E+03  0.00000000000E+00 0. -1.
</event>
<event>
 7    1  0.5593520E-006  0.1061233E+03  0.7818608E-02  0.1300376E+00
          2   -1    0    0  502    0  0.00000000000E+00  0.00000000000E+00  0.10856506369E+04  0.10856506369E+04  0.00000000000E+00 0. -1.
          1   -1    0    0  501    0 -0.00000000000E+00 -0.00000000000E+00 -0.60126900908E+03  0.60126900908E+03  0.00000000000E+00 0. -1.
         25    2    1    2    0    0  0.83248214240E+02  0.74089861846E+02  0.36101213911E+03  0.39796288017E+03  0.12500046642E+03 0.  0.
          2    1    1    2  501    0  0.26959557486E+02 -0.73281748575E+02 -0.57584244296E+03  0.58111233985E+03  0.00000000000E+00 0. -1.
          1    1    1    2  502    0 -0.11020777173E+03 -0.80811327128E+00  0.69921193162E+03  0.70784442593E+03  0.00000000000E+00 0. -1.
         22    1    3    3    0    0  0.53432477551E+02 -0.26688668124E+02  0.16626343823E+03  0.17666591509E+03  0.00000000000E+00 0. -1.
         22    1    3    3    0    0  0.29815736690E+02  0.10077852997E+03  0.19474870088E+03  0.22129696508E+03  0.00000000000E+00 0. -1.
</event>
<event>
 7    1  0.5593520E-006  0.7210731E+02  0.7818608E-02  0.1363375E+00
          2   -1    0    0  502    0  0.00000000000E+00  0.00000000000E+00  0.13558702692E+04  0.13558702692E+04  0.00000000000E+00 0. -1.
          1   -1    0    0  501    0 -0.00000000000E+00 -0.00000000000E+00 -0.15598534123E+04  0.15598534123E+04  0.00000000000E+00 0. -1.
         25    2    1    2    0    0  0.92309015278E+02  0.26811207532E+02 -0.29899205300E+02  0.16049533488E+03  0.12499997956E+03 0.  0.
          2    1    1    2  501    0 -0.64142373983E+02  0.32998735515E+02 -0.14629202871E+04  0.14646975548E+04  0.00000000000E+00 0. -1.
          1    1    1    2  502    0 -0.28166641295E+02 -0.59809943046E+02  0.12888363494E+04  0.12905307918E+04  0.00000000000E+00 0. -1.
         22    1    3    3    0    0  0.55248897445E+02 -0.48606190950E+02 -0.16308835981E+02  0.75372280041E+02  0.00000000000E+00 0. -1.
         22    1    3    3    0    0  0.37060117833E+02  0.75417398482E+02 -0.13590369318E+02  0.85123054843E+02  0.00000000000E+00 0. -1.
</event>
<event>
 7    1  0.5593520E-006  0.6848138E+02  0.7818608E-02  0.1511207E+00
          2   -1    0    0  502    0  0.00000000000E+00  0.00000000000E+00  0.78067518658E+02  0.78067518658E+02  0.00000000000E+00 0. -1.
          1   -1    0    0  501    0 -0.00000000000E+00 -0.00000000000E+00 -0.41823612127E+03  0.41823612127E+03  0.00000000000E+00 0. -1.
         25    2    1    2    0    0  0.44810877621E+02 -0.30142872598E+02 -0.25102685265E+03  0.28557556394E+03  0.12498925733E+03 0.  0.
          2    1    1    2  501    0  0.21370665854E+02  0.82121618696E+01 -0.12859610529E+03  0.13061815822E+03  0.00000000000E+00 0. -1.
          1    1    1    2  502    0 -0.66181543475E+02  0.21930710728E+02  0.39454355327E+02  0.80109917764E+02  0.00000000000E+00 0. -1.
         22    1    3    3    0    0  0.18687532062E+02  0.29086094907E+02 -0.99741110664E+01  0.35982046399E+02  0.00000000000E+00 0.  1.
         22    1    3    3    0    0  0.26123345559E+02 -0.59228967504E+02 -0.24105274158E+03  0.24959351754E+03  0.00000000000E+00 0.  1.
</event>
<event>
 7    1  0.5593520E-006  0.1760533E+03  0.7818608E-02  0.1347938E+00
          2   -1    0    0  502    0  0.00000000000E+00  0.00000000000E+00  0.60985147362E+03  0.60985147362E+03  0.00000000000E+00 0. -1.
          1   -1    0    0  501    0 -0.00000000000E+00 -0.00000000000E+00 -0.60853185369E+03  0.60853185369E+03  0.00000000000E+00 0. -1.
         25    2    1    2    0    0  0.10556439115E+03  0.11437642717E+03 -0.12207601795E+03  0.23399397432E+03  0.12499927236E+03 0.  0.
          2    1    1    2  501    0 -0.13480462753E+03 -0.12422492126E+03 -0.41051653028E+03  0.44958641026E+03  0.00000000000E+00 0. -1.
          1    1    1    2  502    0  0.29240236375E+02  0.98484940912E+01  0.53391216815E+03  0.53480294273E+03  0.00000000000E+00 0. -1.
         22    1    3    3    0    0  0.79295213902E+02  0.35630724799E+02 -0.68701619493E+00  0.86935329347E+02  0.00000000000E+00 0.  1.
         22    1    3    3    0    0  0.26269177249E+02  0.78745702366E+02 -0.12138900175E+03  0.14705864497E+03  0.00000000000E+00 0.  1.
</event>
<event>
 7    1  0.5593520E-006  0.1333435E+03  0.7818608E-02  0.1340313E+00
          2   -1    0    0  502    0  0.00000000000E+00  0.00000000000E+00  0.15307605079E+03  0.15307605079E+03  0.00000000000E+00 0. -1.
          1   -1    0    0  501    0 -0.00000000000E+00 -0.00000000000E+00 -0.67530879859E+03  0.67530879859E+03  0.00000000000E+00 0. -1.
         25    2    1    2    0    0 -0.26633155598E+01  0.17199461986E+03 -0.40092802437E+03  0.45382650796E+03  0.12500390430E+03 0.  0.
          2    1    1    2  501    0 -0.10067232092E+02 -0.42319405322E+02 -0.21160371662E+03  0.21602873447E+03  0.00000000000E+00 0. -1.
          1    1    1    2  502    0  0.12730547652E+02 -0.12967521454E+03  0.90298993192E+02  0.15852960695E+03  0.00000000000E+00 0. -1.
         22    1    3    3    0    0  0.14417375776E+02 -0.17276978434E+02 -0.38398929447E+02  0.44506544359E+02  0.00000000000E+00 0. -1.
         22    1    3    3    0    0 -0.17080691336E+02  0.18927159829E+03 -0.36252909492E+03  0.40931996360E+03  0.00000000000E+00 0. -1.
</event>
<event>
 7    1  0.5593520E-006  0.1081453E+03  0.7818608E-02  0.1404000E+00
          2   -1    0    0  502    0  0.00000000000E+00  0.00000000000E+00  0.13422334310E+04  0.13422334310E+04  0.00000000000E+00 0. -1.
          1   -1    0    0  501    0 -0.00000000000E+00 -0.00000000000E+00 -0.92459136715E+02  0.92459136715E+02  0.00000000000E+00 0. -1.
         25    2    1    2    0    0  0.11664127597E+03  0.11259603860E+02  0.67274870516E+03  0.69422601113E+03  0.12500787293E+03 0.  0.
          2    1    1    2  501    0 -0.10071372999E+03 -0.38672299575E+02 -0.45534969762E+02  0.11709925548E+03  0.00000000000E+00 0. -1.
          1    1    1    2  502    0 -0.15927545979E+02  0.27412695715E+02  0.62256055894E+03  0.62336730116E+03  0.00000000000E+00 0. -1.
         22    1    3    3    0    0  0.14259561560E+03  0.36924764415E+00  0.58189903753E+03  0.59911612882E+03  0.00000000000E+00 0.  1.
         22    1    3    3    0    0 -0.25954339634E+02  0.10890356216E+02  0.90849667630E+02  0.95109882309E+02  0.00000000000E+00 0.  1.
</event>
<event>
 7    1  0.5593520E-006  0.7508946E+02  0.7818608E-02  0.1465825E+00
          2   -1    0    0  502    0  0.00000000000E+00  0.00000000000E+00  0.10349513432E+04  0.10349513432E+04  0.00000000000E+00 0. -1.
          1   -1    0    0  501    0 -0.00000000000E+00 -0.00000000000E+00 -0.64834893608E+03  0.64834893608E+03  0.00000000000E+00 0. -1.
         25    2    1    2    0    0 -0.74500576863E+02 -0.47617002900E+02 -0.12419492838E+03  0.19713882287E+03  0.12498648058E+03 0.  0.
          2    1    1    2  501    0  0.71864030070E+02  0.19074664893E+02 -0.48464060052E+03  0.49031091496E+03  0.00000000000E+00 0. -1.
          1    1    1    2  502    0  0.26365467931E+01  0.28542338006E+02  0.99543793598E+03  0.99585054141E+03  0.00000000000E+00 0. -1.
         22    1    3    3    0    0  0.33122727481E+02 -0.19235530210E+02 -0.14760884305E+02  0.41048805143E+02  0.00000000000E+00 0. -1.
         22    1    3    3    0    0 -0.10762330434E+03 -0.28381472690E+02 -0.10943404407E+03  0.15609001772E+03  0.00000000000E+00 0. -1.
</event>
<event>
 7    1  0.5593520E-006  0.8132055E+02  0.7818608E-02  0.1350668E+00
          2   -1    0    0  502    0  0.00000000000E+00  0.00000000000E+00  0.22093030601E+04  0.22093030601E+04  0.00000000000E+00 0. -1.
          1   -1    0    0  501    0 -0.00000000000E+00 -0.00000000000E+00 -0.36623354801E+04  0.36623354801E+04  0.00000000000E+00 0. -1.
         25    2    1    2    0    0  0.37542797434E+02 -0.10479626007E+03  0.39183760562E+02  0.17190569169E+03  0.12499792790E+03 0.  0.
          2    1    1    2  501    0  0.22062064321E+02  0.78227877971E+02 -0.35950089798E+04  0.35959276829E+04  0.00000000000E+00 0. -1.
          1    1    1    2  502    0 -0.59604861755E+02  0.26568382097E+02  0.21027927993E+04  0.21038051657E+04  0.00000000000E+00 0. -1.
         22    1    3    3    0    0 -0.11195081298E+02 -0.29593271348E+02  0.70259764808E+02  0.77055344430E+02  0.00000000000E+00 0.  1.
         22    1    3    3    0    0  0.48737878732E+02 -0.75202988719E+02 -0.31076004245E+02  0.94850347260E+02  0.00000000000E+00 0.  1.
</event>
<event>
 7    1  0.5593520E-006  0.6772467E+02  0.7818608E-02  0.1445386E+00
          2   -1    0    0  502    0  0.00000000000E+00  0.00000000000E+00  0.35385105376E+03  0.35385105376E+03  0.00000000000E+00 0. -1.
          1   -1    0    0  501    0 -0.00000000000E+00 -0.00000000000E+00 -0.26409413897E+04  0.26409413897E+04  0.00000000000E+00 0. -1.
         25    2    1    2    0    0 -0.14051323026E+02 -0.52821737503E+02 -0.21130698335E+02  0.13805505963E+03  0.12500046978E+03 0.  0.
          2    1    1    2  501    0  0.34599754572E+02 -0.12830121920E+02 -0.25572083501E+04  0.25574745943E+04  0.00000000000E+00 0. -1.
          1    1    1    2  502    0 -0.20548431546E+02  0.65651859423E+02  0.29124871245E+03  0.29926278951E+03  0.00000000000E+00 0. -1.
         22    1    3    3    0    0 -0.62128719918E+02 -0.60027500809E+02 -0.23017558512E+02  0.89404064180E+02  0.00000000000E+00 0.  1.
         22    1    3    3    0    0  0.48077396892E+02  0.72057633062E+01  0.18868601775E+01  0.48650995447E+02  0.00000000000E+00 0.  1.
</event>
<event>
 7    1  0.5593520E-006  0.2646740E+03  0.7818608E-02  0.1330147E+00
          2   -1    0    0  502    0  0.00000000000E+00  0.00000000000E+00  0.14753686304E+04  0.14753686304E+04  0.00000000000E+00 0. -1.
          1   -1    0    0  501    0 -0.00000000000E+00 -0.00000000000E+00 -0.32042520800E+03  0.32042520800E+03  0.00000000000E+00 0. -1.
         25    2    1    2    0    0 -0.14336865707E+03  0.21683509426E+03  0.29843173315E+03  0.41504004972E+03  0.12499885436E+03 0.  0.
          2    1    1    2  501    0 -0.22368131692E+02 -0.85561396803E+01 -0.24569680310E+03  0.24686121586E+03  0.00000000000E+00 0. -1.
          1    1    1    2  502    0  0.16573678876E+03 -0.20827895458E+03  0.11022084923E+04  0.11338925728E+04  0.00000000000E+00 0. -1.
         22    1    3    3    0    0 -0.59131217632E+02  0.96931048639E+02  0.44683553674E+02  0.12201946180E+03  0.00000000000E+00 0. -1.
         22    1    3    3    0    0 -0.84237439435E+02  0.11990404562E+03  0.25374817948E+03  0.29302058792E+03  0.00000000000E+00 0. -1.
</event>
<event>
 7    1  0.5593520E-006  0.4019431E+02  0.7818608E-02  0.1566912E+00
          2   -1    0    0  502    0  0.00000000000E+00  0.00000000000E+00  0.99186518393E+03  0.99186518393E+03  0.00000000000E+00 0. -1.
          1   -1    0    0  501    0 -0.00000000000E+00 -0.00000000000E+00 -0.80036969502E+03  0.80036969502E+03  0.00000000000E+00 0. -1.
         25    2    1    2    0    0  0.16376126568E+02  0.32422584074E+01 -0.15220820016E+03  0.19766318325E+03  0.12499883221E+03 0.  0.
          2    1    1    2  501    0 -0.32211732877E+02 -0.25268286012E+02 -0.62457386394E+03  0.62591420620E+03  0.00000000000E+00 0. -1.
          1    1    1    2  502    0  0.15835606309E+02  0.22026027605E+02  0.96827755300E+03  0.96865748950E+03  0.00000000000E+00 0. -1.
         22    1    3    3    0    0 -0.18051726165E+01  0.22636656362E+01  0.22159291705E+02  0.22347640572E+02  0.00000000000E+00 0.  1.
         22    1    3    3    0    0  0.18181299184E+02  0.97859277121E+00 -0.17436749186E+03  0.17531554267E+03  0.00000000000E+00 0.  1.
</event>
<event>
 7    1  0.5593520E-006  0.3175940E+02  0.7818608E-02  0.1602203E+00
          2   -1    0    0  502    0  0.00000000000E+00  0.00000000000E+00  0.78439970870E+03  0.78439970870E+03  0.00000000000E+00 0. -1.
          1   -1    0    0  501    0 -0.00000000000E+00 -0.00000000000E+00 -0.12844411374E+03  0.12844411374E+03  0.00000000000E+00 0. -1.
         25    2    1    2    0    0  0.51397453003E+02  0.20105504238E+02  0.70886170144E+02  0.15393309782E+03  0.12499848004E+03 0.  0.
          2    1    1    2  501    0 -0.19830445100E+02 -0.19261716151E+02 -0.84340835667E+02  0.88756052317E+02  0.00000000000E+00 0. -1.
          1    1    1    2  502    0 -0.31567007904E+02 -0.84378808703E+00  0.66941026048E+03  0.67015467230E+03  0.00000000000E+00 0. -1.
         22    1    3    3    0    0 -0.33578069628E+02 -0.48340137682E+01  0.54009089326E+02  0.63779590614E+02  0.00000000000E+00 0. -1.
         22    1    3    3    0    0  0.84975522631E+02  0.24939518006E+02  0.16877080818E+02  0.90153507207E+02  0.00000000000E+00 0. -1.
</event>
<event>
 7    1  0.5593520E-006  0.1519848E+03  0.7818608E-02  0.1294491E+00
          2   -1    0    0  502    0  0.00000000000E+00  0.00000000000E+00  0.50077560192E+03  0.50077560192E+03  0.00000000000E+00 0. -1.
          1   -1    0    0  501    0 -0.00000000000E+00 -0.00000000000E+00 -0.42225561767E+03  0.42225561767E+03  0.00000000000E+00 0. -1.
         25    2    1    2    0    0  0.30694460399E+02  0.98378611318E+02 -0.14685836261E+03  0.21866145134E+03  0.12499980228E+03 0.  0.
          2    1    1    2  501    0 -0.12575054278E+02  0.56183801575E+02 -0.22270766577E+03  0.23002925019E+03  0.00000000000E+00 0. -1.
          1    1    1    2  502    0 -0.18119406121E+02 -0.15456241289E+03  0.44808601263E+03  0.47434051806E+03  0.00000000000E+00 0. -1.
         22    1    3    3    0    0  0.71382350254E+02  0.97309277910E+02 -0.10123974645E+03  0.15752467031E+03  0.00000000000E+00 0.  1.
         22    1    3    3    0    0 -0.40687889855E+02  0.10693334087E+01 -0.45618616153E+02  0.61136781028E+02  0.00000000000E+00 0.  1.
</event>
<event>
 7    1  0.5593520E-006  0.1207223E+03  0.7818608E-02  0.1410391E+00
          2   -1    0    0  502    0  0.00000000000E+00  0.00000000000E+00  0.79016169984E+03  0.79016169984E+03  0.00000000000E+00 0. -1.
          1   -1    0    0  501    0 -0.00000000000E+00 -0.00000000000E+00 -0.71677444754E+03  0.71677444754E+03  0.00000000000E+00 0. -1.
         25    2    1    2    0    0 -0.13219087145E+03 -0.52080921946E+02  0.68243481676E+01  0.18936278010E+03  0.12499936733E+03 0.  0.
          2    1    1    2  501    0  0.26689407345E+02 -0.41747317900E+01 -0.62004497868E+03  0.62063316737E+03  0.00000000000E+00 0. -1.
          1    1    1    2  502    0  0.10550146411E+03  0.56255653736E+02  0.68660788282E+03  0.69694019991E+03  0.00000000000E+00 0. -1.
         22    1    3    3    0    0 -0.89622698217E+02 -0.58334082250E+02  0.58683900003E+02  0.12197906914E+03  0.00000000000E+00 0. -1.
         22    1    3    3    0    0 -0.42568173234E+02  0.62531603036E+01 -0.51859551836E+02  0.67383710961E+02  0.00000000000E+00 0. -1.
</event>
<event>
 7    1  0.5593520E-006  0.4931919E+02  0.7818608E-02  0.1533620E+00
          2   -1    0    0  502    0  0.00000000000E+00  0.00000000000E+00  0.32519674489E+04  0.32519674489E+04  0.00000000000E+00 0. -1.
          1   -1    0    0  501    0 -0.00000000000E+00 -0.00000000000E+00 -0.16104781579E+04  0.16104781579E+04  0.00000000000E+00 0. -1.
         25    2    1    2    0    0 -0.73400720781E+02  0.21969857126E+02  0.14537901790E+02  0.14733215805E+03  0.12500029509E+03 0.  0.
          2    1    1    2  501    0  0.26272794488E+02 -0.77011919865E+01 -0.15437684908E+04  0.15440112439E+04  0.00000000000E+00 0. -1.
          1    1    1    2  502    0  0.47127926293E+02 -0.14268665139E+02  0.31707198800E+04  0.31711022049E+04  0.00000000000E+00 0. -1.
         22    1    3    3    0    0  0.42272102334E+00  0.61643959548E+02 -0.29586327712E+01  0.61716366952E+02  0.00000000000E+00 0.  1.
         22    1    3    3    0    0 -0.73823441805E+02 -0.39674102422E+02  0.17496534561E+02  0.85615791093E+02  0.00000000000E+00 0.  1.
</event>
<event>
 7    1  0.5593520E-006  0.1325225E+03  0.7818608E-02  0.1300430E+00
          2   -1    0    0  502    0  0.00000000000E+00  0.00000000000E+00  0.63872119919E+03  0.63872119919E+03  0.00000000000E+00 0. -1.
          1   -1    0    0  501    0 -0.00000000000E+00 -0.00000000000E+00 -0.28868267302E+03  0.28868267302E+03  0.00000000000E+00 0. -1.
         25    2    1    2    0    0  0.32506297517E+02 -0.76977943755E+02  0.10433829863E+03  0.18301238366E+03  0.12499915523E+03 0.  0.
          2    1    1    2  501    0  0.22602860263E+02 -0.58267675331E+02 -0.23439026859E+03  0.24257949067E+03  0.00000000000E+00 0. -1.
          1    1    1    2  502    0 -0.55109157780E+02  0.13524561909E+03  0.48009049614E+03  0.50181199790E+03  0.00000000000E+00 0. -1.
         22    1    3    3    0    0  0.40612075824E+02 -0.14207335424E+02  0.11131159228E+03  0.11933758694E+03  0.00000000000E+00 0.  1.
         22    1    3    3    0    0 -0.81057783069E+01 -0.62770608331E+02 -0.69732936491E+01  0.63674796714E+02  0.00000000000E+00 0.  1.
</event>
<event>
 7    1  0.5593520E-006  0.7355531E+02  0.7818608E-02  0.1500122E+00
          2   -1    0    0  502    0  0.00000000000E+00  0.00000000000E+00  0.17406571729E+04  0.17406571729E+04  0.00000000000E+00 0. -1.
          1   -1    0    0  501    0 -0.00000000000E+00 -0.00000000000E+00 -0.10813528264E+03  0.10813528264E+03  0.00000000000E+00 0. -1.
         25    2    1    2    0    0  0.88683305543E+02  0.32206778556E+02  0.13990373340E+03  0.21000282736E+03  0.12500451038E+03 0.  0.
          2    1    1    2  501    0 -0.67846601272E+02 -0.22495986738E+02 -0.55503130620E+02  0.90497669760E+02  0.00000000000E+00 0. -1.
          1    1    1    2  502    0 -0.20836704271E+02 -0.97107918183E+01  0.15481212875E+04  0.15482919584E+04  0.00000000000E+00 0. -1.
         22    1    3    3    0    0  0.24402211714E+02 -0.19030378299E+02  0.12201237744E+03  0.12587550787E+03  0.00000000000E+00 0.  1.
         22    1    3    3    0    0  0.64281093829E+02  0.51237156855E+02  0.17891355959E+02  0.84127319489E+02  0.00000000000E+00 0.  1.
</event>
<event>
 7    1  0.5593520E-006  0.1220302E+03  0.7818608E-02  0.1389023E+00
          2   -1    0    0  502    0  0.00000000000E+00  0.00000000000E+00  0.10119224619E+04  0.10119224619E+04  0.00000000000E+00 0. -1.
          1   -1    0    0  501    0 -0.00000000000E+00 -0.00000000000E+00 -0.59874053072E+03  0.59874053072E+03  0.00000000000E+00 0. -1.
         25    2    1    2    0    0 -0.57059239190E+02  0.13623802064E+03 -0.18156221858E+03  0.26534149836E+03  0.12499886596E+03 0.  0.
          2    1    1    2  501    0  0.49346769656E+02 -0.10553848942E+03 -0.36597970854E+03  0.38407632508E+03  0.00000000000E+00 0. -1.
          1    1    1    2  502    0  0.77124695343E+01 -0.30699531222E+02  0.96072385825E+03  0.96124516915E+03  0.00000000000E+00 0. -1.
         22    1    3    3    0    0 -0.39523468128E+02  0.59960414741E+02 -0.17212695467E+03  0.18650749152E+03  0.00000000000E+00 0. -1.
         22    1    3    3    0    0 -0.17535771062E+02  0.76277605902E+02 -0.94352639016E+01  0.78834006836E+02  0.00000000000E+00 0. -1.
</event>
<event>
 7    1  0.5593520E-006  0.1057448E+03  0.7818608E-02  0.1411707E+00
          2   -1    0    0  502    0  0.00000000000E+00  0.00000000000E+00  0.29086659275E+03  0.29086659275E+03  0.00000000000E+00 0. -1.
          1   -1    0    0  501    0 -0.00000000000E+00 -0.00000000000E+00 -0.16728274379E+04  0.16728274379E+04  0.00000000000E+00 0. -1.
         25    2    1    2    0    0 -0.77781837611E+02  0.34890495712E+00  0.25962211094E+02  0.14950004367E+03  0.12500436254E+03 0.  0.
          2    1    1    2  501    0  0.10550078997E+03 -0.13133971182E+02 -0.16081465384E+04  0.16116569755E+04  0.00000000000E+00 0. -1.
          1    1    1    2  502    0 -0.27718952360E+02  0.12785066225E+02  0.20022348210E+03  0.20253701148E+03  0.00000000000E+00 0. -1.
         22    1    3    3    0    0 -0.80312247380E+00 -0.53344877301E+02  0.10670918460E+02  0.54407623002E+02  0.00000000000E+00 0. -1.
         22    1    3    3    0    0 -0.76978715137E+02  0.53693782258E+02  0.15291292634E+02  0.95092420663E+02  0.00000000000E+00 0. -1.
</event>
<event>
 7    1  0.5593520E-006  0.1223809E+03  0.7818608E-02  0.1362747E+00
          2   -1    0    0  502    0  0.00000000000E+00  0.00000000000E+00  0.10446287977E+04  0.10446287977E+04  0.00000000000E+00 0. -1.
          1   -1    0    0  501    0 -0.00000000000E+00 -0.00000000000E+00 -0.69201969385E+03  0.69201969385E+03  0.00000000000E+00 0. -1.
         25    2    1    2    0    0 -0.73207497616E+02 -0.70439929984E+02  0.21369618459E+02  0.16248930552E+03  0.12499996949E+03 0.  0.
          2    1    1    2  501    0 -0.36740131374E+02  0.13546368049E+02 -0.61681481501E+03  0.61805651631E+03  0.00000000000E+00 0. -1.
          1    1    1    2  502    0  0.10994762899E+03  0.56893561935E+02  0.94805430044E+03  0.95610266975E+03  0.00000000000E+00 0. -1.
         22    1    3    3    0    0 -0.30855894314E+02 -0.73895705562E+02  0.63839717713E+02  0.10241177214E+03  0.00000000000E+00 0.  1.
         22    1    3    3    0    0 -0.42351603301E+02  0.34557755778E+01 -0.42470099254E+02  0.60077533386E+02  0.00000000000E+00 0.  1.
</event>
<event>
 7    1  0.5593520E-006  0.1215472E+03  0.7818608E-02  0.1387163E+00
          2   -1    0    0  502    0  0.00000000000E+00  0.00000000000E+00  0.59659807381E+03  0.59659807381E+03  0.00000000000E+00 0. -1.
          1   -1    0    0  501    0 -0.00000000000E+00 -0.00000000000E+00 -0.14849755430E+04  0.14849755430E+04  0.00000000000E+00 0. -1.
         25    2    1    2    0    0 -0.84330098628E+02 -0.30301752602E+02  0.22978376252E+03  0.27650591799E+03  0.12500073368E+03 0.  0.
          2    1    1    2  501    0  0.11466054438E+03  0.41288503632E+02 -0.14583097004E+04  0.14633929627E+04  0.00000000000E+00 0. -1.
          1    1    1    2  502    0 -0.30330445756E+02 -0.10986751030E+02  0.34014846864E+03  0.34167473620E+03  0.00000000000E+00 0. -1.
         22    1    3    3    0    0 -0.11140945064E+03 -0.32757398259E+01  0.14028020675E+03  0.17916844747E+03  0.00000000000E+00 0. -1.
         22    1    3    3    0    0  0.27079352010E+02 -0.27026012776E+02  0.89503555768E+02  0.97337470518E+02  0.00000000000E+00 0. -1.
</event>
<event>
 7    1  0.5593520E-006  0.3671766E+03  0.7818608E-02  0.1253721E+00
          2   -1    0    0  502    0  0.00000000000E+00  0.00000000000E+00  0.21775115344E+04  0.21775115344E+04  0.00000000000E+00 0. -1.
          1   -1    0    0  501    0 -0.00000000000E+00 -0.00000000000E+00 -0.10737834749E+04  0.10737834749E+04  0.00000000000E+00 0. -1.
         25    2    1    2    0    0  0.15499866447E+03  0.36471651227E+03  0.35029644218E+02  0.41700597458E+03  0.12499674616E+03 0.  0.
          2    1    1    2  501    0 -0.15028748402E+03 -0.32977289785E+03 -0.84543274445E+03  0.91983314650E+03  0.00000000000E+00 0. -1.
          1    1    1    2  502    0 -0.47111804489E+01 -0.34943614426E+02  0.19141311597E+04  0.19144558882E+04  0.00000000000E+00 0. -1.
         22    1    3    3    0    0  0.14232314751E+03  0.21553715975E+03 -0.16128375882E+02  0.25879001152E+03  0.00000000000E+00 0.  1.
         22    1    3    3    0    0  0.12675516957E+02  0.14917935252E+03  0.51158020100E+02  0.15821596307E+03  0.00000000000E+00 0.  1.
</event>
<event>
 7    1  0.5593520E-006  0.5648215E+02  0.7818608E-02  0.1432063E+00
          2   -1    0    0  502    0  0.00000000000E+00  0.00000000000E+00  0.82628760690E+02  0.82628760690E+02  0.00000000000E+00 0. -1.
          1   -1    0    0  501    0 -0.00000000000E+00 -0.00000000000E+00 -0.35415511345E+03  0.35415511345E+03  0.00000000000E+00 0. -1.
         25    2    1    2    0    0  0.51294111906E+01  0.15349948899E+02 -0.80899273288E+02  0.14977075299E+03  0.12499861697E+03 0.  0.
          2    1    1    2  501    0  0.17076961866E+01  0.48858378012E+02 -0.21310535032E+03  0.21864113900E+03  0.00000000000E+00 0. -1.
          1    1    1    2  502    0 -0.68371073773E+01 -0.64208326911E+02  0.22478270849E+02  0.68371982145E+02  0.00000000000E+00 0. -1.
         22    1    3    3    0    0  0.15465393613E+02  0.68752139069E+02 -0.55694453467E+02  0.89821529564E+02  0.00000000000E+00 0. -1.
         22    1    3    3    0    0 -0.10335982423E+02 -0.53402190170E+02 -0.25204819821E+02  0.59949223430E+02  0.00000000000E+00 0. -1.
</event>
<event>
 7    1  0.5593520E-006  0.4591899E+02  0.7818608E-02  0.1587407E+00
          2   -1    0    0  502    0  0.00000000000E+00  0.00000000000E+00  0.10029159889E+04  0.10029159889E+04  0.00000000000E+00 0. -1.
          1   -1    0    0  501    0 -0.00000000000E+00 -0.00000000000E+00 -0.10027264035E+03  0.10027264035E+03  0.00000000000E+00 0. -1.
         25    2    1    2    0    0  0.27697729822E+02 -0.13690274659E+02  0.18776501764E+03  0.22766164632E+03  0.12497814007E+03 0.  0.
          2    1    1    2  501    0 -0.31381707784E+02  0.34276572288E+02 -0.73452228809E+02  0.86919071028E+02  0.00000000000E+00 0. -1.
          1    1    1    2  502    0  0.36839779617E+01 -0.20586297630E+02  0.78833055976E+03  0.78860791196E+03  0.00000000000E+00 0. -1.
         22    1    3    3    0    0 -0.22536648004E+02 -0.26718006444E+02  0.16884363048E+03  0.17242367565E+03  0.00000000000E+00 0.  1.
         22    1    3    3    0    0  0.50234377827E+02  0.13027731785E+02  0.18921387164E+02  0.55237970666E+02  0.00000000000E+00 0.  1.
</event>
<event>
 7    1  0.5593520E-006  0.4581268E+02  0.7818608E-02  0.1471736E+00
          2   -1    0    0  502    0  0.00000000000E+00  0.00000000000E+00  0.16054192351E+03  0.16054192351E+03  0.00000000000E+00 0. -1.
          1   -1    0    0  501    0 -0.00000000000E+00 -0.00000000000E+00 -0.14439588941E+04  0.14439588941E+04  0.00000000000E+00 0. -1.
         25    2    1    2    0    0  0.67370804963E+00 -0.15820671891E+01 -0.58365873520E+02  0.13794804457E+03  0.12498052245E+03 0.  0.
          2    1    1    2  501    0 -0.42494249081E+02  0.18280157366E+02 -0.13411909769E+04  0.13419885103E+04  0.00000000000E+00 0. -1.
          1    1    1    2  502    0  0.41820541032E+02 -0.16698090177E+02  0.11613987981E+03  0.12456426273E+03  0.00000000000E+00 0. -1.
         22    1    3    3    0    0 -0.45862253285E+02  0.14207182951E+02 -0.72371625684E+02  0.86849539595E+02  0.00000000000E+00 0. -1.
         22    1    3    3    0    0  0.46535961334E+02 -0.15789250140E+02  0.14005752165E+02  0.51098504978E+02  0.00000000000E+00 0. -1.
</event>
<event>
 7    1  0.5593520E-006  0.9581606E+02  0.7818608E-02  0.1292755E+00
          2   -1    0    0  502    0  0.00000000000E+00  0.00000000000E+00  0.99038169456E+02  0.99038169456E+02  0.00000000000E+00 0. -1.
          1   -1    0    0  501    0 -0.00000000000E+00 -0.00000000000E+00 -0.38732552608E+04  0.38732552608E+04  0.00000000000E+00 0. -1.
         25    2    1    2    0    0 -0.26084206989E+02 -0.45871127283E+00 -0.55364871209E+03  0.56818369170E+03  0.12500085938E+03 0.  0.
          2    1    1    2  501    0  0.37596486926E+02 -0.94663237122E+02 -0.32863231800E+04  0.32879012558E+04  0.00000000000E+00 0. -1.
          1    1    1    2  502    0 -0.11512279937E+02  0.95121948395E+02  0.65754800730E+02  0.11620848280E+03  0.00000000000E+00 0. -1.
         22    1    3    3    0    0 -0.70610157413E+02 -0.15999497640E+02 -0.42586006017E+03  0.43197056509E+03  0.00000000000E+00 0.  1.
         22    1    3    3    0    0  0.44525950424E+02  0.15540786367E+02 -0.12778865192E+03  0.13621312662E+03  0.00000000000E+00 0.  1.
</event>
<event>
 7    1  0.5593520E-006  0.9071445E+02  0.7818608E-02  0.1443337E+00
          2   -1    0    0  502    0  0.00000000000E+00  0.00000000000E+00  0.34252496517E+03  0.34252496517E+03  0.00000000000E+00 0. -1.
          1   -1    0    0  501    0 -0.00000000000E+00 -0.00000000000E+00 -0.74332206538E+03  0.74332206538E+03  0.00000000000E+00 0. -1.
         25    2    1    2    0    0 -0.11098091202E+01  0.65397455037E+02  0.13188824610E+03  0.19312612299E+03  0.12500052449E+03 0.  0.
          2    1    1    2  501    0  0.14332346575E+02 -0.90047359037E+02 -0.70867770336E+03  0.71451944009E+03  0.00000000000E+00 0. -1.
          1    1    1    2  502    0 -0.13222537455E+02  0.24649904000E+02  0.17599235705E+03  0.17820146746E+03  0.00000000000E+00 0. -1.
         22    1    3    3    0    0  0.15204007957E+02  0.50937379367E+02 -0.60269603688E+01  0.53498623590E+02  0.00000000000E+00 0.  1.
         22    1    3    3    0    0 -0.16313817077E+02  0.14460075669E+02  0.13791520646E+03  0.13962749940E+03  0.00000000000E+00 0.  1.
</event>
<event>
 7    1  0.5593520E-006  0.1083271E+03  0.7818608E-02  0.1305431E+00
          2   -1    0    0  502    0  0.00000000000E+00  0.00000000000E+00  0.22536950996E+04  0.22536950996E+04  0.00000000000E+00 0. -1.
          1   -1    0    0  501    0 -0.00000000000E+00 -0.00000000000E+00 -0.26810115462E+02  0.26810115462E+02  0.00000000000E+00 0. -1.
         25    2    1    2    0    0 -0.21698878123E+02  0.48497368227E+02  0.65752793614E+03  0.67140990905E+03  0.12500177249E+03 0.  0.
          2    1    1    2  501    0  0.40561646383E+02 -0.11904698636E+03  0.19028884248E+03  0.22809488309E+03  0.00000000000E+00 0. -1.
          1    1    1    2  502    0 -0.18862768259E+02  0.70549618138E+02  0.13790682055E+04  0.13810004229E+04  0.00000000000E+00 0. -1.
         22    1    3    3    0    0  0.22524225808E+02  0.39645624201E+02  0.57945771682E+03  0.58124896718E+03  0.00000000000E+00 0.  1.
         22    1    3    3    0    0 -0.44223103931E+02  0.88517440264E+01  0.78070219320E+02  0.90160941866E+02  0.00000000000E+00 0.  1.
</event>
<event>
 7    1  0.5593520E-006  0.3535542E+02  0.7818608E-02  0.1630152E+00
          2   -1    0    0  502    0  0.00000000000E+00  0.00000000000E+00  0.31053050243E+03  0.31053050243E+03  0.00000000000E+00 0. -1.
          1   -1    0    0  501    0 -0.00000000000E+00 -0.00000000000E+00 -0.10799726228E+04  0.10799726228E+04  0.00000000000E+00 0. -1.
         25    2    1    2    0    0 -0.22274680700E+02 -0.50524154417E+02  0.32017649501E+02  0.14035148996E+03  0.12499823708E+03 0.  0.
          2    1    1    2  501    0  0.90941385360E+01  0.34095780315E+02 -0.10250070650E+04  0.10256143080E+04  0.00000000000E+00 0. -1.
          1    1    1    2  502    0  0.13180542164E+02  0.16428374101E+02  0.22354729511E+03  0.22453732723E+03  0.00000000000E+00 0. -1.
         22    1    3    3    0    0  0.23905741418E+02 -0.57519652167E+01  0.63969020564E+02  0.68531782179E+02  0.00000000000E+00 0.  1.
         22    1    3    3    0    0 -0.46180422118E+02 -0.44772189200E+02 -0.31951371063E+02  0.71819707780E+02  0.00000000000E+00 0.  1.
</event>
<event>
 7    1  0.5593520E-006  0.1056565E+03  0.7818608E-02  0.1297668E+00
          2   -1    0    0  502    0  0.00000000000E+00  0.00000000000E+00  0.26184372056E+04  0.26184372056E+04  0.00000000000E+00 0. -1.
          1   -1    0    0  501    0 -0.00000000000E+00 -0.00000000000E+00 -0.74767943612E+03  0.74767943612E+03  0.00000000000E+00 0. -1.
         25    2    1    2    0    0  0.88832188128E+02  0.22057586005E+02  0.14256364011E+03  0.21054005309E+03  0.12500011090E+03 0.  0.
          2    1    1    2  501    0  0.10076139791E+01 -0.80407837436E+02 -0.71024635480E+03  0.71478410734E+03  0.00000000000E+00 0. -1.
          1    1    1    2  502    0 -0.89839802107E+02  0.58350251431E+02  0.24384404842E+04  0.24407924813E+04  0.00000000000E+00 0. -1.
         22    1    3    3    0    0  0.42420700545E+02 -0.11109114636E+02  0.14692490704E+03  0.15332924239E+03  0.00000000000E+00 0.  1.
         22    1    3    3    0    0  0.46411487583E+02  0.33166700641E+02 -0.43612669341E+01  0.57210810695E+02  0.00000000000E+00 0.  1.
</event>
<event>
 7    1  0.5593520E-006  0.7558182E+02  0.7818608E-02  0.1389190E+00
          2   -1    0    0  502    0  0.00000000000E+00  0.00000000000E+00  0.24494104297E+04  0.24494104297E+04  0.00000000000E+00 0. -1.
          1   -1    0    0  501    0 -0.00000000000E+00 -0.00000000000E+00 -0.52837308527E+02  0.52837308527E+02  0.00000000000E+00 0. -1.
         25    2    1    2    0    0  0.26199959372E+02  0.80354473734E+02  0.11414968521E+03  0.18920541107E+03  0.12500103048E+03 0.  0.
          2    1    1    2  501    0 -0.50309491139E+02 -0.85874707120E+01  0.29705524896E+02  0.59052584713E+02  0.00000000000E+00 0. -1.
          1    1    1    2  502    0  0.24109531767E+02 -0.71767003022E+02  0.22527179111E+04  0.22539897425E+04  0.00000000000E+00 0. -1.
         22    1    3    3    0    0 -0.53764728319E+01  0.94997994341E+02  0.32669614303E+02  0.10060233142E+03  0.00000000000E+00 0.  1.
         22    1    3    3    0    0  0.31576432204E+02 -0.14643520607E+02  0.81480070912E+02  0.88603079643E+02  0.00000000000E+00 0.  1.
</event>
<event>
 7    1  0.5593520E-006  0.4228860E+02  0.7818608E-02  0.1518899E+00
          2   -1    0    0  502    0  0.00000000000E+00  0.00000000000E+00  0.13813078157E+02  0.13813078157E+02  0.00000000000E+00 0. -1.
          1   -1    0    0  501    0 -0.00000000000E+00 -0.00000000000E+00 -0.11341865472E+04  0.11341865472E+04  0.00000000000E+00 0. -1.
         25    2    1    2    0    0  0.16048818130E+01 -0.70003956998E+02 -0.56076384376E+03  0.57877803587E+03  0.12499918678E+03 0.  0.
          2    1    1    2  501    0  0.12932889652E+02  0.37942281205E+02 -0.48575211563E+03  0.48740331777E+03  0.00000000000E+00 0. -1.
          1    1    1    2  502    0 -0.14537771465E+02  0.32061675794E+02 -0.73857509642E+02  0.81818271702E+02  0.00000000000E+00 0. -1.
         22    1    3    3    0    0  0.59641499180E+02 -0.45824421665E+02 -0.22675553531E+03  0.23890386945E+03  0.00000000000E+00 0. -1.
         22    1    3    3    0    0 -0.58036617367E+02 -0.24179535333E+02 -0.33400830845E+03  0.33987416642E+03  0.00000000000E+00 0. -1.
</event>
<event>
 7    1  0.5593520E-006  0.4990084E+02  0.7818608E-02  0.1534763E+00
          2   -1    0    0  502    0  0.00000000000E+00  0.00000000000E+00  0.16843722858E+03  0.16843722858E+03  0.00000000000E+00 0. -1.
          1   -1    0    0  501    0 -0.00000000000E+00 -0.00000000000E+00 -0.23312984553E+03  0.23312984553E+03  0.00000000000E+00 0. -1.
         25    2    1    2    0    0 -0.73955343573E+01  0.49076273683E+02  0.89015815563E+01  0.13478487107E+03  0.12499819498E+03 0.  0.
          2    1    1    2  501    0  0.32146630200E+02 -0.38651343231E+02 -0.16449044704E+03  0.17200127713E+03  0.00000000000E+00 0. -1.
          1    1    1    2  502    0 -0.24751095843E+02 -0.10424930453E+02  0.90896248526E+02  0.94780925911E+02  0.00000000000E+00 0. -1.
         22    1    3    3    0    0  0.18342849161E+02 -0.27152981731E+02  0.37127996966E+02  0.49520023131E+02  0.00000000000E+00 0.  1.
         22    1    3    3    0    0 -0.25738383518E+02  0.76229255415E+02 -0.28226415409E+02  0.85264847939E+02  0.00000000000E+00 0.  1.
</event>
<event>
 7    1  0.5593520E-006  0.1237392E+03  0.7818608E-02  0.1328863E+00
          2   -1    0    0  502    0  0.00000000000E+00  0.00000000000E+00  0.77281130343E+03  0.77281130343E+03  0.00000000000E+00 0. -1.
          1   -1    0    0  501    0 -0.00000000000E+00 -0.00000000000E+00 -0.13026862798E+04  0.13026862798E+04  0.00000000000E+00 0. -1.
         25    2    1    2    0    0  0.11757555886E+03  0.10158384559E+03 -0.76905823585E+02  0.21373413870E+03  0.12499794645E+03 0.  0.
          2    1    1    2  501    0 -0.65798652424E+02 -0.10336581489E+03 -0.11531634797E+04  0.11596551061E+04  0.00000000000E+00 0. -1.
          1    1    1    2  502    0 -0.51776906436E+02  0.17819693059E+01  0.70019432689E+03  0.70210833840E+03  0.00000000000E+00 0. -1.
         22    1    3    3    0    0  0.57731425658E+02  0.93874147433E+00 -0.77494746571E+02  0.96639714870E+02  0.00000000000E+00 0.  1.
         22    1    3    3    0    0  0.59844133202E+02  0.10064510411E+03  0.58892298573E+00  0.11709442383E+03  0.00000000000E+00 0.  1.
</event>
<event>
 7    1  0.5593520E-006  0.1016995E+03  0.7818608E-02  0.1313955E+00
          2   -1    0    0  502    0  0.00000000000E+00  0.00000000000E+00  0.91296136860E+03  0.91296136860E+03  0.00000000000E+00 0. -1.
          1   -1    0    0  501    0 -0.00000000000E+00 -0.00000000000E+00 -0.16159485348E+03  0.16159485348E+03  0.00000000000E+00 0. -1.
         25    2    1    2    0    0  0.98628425926E+02 -0.13947028478E+03 -0.24065012300E+02  0.21303523628E+03  0.12500144136E+03 0.  0.
          2    1    1    2  501    0 -0.33601518022E+02  0.63672487441E+02 -0.73732623198E+01  0.72371352534E+02  0.00000000000E+00 0. -1.
          1    1    1    2  502    0 -0.65026907904E+02  0.75797797342E+02  0.78280478974E+03  0.78914963326E+03  0.00000000000E+00 0. -1.
         22    1    3    3    0    0  0.29567574917E+02  0.14762187090E+02 -0.29010312105E+02  0.43974559266E+02  0.00000000000E+00 0.  1.
         22    1    3    3    0    0  0.69060851009E+02 -0.15423247187E+03  0.49452998058E+01  0.16906067701E+03  0.00000000000E+00 0.  1.
</event>
<event>
 7    1  0.5593520E-006  0.2021547E+03  0.7818608E-02  0.1184585E+00
          2   -1    0    0  502    0  0.00000000000E+00  0.00000000000E+00  0.26466232590E+04  0.26466232590E+04  0.00000000000E+00 0. -1.
          1   -1    0    0  501    0 -0.00000000000E+00 -0.00000000000E+00 -0.34682461798E+03  0.34682461798E+03  0.00000000000E+00 0. -1.
         25    2    1    2    0    0 -0.30619579584E+02  0.10382032927E+03  0.23904713524E+03  0.29066462582E+03  0.12500468957E+03 0.  0.
          2    1    1    2  501    0 -0.11579355704E+03  0.64518413421E+02 -0.30184915163E+03  0.32967208535E+03  0.00000000000E+00 0. -1.
          1    1    1    2  502    0  0.14641313662E+03 -0.16833874269E+03  0.23626006574E+04  0.23731111658E+04  0.00000000000E+00 0. -1.
         22    1    3    3    0    0  0.46661475150E+02  0.42020760022E+02  0.12342676150E+03  0.13848177855E+03  0.00000000000E+00 0. -1.
         22    1    3    3    0    0 -0.77281054734E+02  0.61799569251E+02  0.11562037374E+03  0.15218284728E+03  0.00000000000E+00 0. -1.
</event>
<event>
 7    1  0.5593520E-006  0.1155640E+03  0.7818608E-02  0.1396393E+00
          2   -1    0    0  502    0  0.00000000000E+00  0.00000000000E+00  0.13953434705E+04  0.13953434705E+04  0.00000000000E+00 0. -1.
          1   -1    0    0  501    0 -0.00000000000E+00 -0.00000000000E+00 -0.19990362550E+03  0.19990362550E+03  0.00000000000E+00 0. -1.
         25    2    1    2    0    0  0.87957774387E+01 -0.12743999971E+03  0.26257208043E+03  0.31762769276E+03  0.12499973826E+03 0.  0.
          2    1    1    2  501    0 -0.34767882121E+02  0.10959812085E+03 -0.15294778169E+03  0.19134674715E+03  0.00000000000E+00 0. -1.
          1    1    1    2  502    0  0.25972104682E+02  0.17841878859E+02  0.10858155463E+04  0.10862726561E+04  0.00000000000E+00 0. -1.
         22    1    3    3    0    0 -0.29019404497E+02 -0.79570265172E+02  0.23664028540E+03  0.25134075994E+03  0.00000000000E+00 0.  1.
         22    1    3    3    0    0  0.37815181936E+02 -0.47869734533E+02  0.25931795035E+02  0.66286932821E+02  0.00000000000E+00 0.  1.
</event>
<event>
 7    1  0.5593520E-006  0.5886512E+02  0.7818608E-02  0.1440637E+00
          2   -1    0    0  502    0  0.00000000000E+00  0.00000000000E+00  0.32796176958E+04  0.32796176958E+04  0.00000000000E+00 0. -1.
          1   -1    0    0  501    0 -0.00000000000E+00 -0.00000000000E+00 -0.72767009339E+02  0.72767009339E+02  0.00000000000E+00 0. -1.
         25    2    1    2    0    0  0.89865087600E+01 -0.22094085597E+02  0.15908596986E+03  0.20371731592E+03  0.12499397202E+03 0.  0.
          2    1    1    2  501    0  0.85670675547E+01  0.62422475318E+02 -0.30560564489E+02  0.70027909959E+02  0.00000000000E+00 0. -1.
          1    1    1    2  502    0 -0.17553576315E+02 -0.40328389721E+02  0.30783252811E+04  0.30786394793E+04  0.00000000000E+00 0. -1.
         22    1    3    3    0    0  0.33693504387E+02 -0.20677767923E+02  0.17152341039E+03  0.17602017679E+03  0.00000000000E+00 0.  1.
         22    1    3    3    0    0 -0.24706995627E+02 -0.14163176743E+01 -0.12437440537E+02  0.27697139127E+02  0.00000000000E+00 0.  1.
</event>
<event>
 7    1  0.5593520E-006  0.4460550E+03  0.7818608E-02  0.1185155E+00
          2   -1    0    0  502    0  0.00000000000E+00  0.00000000000E+00  0.29914721830E+04  0.29914721830E+04  0.00000000000E+00 0. -1.
          1   -1    0    0  501    0 -0.00000000000E+00 -0.00000000000E+00 -0.15168199285E+03  0.15168199285E+03  0.00000000000E+00 0. -1.
         25    2    1    2    0    0  0.22355535862E+03  0.39285306794E+03  0.12476672652E+04  0.13328954806E+04  0.12500490371E+03 0.  0.
          2    1    1    2  501    0 -0.16714843892E+03 -0.41239011319E+03  0.34850230302E+03  0.56520621131E+03  0.00000000000E+00 0. -1.
          1    1    1    2  502    0 -0.56406919700E+02  0.19537045250E+02  0.12436206219E+04  0.12450524840E+04  0.00000000000E+00 0. -1.
         22    1    3    3    0    0  0.17218737072E+03  0.29570873962E+03  0.76769760988E+03  0.84050685276E+03  0.00000000000E+00 0.  1.
         22    1    3    3    0    0  0.51367987896E+02  0.97144328322E+02  0.47996965537E+03  0.49238862779E+03  0.00000000000E+00 0.  1.
</event>
<event>
 7    1  0.5593520E-006  0.5530709E+02  0.7818608E-02  0.1465468E+00
          2   -1    0    0  502    0  0.00000000000E+00  0.00000000000E+00  0.52323534944E+03  0.52323534944E+03  0.00000000000E+00 0. -1.
          1   -1    0    0  501    0 -0.00000000000E+00 -0.00000000000E+00 -0.20565946556E+04  0.20565946556E+04  0.00000000000E+00 0. -1.
         25    2    1    2    0    0  0.16249045616E+02 -0.55184102553E+01 -0.18084932290E+03  0.22051303189E+03  0.12500014122E+03 0.  0.
          2    1    1    2  501    0 -0.51846830145E+02  0.21490727962E+02 -0.18547323427E+04  0.18555813127E+04  0.00000000000E+00 0. -1.
          1    1    1    2  502    0  0.35597784529E+02 -0.15972317707E+02  0.50222235946E+03  0.50373566038E+03  0.00000000000E+00 0. -1.
         22    1    3    3    0    0  0.12258000274E+02  0.59628585008E+02 -0.89595609459E+02  0.10831989640E+03  0.00000000000E+00 0.  1.
         22    1    3    3    0    0  0.39910453420E+01 -0.65146995264E+02 -0.91253713444E+02  0.11219313550E+03  0.00000000000E+00 0.  1.
</event>
<event>
 7    1  0.5593520E-006  0.1043003E+03  0.7818608E-02  0.1301334E+00
          2   -1    0    0  502    0  0.00000000000E+00  0.00000000000E+00  0.33238895216E+03  0.33238895216E+03  0.00000000000E+00 0. -1.
          1   -1    0    0  501    0 -0.00000000000E+00 -0.00000000000E+00 -0.12208125554E+04  0.12208125554E+04  0.00000000000E+00 0. -1.
         25    2    1    2    0    0  0.10971470788E+03  0.11554308961E+02 -0.47669603101E+02  0.17340167066E+03  0.12499971659E+03 0.  0.
          2    1    1    2  501    0 -0.84259186962E+02  0.62968654102E+02 -0.11019660078E+04  0.11069750424E+04  0.00000000000E+00 0. -1.
          1    1    1    2  502    0 -0.25455520922E+02 -0.74522963063E+02  0.26121200768E+03  0.27282479455E+03  0.00000000000E+00 0. -1.
         22    1    3    3    0    0  0.27469201251E+02  0.25984281169E+01 -0.79963860109E+02  0.84590352698E+02  0.00000000000E+00 0.  1.
         22    1    3    3    0    0  0.82245506634E+02  0.89558808442E+01  0.32294257008E+02  0.88811317966E+02  0.00000000000E+00 0.  1.
</event>
<event>
 7    1  0.5593520E-006  0.1366322E+03  0.7818608E-02  0.1379804E+00
          2   -1    0    0  502    0  0.00000000000E+00  0.00000000000E+00  0.70624898287E+03  0.70624898287E+03  0.00000000000E+00 0. -1.
          1   -1    0    0  501    0 -0.00000000000E+00 -0.00000000000E+00 -0.67157862148E+02  0.67157862148E+02  0.00000000000E+00 0. -1.
         25    2    1    2    0    0 -0.12965510531E+03  0.23357656450E+02  0.24257950232E+03  0.30302849448E+03  0.12500170828E+03 0.  0.
          2    1    1    2  501    0  0.14000579323E+03  0.52929112016E+01  0.99581852957E+02  0.17189003021E+03  0.00000000000E+00 0. -1.
          1    1    1    2  502    0 -0.10350687915E+02 -0.28650567651E+02  0.29692976545E+03  0.29848832034E+03  0.00000000000E+00 0. -1.
         22    1    3    3    0    0 -0.66156411529E+02 -0.15475670921E+00  0.18141803796E+02  0.68598977988E+02  0.00000000000E+00 0.  1.
         22    1    3    3    0    0 -0.63498693781E+02  0.23512413159E+02  0.22443769852E+03  0.23442951649E+03  0.00000000000E+00 0.  1.
</event>
<event>
 7    1  0.5593520E-006  0.9510046E+02  0.7818608E-02  0.1396468E+00
          2   -1    0    0  502    0  0.00000000000E+00  0.00000000000E+00  0.17171769266E+04  0.17171769266E+04  0.00000000000E+00 0. -1.
          1   -1    0    0  501    0 -0.00000000000E+00 -0.00000000000E+00 -0.23383242419E+03  0.23383242419E+03  0.00000000000E+00 0. -1.
         25    2    1    2    0    0 -0.11780679285E+02 -0.77916042327E+02  0.57616460975E+03  0.59481122412E+03  0.12500016302E+03 0.  0.
          2    1    1    2  501    0  0.49887246194E+02  0.81422266616E+02 -0.21401427759E+03  0.23435109099E+03  0.00000000000E+00 0. -1.
          1    1    1    2  502    0 -0.38106566908E+02 -0.35062242885E+01  0.11211941702E+04  0.11218470357E+04  0.00000000000E+00 0. -1.
         22    1    3    3    0    0  0.16341886319E+02 -0.15589555236E+02  0.10287334778E+02  0.24817750457E+02  0.00000000000E+00 0.  1.
         22    1    3    3    0    0 -0.28122565605E+02 -0.62326487092E+02  0.56587727497E+03  0.56999347367E+03  0.00000000000E+00 0.  1.
</event>
<event>
 7    1  0.5593520E-006  0.1246995E+03  0.7818608E-02  0.1348597E+00
          2   -1    0    0  502    0  0.00000000000E+00  0.00000000000E+00  0.21201795368E+03  0.21201795368E+03  0.00000000000E+00 0. -1.
          1   -1    0    0  501    0 -0.00000000000E+00 -0.00000000000E+00 -0.11586048013E+04  0.11586048013E+04  0.00000000000E+00 0. -1.
         25    2    1    2    0    0 -0.23018168082E+02  0.93922221370E+02  0.13871724475E+02  0.15864855030E+03  0.12500287215E+03 0.  0.
          2    1    1    2  501    0 -0.52623225624E+01  0.42994869244E+02 -0.10467730038E+04  0.10476688276E+04  0.00000000000E+00 0. -1.
          1    1    1    2  502    0  0.28280490644E+02 -0.13691709061E+03  0.86314431639E+02  0.16430537716E+03  0.00000000000E+00 0. -1.
         22    1    3    3    0    0 -0.14471906063E+02  0.96386957678E+02  0.58143240143E+02  0.11349237001E+03  0.00000000000E+00 0. -1.
         22    1    3    3    0    0 -0.85462620195E+01 -0.24647363081E+01 -0.44271515668E+02  0.45156180298E+02  0.00000000000E+00 0. -1.
</event>
<event>
 7    1  0.5593520E-006  0.2467501E+03  0.7818608E-02  0.1232996E+00
          2   -1    0    0  502    0  0.00000000000E+00  0.00000000000E+00  0.13659894834E+04  0.13659894834E+04  0.00000000000E+00 0. -1.
          1   -1    0    0  501    0 -0.00000000000E+00 -0.00000000000E+00 -0.34552414420E+03  0.34552414420E+03  0.00000000000E+00 0. -1.
         25    2    1    2    0    0 -0.18920097910E+03 -0.16614688396E+03 -0.17393093558E+03  0.33057309445E+03  0.12499921151E+03 0.  0.
          2    1    1    2  501    0  0.51680886394E+02 -0.38899209611E+02 -0.68454969169E+02  0.94181448974E+02  0.00000000000E+00 0. -1.
          1    1    1    2  502    0  0.13752009271E+03  0.20504609357E+03  0.12628512439E+04  0.12867590841E+04  0.00000000000E+00 0. -1.
         22    1    3    3    0    0 -0.17049629906E+03 -0.17480571484E+03 -0.18575779479E+03  0.30680936143E+03  0.00000000000E+00 0. -1.
         22    1    3    3    0    0 -0.18704680046E+02  0.86588308859E+01  0.11826859215E+02  0.23763733016E+02  0.00000000000E+00 0. -1.
</event>
<event>
 7    1  0.5593520E-006  0.1855011E+03  0.7818608E-02  0.1273169E+00
          2   -1    0    0  502    0  0.00000000000E+00  0.00000000000E+00  0.65712969450E+03  0.65712969450E+03  0.00000000000E+00 0. -1.
          1   -1    0    0  501    0 -0.00000000000E+00 -0.00000000000E+00 -0.18435733478E+04  0.18435733478E+04  0.00000000000E+00 0. -1.
         25    2    1    2    0    0  0.70262961126E+02 -0.11387972605E+03  0.18370652600E+03  0.25938165923E+03  0.12500112695E+03 0.  0.
          2    1    1    2  501    0 -0.12020332965E+03  0.14280269333E+03 -0.17989739116E+04  0.18086316884E+04  0.00000000000E+00 0. -1.
          1    1    1    2  502    0  0.49940368529E+02 -0.28922967286E+02  0.42882373232E+03  0.43268969464E+03  0.00000000000E+00 0. -1.
         22    1    3    3    0    0 -0.23442691674E+02  0.11280820772E+02  0.18523803386E+02  0.31936624776E+02  0.00000000000E+00 0. -1.
         22    1    3    3    0    0  0.93705652800E+02 -0.12516054682E+03  0.16518272262E+03  0.22744503446E+03  0.00000000000E+00 0. -1.
</event>
<event>
 7    1  0.5593520E-006  0.5600480E+02  0.7818608E-02  0.1449942E+00
          2   -1    0    0  502    0  0.00000000000E+00  0.00000000000E+00  0.51681124739E+03  0.51681124739E+03  0.00000000000E+00 0. -1.
          1   -1    0    0  501    0 -0.00000000000E+00 -0.00000000000E+00 -0.15855482161E+03  0.15855482161E+03  0.00000000000E+00 0. -1.
         25    2    1    2    0    0 -0.94923078599E+02 -0.16646836718E+02  0.68890597301E+02  0.17220858798E+03  0.12498950097E+03 0.  0.
          2    1    1    2  501    0  0.53561049138E+02  0.43663109404E+01 -0.98870479849E+02  0.11253098436E+03  0.00000000000E+00 0. -1.
          1    1    1    2  502    0  0.41362029461E+02  0.12280525778E+02  0.38823630832E+03  0.39062649666E+03  0.00000000000E+00 0. -1.
         22    1    3    3    0    0 -0.69333787430E+02 -0.26709790659E+02 -0.21806835828E+02  0.77434650417E+02  0.00000000000E+00 0. -1.
         22    1    3    3    0    0 -0.25589291169E+02  0.10062953941E+02  0.90697433128E+02  0.94773937560E+02  0.00000000000E+00 0. -1.
</event>
<event>
 7    1  0.5593520E-006  0.1785177E+03  0.7818608E-02  0.1346297E+00
          2   -1    0    0  502    0  0.00000000000E+00  0.00000000000E+00  0.97811250205E+03  0.97811250205E+03  0.00000000000E+00 0. -1.
          1   -1    0    0  501    0 -0.00000000000E+00 -0.00000000000E+00 -0.15372128463E+04  0.15372128463E+04  0.00000000000E+00 0. -1.
         25    2    1    2    0    0  0.14800379529E+02 -0.15122151333E+03 -0.13908794026E+03  0.24095166391E+03  0.12500100754E+03 0.  0.
          2    1    1    2  501    0 -0.11805512901E+02 -0.28511813560E+02 -0.13383007900E+04  0.13386565274E+04  0.00000000000E+00 0. -1.
          1    1    1    2  502    0 -0.29948666284E+01  0.17973332689E+03  0.91828838607E+03  0.93571715706E+03  0.00000000000E+00 0. -1.
         22    1    3    3    0    0 -0.37097761168E+00 -0.94916047080E+02 -0.53663431253E+01  0.95068350445E+02  0.00000000000E+00 0. -1.
         22    1    3    3    0    0  0.15171357141E+02 -0.56305466253E+02 -0.13372159713E+03  0.14588331346E+03  0.00000000000E+00 0. -1.
</event>
<event>
 7    1  0.6890124E-006  0.8881371E+02  0.7818608E-02  0.1347767E+00
          2   -1    0    0  502    0  0.00000000000E+00  0.00000000000E+00  0.26044076442E+04  0.26044076442E+04  0.00000000000E+00 0. -1.
          1   -1    0    0  501    0 -0.00000000000E+00 -0.00000000000E+00 -0.23231305141E+04  0.23231305141E+04  0.00000000000E+00 0. -1.
         25    2    1    2    0    0 -0.64373721727E+02  0.87752361209E+02 -0.19257734285E+03  0.25407895421E+03  0.12500251615E+03 0.  0.
          2    1    1    2  501    0  0.31298921136E+01 -0.88704230016E+02 -0.20984996622E+04  0.21003759351E+04  0.00000000000E+00 0. -1.
          1    1    1    2  502    0  0.61243829613E+02  0.95186880658E+00  0.25723541351E+04  0.25730832690E+04  0.00000000000E+00 0. -1.
         22    1    3    3    0    0 -0.22578536442E+02 -0.24499652070E+02 -0.83695879538E+01  0.34352194426E+02  0.00000000000E+00 0.  1.
         22    1    3    3    0    0 -0.41795185285E+02  0.11225201328E+03 -0.18420775490E+03  0.21972675978E+03  0.00000000000E+00 0.  1.
</event>
<event>
 7    1  0.5593520E-006  0.1221409E+03  0.7818608E-02  0.1347345E+00
          2   -1    0    0  502    0  0.00000000000E+00  0.00000000000E+00  0.63124328820E+03  0.63124328820E+03  0.00000000000E+00 0. -1.
          1   -1    0    0  501    0 -0.00000000000E+00 -0.00000000000E+00 -0.55687711110E+02  0.55687711110E+02  0.00000000000E+00 0. -1.
         25    2    1    2    0    0 -0.70764736362E+02 -0.77624058500E+02  0.36960545328E+03  0.40406218718E+03  0.12499967057E+03 0.  0.
          2    1    1    2  501    0  0.11277176573E+03  0.62344596213E+02  0.86156478402E+02  0.15500728561E+03  0.00000000000E+00 0. -1.
          1    1    1    2  502    0 -0.42007029365E+02  0.15279462286E+02  0.11979364541E+03  0.12786152652E+03  0.00000000000E+00 0. -1.
         22    1    3    3    0    0 -0.68198262941E+02 -0.10814190608E+03  0.25255971512E+03  0.28307611100E+03  0.00000000000E+00 0.  1.
         22    1    3    3    0    0 -0.25664734207E+01  0.30517847584E+02  0.11704573816E+03  0.12098607617E+03  0.00000000000E+00 0.  1.
</event>
<event>
 7    1  0.5593520E-006  0.1053662E+03  0.7818608E-02  0.1299311E+00
          2   -1    0    0  502    0  0.00000000000E+00  0.00000000000E+00  0.43449867279E+03  0.43449867279E+03  0.00000000000E+00 0. -1.
          1   -1    0    0  501    0 -0.00000000000E+00 -0.00000000000E+00 -0.56530460576E+03  0.56530460576E+03  0.00000000000E+00 0. -1.
         25    2    1    2    0    0 -0.42123762205E+02 -0.17630509442E+03  0.74728440626E+02  0.23252468917E+03  0.12500197429E+03 0.  0.
          2    1    1    2  501    0  0.15391809305E+02  0.10151839175E+03 -0.47519703400E+03  0.48616366871E+03  0.00000000000E+00 0. -1.
          1    1    1    2  502    0  0.26731952900E+02  0.74786702673E+02  0.26966266040E+03  0.28111492066E+03  0.00000000000E+00 0. -1.
         22    1    3    3    0    0  0.19424786230E+02 -0.86866091692E+02  0.85497370964E+02  0.12342139461E+03  0.00000000000E+00 0.  1.
         22    1    3    3    0    0 -0.61548548435E+02 -0.89439002729E+02 -0.10768930338E+02  0.10910329456E+03  0.00000000000E+00 0.  1.
</event>
<event>
 7    1  0.5593520E-006  0.4174285E+02  0.7818608E-02  0.1535801E+00
          2   -1    0    0  502    0  0.00000000000E+00  0.00000000000E+00  0.18007057529E+04  0.18007057529E+04  0.00000000000E+00 0. -1.
          1   -1    0    0  501    0 -0.00000000000E+00 -0.00000000000E+00 -0.82854842691E+02  0.82854842691E+02  0.00000000000E+00 0. -1.
         25    2    1    2    0    0  0.49532153152E+02  0.47678585563E+01  0.68968972313E+03  0.70268884675E+03  0.12499413781E+03 0.  0.
          2    1    1    2  501    0 -0.19928236717E+02  0.24894211298E+02 -0.72609726404E+02  0.79303396795E+02  0.00000000000E+00 0. -1.
          1    1    1    2  502    0 -0.29603916435E+02 -0.29662069854E+02  0.11007709135E+04  0.11015683521E+04  0.00000000000E+00 0. -1.
         22    1    3    3    0    0  0.18937449876E+02  0.40239310745E+02  0.82744753372E+02  0.93938934141E+02  0.00000000000E+00 0. -1.
         22    1    3    3    0    0  0.30594703277E+02 -0.35471452188E+02  0.60694496976E+03  0.60874991261E+03  0.00000000000E+00 0. -1.
</event>
<event>
 7    1  0.5593520E-006  0.1592693E+03  0.7818608E-02  0.1223717E+00
          2   -1    0    0  502    0  0.00000000000E+00  0.00000000000E+00  0.10602670056E+04  0.10602670056E+04  0.00000000000E+00 0. -1.
          1   -1    0    0  501    0 -0.00000000000E+00 -0.00000000000E+00 -0.71546286781E+03  0.71546286781E+03  0.00000000000E+00 0. -1.
         25    2    1    2    0    0 -0.56565461797E+00  0.58401064130E+02 -0.12172383309E+03  0.18398163709E+03  0.12498618719E+03 0.  0.
          2    1    1    2  501    0 -0.55089787133E+02  0.95577541872E+02 -0.55059186139E+03  0.56153481547E+03  0.00000000000E+00 0. -1.
          1    1    1    2  502    0  0.55655441751E+02 -0.15397860600E+03  0.10171198323E+04  0.10302134209E+04  0.00000000000E+00 0. -1.
         22    1    3    3    0    0  0.14681064458E+02  0.85359984810E+02 -0.37757637038E+02  0.94485447637E+02  0.00000000000E+00 0. -1.
         22    1    3    3    0    0 -0.15246719076E+02 -0.26958920680E+02 -0.83966196056E+02  0.89496189455E+02  0.00000000000E+00 0. -1.
</event>
<event>
 7    1  0.5593520E-006  0.1124950E+03  0.7818608E-02  0.1296161E+00
          2   -1    0    0  502    0  0.00000000000E+00  0.00000000000E+00  0.29445390403E+04  0.29445390403E+04  0.00000000000E+00 0. -1.
          1   -1    0    0  501    0 -0.00000000000E+00 -0.00000000000E+00 -0.81320554268E+02  0.81320554268E+02  0.00000000000E+00 0. -1.
         25    2    1    2    0    0 -0.31511549536E+02 -0.14339346583E+03  0.26284154250E+03  0.32598296113E+03  0.12499820273E+03 0.  0.
          2    1    1    2  501    0 -0.45179571921E+02  0.61842375268E+02 -0.18352196520E+02  0.78755801151E+02  0.00000000000E+00 0. -1.
          1    1    1    2  502    0  0.76691121457E+02  0.81551090566E+02  0.26187291401E+04  0.26211208323E+04  0.00000000000E+00 0. -1.
         22    1    3    3    0    0 -0.26020878925E+02 -0.15009865394E+03  0.27300179299E+03  0.31262864717E+03  0.00000000000E+00 0.  1.
         22    1    3    3    0    0 -0.54906706104E+01  0.67051881085E+01 -0.10160250491E+02  0.13354313961E+02  0.00000000000E+00 0.  1.
</event>
<event>
 7    1  0.5593520E-006  0.8498058E+02  0.7818608E-02  0.1483205E+00
          2   -1    0    0  502    0  0.00000000000E+00  0.00000000000E+00  0.16322549831E+04  0.16322549831E+04  0.00000000000E+00 0. -1.
          1   -1    0    0  501    0 -0.00000000000E+00 -0.00000000000E+00 -0.28060569294E+03  0.28060569294E+03  0.00000000000E+00 0. -1.
         25    2    1    2    0    0 -0.81648406873E+02  0.62978082806E+02 -0.46871536703E+02  0.16872540636E+03  0.12505447029E+03 0.  0.
          2    1    1    2  501    0  0.69023727500E+02 -0.44498199989E+02 -0.16296543710E+03  0.18248862554E+03  0.00000000000E+00 0. -1.
          1    1    1    2  502    0  0.12624679373E+02 -0.18479882817E+02  0.15614862640E+04  0.15616466441E+04  0.00000000000E+00 0. -1.
         22    1    3    3    0    0 -0.87548760627E+02  0.70476382324E+02  0.83358540957E+01  0.11269956706E+03  0.00000000000E+00 0. -1.
         22    1    3    3    0    0  0.59003537544E+01 -0.74982995180E+01 -0.55207390799E+02  0.56025839297E+02  0.00000000000E+00 0. -1.
</event>
<event>
 7    1  0.5593520E-006  0.1227763E+03  0.7818608E-02  0.1345448E+00
          2   -1    0    0  502    0  0.00000000000E+00  0.00000000000E+00  0.18376854649E+04  0.18376854649E+04  0.00000000000E+00 0. -1.
          1   -1    0    0  501    0 -0.00000000000E+00 -0.00000000000E+00 -0.17624714663E+04  0.17624714663E+04  0.00000000000E+00 0. -1.
         25    2    1    2    0    0 -0.16205487234E+03 -0.23163907698E+02  0.32405872345E+03  0.38397952568E+03  0.12501148599E+03 0.  0.
          2    1    1    2  501    0  0.12252811224E+03  0.12437975151E+01 -0.17299992988E+04  0.17343333760E+04  0.00000000000E+00 0. -1.
          1    1    1    2  502    0  0.39526760098E+02  0.21920110183E+02  0.14811545739E+04  0.14818440295E+04  0.00000000000E+00 0. -1.
         22    1    3    3    0    0 -0.41073845288E+02 -0.43438499570E+02  0.20305840389E+03  0.21167588290E+03  0.00000000000E+00 0.  1.
         22    1    3    3    0    0 -0.12098102705E+03  0.20274591872E+02  0.12100031956E+03  0.17230364278E+03  0.00000000000E+00 0.  1.
</event>
<event>
 7    1  0.5593520E-006  0.8232630E+02  0.7818608E-02  0.1394895E+00
          2   -1    0    0  502    0  0.00000000000E+00  0.00000000000E+00  0.12667318614E+04  0.12667318614E+04  0.00000000000E+00 0. -1.
          1   -1    0    0  501    0 -0.00000000000E+00 -0.00000000000E+00 -0.45120390689E+03  0.45120390689E+03  0.00000000000E+00 0. -1.
         25    2    1    2    0    0 -0.72005250165E+02  0.63946552536E+02  0.26277704509E+03  0.30651372151E+03  0.12499987366E+03 0.  0.
          2    1    1    2  501    0 -0.75831224613E+01 -0.44115636020E+02 -0.42644953282E+03  0.42879237066E+03  0.00000000000E+00 0. -1.
          1    1    1    2  502    0  0.79588372626E+02 -0.19830916516E+02  0.97920044227E+03  0.98262967614E+03  0.00000000000E+00 0. -1.
         22    1    3    3    0    0  0.20593638947E+02  0.44077808693E+02  0.35297781221E+02  0.60107275295E+02  0.00000000000E+00 0. -1.
         22    1    3    3    0    0 -0.92598889112E+02  0.19868743844E+02  0.22747926387E+03  0.24640644622E+03  0.00000000000E+00 0. -1.
</event>
<event>
 7    1  0.5593520E-006  0.9757484E+02  0.7818608E-02  0.1383139E+00
          2   -1    0    0  502    0  0.00000000000E+00  0.00000000000E+00  0.63992097176E+02  0.63992097176E+02  0.00000000000E+00 0. -1.
          1   -1    0    0  501    0 -0.00000000000E+00 -0.00000000000E+00 -0.19784483606E+04  0.19784483606E+04  0.00000000000E+00 0. -1.
         25    2    1    2    0    0  0.32649397794E+02 -0.10197622541E+03 -0.45690376351E+03  0.48564494326E+03  0.12499931232E+03 0.  0.
          2    1    1    2  501    0 -0.63294353050E+02  0.73970040755E+02 -0.14966236112E+04  0.14997866433E+04  0.00000000000E+00 0. -1.
          1    1    1    2  502    0  0.30644955256E+02  0.28006184655E+02  0.39071111231E+02  0.57008871190E+02  0.00000000000E+00 0. -1.
         22    1    3    3    0    0 -0.20168770621E+02 -0.68251444139E+01 -0.25832202984E+03  0.25919805749E+03  0.00000000000E+00 0. -1.
         22    1    3    3    0    0  0.52818168414E+02 -0.95151080996E+02 -0.19858173367E+03  0.22644688577E+03  0.00000000000E+00 0. -1.
</event>
<event>
 7    1  0.5593520E-006  0.5386983E+02  0.7818608E-02  0.1472535E+00
          2   -1    0    0  502    0  0.00000000000E+00  0.00000000000E+00  0.52079675631E+02  0.52079675631E+02  0.00000000000E+00 0. -1.
          1   -1    0    0  501    0 -0.00000000000E+00 -0.00000000000E+00 -0.69040522627E+03  0.69040522627E+03  0.00000000000E+00 0. -1.
         25    2    1    2    0    0  0.52208323004E+02  0.41039031531E+02 -0.23779089516E+03  0.27672887429E+03  0.12499779577E+03 0.  0.
          2    1    1    2  501    0 -0.36635767010E+02  0.10379945654E+02 -0.40951827227E+03  0.41128474081E+03  0.00000000000E+00 0. -1.
          1    1    1    2  502    0 -0.15572555993E+02 -0.51418977185E+02  0.89836167938E+01  0.54471286800E+02  0.00000000000E+00 0. -1.
         22    1    3    3    0    0  0.54715047252E+02  0.79785956527E+02 -0.12921302422E+03  0.16141728806E+03  0.00000000000E+00 0. -1.
         22    1    3    3    0    0 -0.25067242481E+01 -0.38746924996E+02 -0.10857787094E+03  0.11531158624E+03  0.00000000000E+00 0. -1.
</event>
<event>
 7    1  0.5593520E-006  0.7764434E+02  0.7818608E-02  0.1404914E+00
          2   -1    0    0  502    0  0.00000000000E+00  0.00000000000E+00  0.18247108137E+04  0.18247108137E+04  0.00000000000E+00 0. -1.
          1   -1    0    0  501    0 -0.00000000000E+00 -0.00000000000E+00 -0.19156231158E+03  0.19156231158E+03  0.00000000000E+00 0. -1.
         25    2    1    2    0    0  0.35060612594E+02  0.80729266276E+01  0.17173839429E+03  0.21543858965E+03  0.12500116454E+03 0.  0.
          2    1    1    2  501    0 -0.78679683212E+02 -0.12484655215E+02 -0.16005085956E+03  0.17878097442E+03  0.00000000000E+00 0. -1.
          1    1    1    2  502    0  0.43619070618E+02  0.44117285876E+01  0.16214609674E+04  0.16220535612E+04  0.00000000000E+00 0. -1.
         22    1    3    3    0    0  0.75349967958E+01 -0.57759201767E+02  0.68124792484E+02  0.89631963698E+02  0.00000000000E+00 0.  1.
         22    1    3    3    0    0  0.27525615798E+02  0.65832128394E+02  0.10361360181E+03  0.12580662596E+03  0.00000000000E+00 0.  1.
</event>
<event>
 7    1  0.5593520E-006  0.9814012E+02  0.7818608E-02  0.1349860E+00
          2   -1    0    0  502    0  0.00000000000E+00  0.00000000000E+00  0.16099647904E+04  0.16099647904E+04  0.00000000000E+00 0. -1.
          1   -1    0    0  501    0 -0.00000000000E+00 -0.00000000000E+00 -0.21127493927E+03  0.21127493927E+03  0.00000000000E+00 0. -1.
         25    2    1    2    0    0  0.70623763093E+02 -0.32026121002E+02  0.40361933596E+03  0.42958882157E+03  0.12499839567E+03 0.  0.
          2    1    1    2  501    0  0.32101027756E+02  0.43978089540E+02 -0.19226201426E+03  0.19982299785E+03  0.00000000000E+00 0. -1.
          1    1    1    2  502    0 -0.10272479085E+03 -0.11951968539E+02  0.11873325295E+04  0.11918279103E+04  0.00000000000E+00 0. -1.
         22    1    3    3    0    0  0.35406615293E+02 -0.17345936056E+02  0.20246221509E+02  0.44321771056E+02  0.00000000000E+00 0.  1.
         22    1    3    3    0    0  0.35217147799E+02 -0.14680184946E+02  0.38337311445E+03  0.38526705051E+03  0.00000000000E+00 0.  1.
</event>
<event>
 7    1  0.5593520E-006  0.8686868E+02  0.7818608E-02  0.1449646E+00
          2   -1    0    0  502    0  0.00000000000E+00  0.00000000000E+00  0.10166762691E+04  0.10166762691E+04  0.00000000000E+00 0. -1.
          1   -1    0    0  501    0 -0.00000000000E+00 -0.00000000000E+00 -0.13385711794E+04  0.13385711794E+04  0.00000000000E+00 0. -1.
         25    2    1    2    0    0 -0.19797267905E+02  0.62832193965E+02 -0.40872882630E+03  0.43246313749E+03  0.12500118167E+03 0.  0.
          2    1    1    2  501    0  0.13490412999E+02 -0.89986945039E+02 -0.91552606178E+03  0.92003674455E+03  0.00000000000E+00 0. -1.
          1    1    1    2  502    0  0.63068549062E+01  0.27154751074E+02  0.10023599778E+04  0.10027475664E+04  0.00000000000E+00 0. -1.
         22    1    3    3    0    0  0.17761997422E+02  0.86818774213E+02 -0.19579134435E+03  0.21491216492E+03  0.00000000000E+00 0.  1.
         22    1    3    3    0    0 -0.37559265327E+02 -0.23986580248E+02 -0.21293748195E+03  0.21755097257E+03  0.00000000000E+00 0.  1.
</event>
<event>
 7    1  0.5593520E-006  0.1765333E+03  0.7818608E-02  0.1344933E+00
          2   -1    0    0  502    0  0.00000000000E+00  0.00000000000E+00  0.88664876878E+03  0.88664876878E+03  0.00000000000E+00 0. -1.
          1   -1    0    0  501    0 -0.00000000000E+00 -0.00000000000E+00 -0.15997945236E+03  0.15997945236E+03  0.00000000000E+00 0. -1.
         25    2    1    2    0    0  0.15130240225E+03 -0.32891235579E+02  0.40973544437E+03  0.45550874131E+03  0.12502331276E+03 0.  0.
          2    1    1    2  501    0 -0.16985634401E+03  0.58438555838E+02 -0.77349444336E+02  0.19557397308E+03  0.00000000000E+00 0. -1.
          1    1    1    2  502    0  0.18553941764E+02 -0.25547320260E+02  0.39428331639E+03  0.39554550675E+03  0.00000000000E+00 0. -1.
         22    1    3    3    0    0  0.10230269978E+03 -0.60981726524E+02  0.15996949447E+03  0.19943633699E+03  0.00000000000E+00 0.  1.
         22    1    3    3    0    0  0.48999702466E+02  0.28090490945E+02  0.24976594991E+03  0.25607240432E+03  0.00000000000E+00 0.  1.
</event>
<event>
 7    1  0.5593520E-006  0.1441401E+03  0.7818608E-02  0.1310925E+00
          2   -1    0    0  502    0  0.00000000000E+00  0.00000000000E+00  0.42758807379E+03  0.42758807379E+03  0.00000000000E+00 0. -1.
          1   -1    0    0  501    0 -0.00000000000E+00 -0.00000000000E+00 -0.52574960933E+03  0.52574960933E+03  0.00000000000E+00 0. -1.
         25    2    1    2    0    0 -0.50879110605E+02  0.13089721740E+03  0.69236732304E+02  0.20035355194E+03  0.12500022103E+03 0.  0.
          2    1    1    2  501    0  0.97563444625E+02 -0.10752762039E+03 -0.44625592606E+03  0.46928154280E+03  0.00000000000E+00 0. -1.
          1    1    1    2  502    0 -0.46684334020E+02 -0.23369597009E+02  0.27885765821E+03  0.28370258838E+03  0.00000000000E+00 0. -1.
         22    1    3    3    0    0 -0.19965291347E+01  0.22960142196E+02  0.78199453320E+02  0.81524896552E+02  0.00000000000E+00 0. -1.
         22    1    3    3    0    0 -0.48882581470E+02  0.10793707520E+03 -0.89627210162E+01  0.11882865539E+03  0.00000000000E+00 0. -1.
</event>
<event>
 7    1  0.5593520E-006  0.4969880E+02  0.7818608E-02  0.1456173E+00
          2   -1    0    0  502    0  0.00000000000E+00  0.00000000000E+00  0.55443912330E+03  0.55443912330E+03  0.00000000000E+00 0. -1.
          1   -1    0    0  501    0 -0.00000000000E+00 -0.00000000000E+00 -0.22891813665E+03  0.22891813665E+03  0.00000000000E+00 0. -1.
         25    2    1    2    0    0 -0.50288601652E+02 -0.75988969422E+02  0.27101285859E+03  0.31205199114E+03  0.12500083489E+03 0.  0.
          2    1    1    2  501    0  0.38260418037E+02  0.31124402856E+02 -0.20337618092E+03  0.20927125700E+03  0.00000000000E+00 0. -1.
          1    1    1    2  502    0  0.12028183615E+02  0.44864566567E+02  0.25788430897E+03  0.26203401182E+03  0.00000000000E+00 0. -1.
         22    1    3    3    0    0 -0.38931937316E+02 -0.11109426900E+03  0.21036802115E+03  0.24106500507E+03  0.00000000000E+00 0.  1.
         22    1    3    3    0    0 -0.11356664336E+02  0.35105299575E+02  0.60644837446E+02  0.70986986074E+02  0.00000000000E+00 0.  1.
</event>
<event>
 7    1  0.5593520E-006  0.1441348E+03  0.7818608E-02  0.1226110E+00
          2   -1    0    0  502    0  0.00000000000E+00  0.00000000000E+00  0.11637183607E+04  0.11637183607E+04  0.00000000000E+00 0. -1.
          1   -1    0    0  501    0 -0.00000000000E+00 -0.00000000000E+00 -0.94037279134E+02  0.94037279134E+02  0.00000000000E+00 0. -1.
         25    2    1    2    0    0  0.26920341829E+02 -0.36869939302E+02  0.49182043077E+03  0.50950665925E+03  0.12500240982E+03 0.  0.
          2    1    1    2  501    0 -0.43531735196E+02  0.15460463200E+03  0.24011402695E+01  0.16063427306E+03  0.00000000000E+00 0. -1.
          1    1    1    2  502    0  0.16611393367E+02 -0.11773469270E+03  0.57545951053E+03  0.58761470754E+03  0.00000000000E+00 0. -1.
         22    1    3    3    0    0  0.43424123715E+02 -0.77688514363E+02  0.33543179791E+03  0.34703839965E+03  0.00000000000E+00 0.  1.
         22    1    3    3    0    0 -0.16503781886E+02  0.40818575061E+02  0.15638863287E+03  0.16246825960E+03  0.00000000000E+00 0.  1.
</event>
<event>
 7    1  0.5593520E-006  0.1283797E+03  0.7818608E-02  0.1331774E+00
          2   -1    0    0  502    0  0.00000000000E+00  0.00000000000E+00  0.15076382447E+04  0.15076382447E+04  0.00000000000E+00 0. -1.
          1   -1    0    0  501    0 -0.00000000000E+00 -0.00000000000E+00 -0.73397327223E+03  0.73397327223E+03  0.00000000000E+00 0. -1.
         25    2    1    2    0    0 -0.70955308503E+02 -0.13266660665E+03  0.47666161775E+03  0.51523384836E+03  0.12499814534E+03 0.  0.
          2    1    1    2  501    0  0.22716454817E+02  0.12617873743E+03 -0.70834388395E+03  0.71985288013E+03  0.00000000000E+00 0. -1.
          1    1    1    2  502    0  0.48238853686E+02  0.64878692154E+01  0.10053472386E+04  0.10065247884E+04  0.00000000000E+00 0. -1.
         22    1    3    3    0    0 -0.85418777036E+02 -0.14185219447E+03  0.34743077000E+03  0.38487212485E+03  0.00000000000E+00 0.  1.
         22    1    3    3    0    0  0.14463468533E+02  0.91855878246E+01  0.12923084775E+03  0.13036172351E+03  0.00000000000E+00 0.  1.
</event>
<event>
 7    1  0.5593520E-006  0.6498951E+02  0.7818608E-02  0.1443161E+00
          2   -1    0    0  502    0  0.00000000000E+00  0.00000000000E+00  0.13236612894E+04  0.13236612894E+04  0.00000000000E+00 0. -1.
          1   -1    0    0  501    0 -0.00000000000E+00 -0.00000000000E+00 -0.27911452541E+03  0.27911452541E+03  0.00000000000E+00 0. -1.
         25    2    1    2    0    0  0.66371206612E+01  0.25174517341E+02  0.10732130439E+04  0.10807816069E+04  0.12499934598E+03 0.  0.
          2    1    1    2  501    0 -0.17025595975E+02 -0.62864913146E+02 -0.26988260611E+03  0.27763013040E+03  0.00000000000E+00 0. -1.
          1    1    1    2  502    0  0.10388475313E+02  0.37690395805E+02  0.24121632622E+03  0.24436407754E+03  0.00000000000E+00 0. -1.
         22    1    3    3    0    0  0.23506801829E+02 -0.46886607135E+02  0.37331523933E+03  0.37698168599E+03  0.00000000000E+00 0. -1.
         22    1    3    3    0    0 -0.16869681168E+02  0.72061124477E+02  0.69989780460E+03  0.70379992092E+03  0.00000000000E+00 0. -1.
</event>
<event>
 7    1  0.5593520E-006  0.7062679E+02  0.7818608E-02  0.1372961E+00
          2   -1    0    0  502    0  0.00000000000E+00  0.00000000000E+00  0.19903531141E+03  0.19903531141E+03  0.00000000000E+00 0. -1.
          1   -1    0    0  501    0 -0.00000000000E+00 -0.00000000000E+00 -0.44391704898E+03  0.44391704898E+03  0.00000000000E+00 0. -1.
         25    2    1    2    0    0 -0.38168212895E+02 -0.15860243817E+02  0.96198916562E+02  0.16305412840E+03  0.12499622966E+03 0.  0.
          2    1    1    2  501    0  0.95536512914E+01  0.71237896604E+02 -0.39254110628E+03  0.39906720021E+03  0.00000000000E+00 0. -1.
          1    1    1    2  502    0  0.28614561603E+02 -0.55377652787E+02  0.51460452142E+02  0.80831031780E+02  0.00000000000E+00 0. -1.
         22    1    3    3    0    0 -0.61554115151E+01  0.29787991545E+02  0.10252476660E+03  0.10694176592E+03  0.00000000000E+00 0.  1.
         22    1    3    3    0    0 -0.32012801380E+02 -0.45648235362E+02 -0.63258500415E+01  0.56112362475E+02  0.00000000000E+00 0.  1.
</event>
<event>
 7    1  0.5593520E-006  0.3561212E+02  0.7818608E-02  0.1546412E+00
          2   -1    0    0  502    0  0.00000000000E+00  0.00000000000E+00  0.34007109341E+03  0.34007109341E+03  0.00000000000E+00 0. -1.
          1   -1    0    0  501    0 -0.00000000000E+00 -0.00000000000E+00 -0.33147282030E+03  0.33147282030E+03  0.00000000000E+00 0. -1.
         25    2    1    2    0    0  0.28464768031E+02  0.55384176854E+02 -0.12020228713E+03  0.18426235898E+03  0.12500550804E+03 0.  0.
          2    1    1    2  501    0  0.49205439459E+00 -0.34883572957E+02 -0.17650583558E+03  0.17992058185E+03  0.00000000000E+00 0. -1.
          1    1    1    2  502    0 -0.28956822425E+02 -0.20500603897E+02  0.30530639582E+03  0.30736097288E+03  0.00000000000E+00 0. -1.
         22    1    3    3    0    0  0.73592555683E+02  0.33794431805E+02 -0.41472009305E+02  0.90982720496E+02  0.00000000000E+00 0. -1.
         22    1    3    3    0    0 -0.45127787653E+02  0.21589745049E+02 -0.78730277826E+02  0.93279638487E+02  0.00000000000E+00 0. -1.
</event>
<event>
 7    1  0.5593520E-006  0.1479365E+03  0.7818608E-02  0.1312317E+00
          2   -1    0    0  502    0  0.00000000000E+00  0.00000000000E+00  0.33970400496E+03  0.33970400496E+03  0.00000000000E+00 0. -1.
          1   -1    0    0  501    0 -0.00000000000E+00 -0.00000000000E+00 -0.19634777823E+04  0.19634777823E+04  0.00000000000E+00 0. -1.
         25    2    1    2    0    0  0.62128564020E+02 -0.10136079382E+03 -0.36065373214E+03  0.39978742553E+03  0.12499960847E+03 0.  0.
          2    1    1    2  501    0 -0.25125567396E+02 -0.43494847791E+02 -0.15653770468E+04  0.15661827462E+04  0.00000000000E+00 0. -1.
          1    1    1    2  502    0 -0.37002996624E+02  0.14485564161E+03  0.30225700156E+03  0.33721161554E+03  0.00000000000E+00 0. -1.
         22    1    3    3    0    0 -0.26594719166E+02 -0.19933534144E+02 -0.20750367705E+02  0.39181661920E+02  0.00000000000E+00 0.  1.
         22    1    3    3    0    0  0.88723283186E+02 -0.81427259673E+02 -0.33990336443E+03  0.36060576361E+03  0.00000000000E+00 0.  1.
</event>
<event>
 7    1  0.5593520E-006  0.2135773E+02  0.7818608E-02  0.1727492E+00
          2   -1    0    0  502    0  0.00000000000E+00  0.00000000000E+00  0.77036139956E+03  0.77036139956E+03  0.00000000000E+00 0. -1.
          1   -1    0    0  501    0 -0.00000000000E+00 -0.00000000000E+00 -0.13744063382E+03  0.13744063382E+03  0.00000000000E+00 0. -1.
         25    2    1    2    0    0  0.41194301490E+02  0.61053732511E+01  0.73303451052E+02  0.15077222216E+03  0.12499848391E+03 0.  0.
          2    1    1    2  501    0 -0.20995314452E+02 -0.25725991788E+01 -0.97411240242E+02  0.99681348411E+02  0.00000000000E+00 0. -1.
          1    1    1    2  502    0 -0.20198987038E+02 -0.35327740723E+01  0.65702855493E+03  0.65734846282E+03  0.00000000000E+00 0. -1.
         22    1    3    3    0    0  0.43285619017E+02  0.58532245349E+02  0.65110120243E+02  0.97667785463E+02  0.00000000000E+00 0. -1.
         22    1    3    3    0    0 -0.20913175269E+01 -0.52426872098E+02  0.81933308091E+01  0.53104436695E+02  0.00000000000E+00 0. -1.
</event>
<event>
 7    1  0.5593520E-006  0.1100437E+03  0.7818608E-02  0.1296230E+00
          2   -1    0    0  502    0  0.00000000000E+00  0.00000000000E+00  0.68788336230E+02  0.68788336230E+02  0.00000000000E+00 0. -1.
          1   -1    0    0  501    0 -0.00000000000E+00 -0.00000000000E+00 -0.14744940197E+04  0.14744940197E+04  0.00000000000E+00 0. -1.
         25    2    1    2    0    0 -0.76858942315E+02 -0.38225011223E+02 -0.52240982460E+03  0.54397347758E+03  0.12500668372E+03 0.  0.
          2    1    1    2  501    0  0.36136941730E+02 -0.69398072187E+02 -0.88074233330E+03  0.88421096389E+03  0.00000000000E+00 0. -1.
          1    1    1    2  502    0  0.40722000585E+02  0.10762308341E+03 -0.25535255355E+01  0.11509791443E+03  0.00000000000E+00 0. -1.
         22    1    3    3    0    0 -0.68261959140E+02  0.11099169629E+02 -0.45378950550E+03  0.45902919508E+03  0.00000000000E+00 0. -1.
         22    1    3    3    0    0 -0.85969831756E+01 -0.49324180851E+02 -0.68620319095E+02  0.84944282497E+02  0.00000000000E+00 0. -1.
</event>
<event>
 7    1  0.5593520E-006  0.7621689E+02  0.7818608E-02  0.1363600E+00
          2   -1    0    0  502    0  0.00000000000E+00  0.00000000000E+00  0.25053731027E+04  0.25053731027E+04  0.00000000000E+00 0. -1.
          1   -1    0    0  501    0 -0.00000000000E+00 -0.00000000000E+00 -0.77672825045E+02  0.77672825045E+02  0.00000000000E+00 0. -1.
         25    2    1    2    0    0  0.63553872763E+02 -0.85645718748E+02  0.71481757705E+02  0.17918998941E+03  0.12500050694E+03 0.  0.
          2    1    1    2  501    0  0.87066149503E+01  0.61818124812E+02  0.18797534105E+02  0.65196878664E+02  0.00000000000E+00 0. -1.
          1    1    1    2  502    0 -0.72260487713E+02  0.23827593936E+02  0.23374209858E+04  0.23386590596E+04  0.00000000000E+00 0. -1.
         22    1    3    3    0    0  0.83395716217E+02 -0.17954582729E+02  0.10509407826E+02  0.85951498981E+02  0.00000000000E+00 0.  1.
         22    1    3    3    0    0 -0.19841843454E+02 -0.67691136019E+02  0.60972349879E+02  0.93238490426E+02  0.00000000000E+00 0.  1.
</event>
<event>
 7    1  0.5593520E-006  0.2340309E+03  0.7818608E-02  0.1227711E+00
          2   -1    0    0  502    0  0.00000000000E+00  0.00000000000E+00  0.31826140337E+03  0.31826140337E+03  0.00000000000E+00 0. -1.
          1   -1    0    0  501    0 -0.00000000000E+00 -0.00000000000E+00 -0.27583572202E+04  0.27583572202E+04  0.00000000000E+00 0. -1.
         25    2    1    2    0    0 -0.24317804800E+03  0.87051895473E+02 -0.11384333364E+03  0.30870382851E+03  0.12499661431E+03 0.  0.
          2    1    1    2  501    0  0.56011561371E+02  0.45275005993E+02 -0.24869397993E+04  0.24879824530E+04  0.00000000000E+00 0. -1.
          1    1    1    2  502    0  0.18716648663E+03 -0.13232690147E+03  0.16068731610E+03  0.27993234205E+03  0.00000000000E+00 0. -1.
         22    1    3    3    0    0 -0.19059520488E+03  0.64624933378E+01 -0.74224616902E+02  0.20464014684E+03  0.00000000000E+00 0.  1.
         22    1    3    3    0    0 -0.52582843113E+02  0.80589402135E+02 -0.39618716741E+02  0.10406368167E+03  0.00000000000E+00 0.  1.
</event>
<event>
 7    1  0.5593520E-006  0.1020761E+03  0.7818608E-02  0.1288533E+00
          2   -1    0    0  502    0  0.00000000000E+00  0.00000000000E+00  0.65743269262E+03  0.65743269262E+03  0.00000000000E+00 0. -1.
          1   -1    0    0  501    0 -0.00000000000E+00 -0.00000000000E+00 -0.10387317365E+04  0.10387317365E+04  0.00000000000E+00 0. -1.
         25    2    1    2    0    0  0.12442369577E+03 -0.32426690580E+02 -0.24239356109E+03  0.30152425308E+03  0.12501796033E+03 0.  0.
          2    1    1    2  501    0 -0.89195314673E+02 -0.51076729509E+02 -0.76002482021E+03  0.76694352060E+03  0.00000000000E+00 0. -1.
          1    1    1    2  502    0 -0.35228381092E+02  0.83503420089E+02  0.62111933740E+03  0.62769665547E+03  0.00000000000E+00 0. -1.
         22    1    3    3    0    0  0.78478549010E+02 -0.18088702367E+02 -0.33615534243E+02  0.87270200817E+02  0.00000000000E+00 0. -1.
         22    1    3    3    0    0  0.45945146755E+02 -0.14337988213E+02 -0.20877802684E+03  0.21425405226E+03  0.00000000000E+00 0. -1.
</event>
<event>
 7    1  0.5593520E-006  0.2296871E+03  0.7818608E-02  0.1258714E+00
          2   -1    0    0  502    0  0.00000000000E+00  0.00000000000E+00  0.53258521705E+03  0.53258521705E+03  0.00000000000E+00 0. -1.
          1   -1    0    0  501    0 -0.00000000000E+00 -0.00000000000E+00 -0.39808003608E+04  0.39808003608E+04  0.00000000000E+00 0. -1.
         25    2    1    2    0    0  0.25014167097E+02  0.17838580647E+03 -0.21202035539E+03  0.30500026764E+03  0.12500131062E+03 0.  0.
          2    1    1    2  501    0 -0.37426656160E+02 -0.23058077732E+03 -0.37171320040E+04  0.37244648723E+04  0.00000000000E+00 0. -1.
          1    1    1    2  502    0  0.12412489064E+02  0.52194970850E+02  0.48093721565E+03  0.48392043795E+03  0.00000000000E+00 0. -1.
         22    1    3    3    0    0 -0.54510845995E+01  0.89510808966E+02 -0.18759227993E+03  0.20792489686E+03  0.00000000000E+00 0. -1.
         22    1    3    3    0    0  0.30465251696E+02  0.88874997500E+02 -0.24428075459E+02  0.97075370780E+02  0.00000000000E+00 0. -1.
</event>
<event>
 7    1  0.5593520E-006  0.5484122E+02  0.7818608E-02  0.1482664E+00
          2   -1    0    0  502    0  0.00000000000E+00  0.00000000000E+00  0.23971486955E+03  0.23971486955E+03  0.00000000000E+00 0. -1.
          1   -1    0    0  501    0 -0.00000000000E+00 -0.00000000000E+00 -0.60028268191E+02  0.60028268191E+02  0.00000000000E+00 0. -1.
         25    2    1    2    0    0 -0.58477049337E+02 -0.46496512948E+02  0.15347400858E+03  0.21156468217E+03  0.12499540957E+03 0.  0.
          2    1    1    2  501    0  0.34171472920E+02  0.66490035255E+01  0.34415653350E+00  0.34814038161E+02  0.00000000000E+00 0. -1.
          1    1    1    2  502    0  0.24305576417E+02  0.39847509423E+02  0.25868436242E+02  0.53364417413E+02  0.00000000000E+00 0. -1.
         22    1    3    3    0    0 -0.81293104390E+02 -0.50724452770E+01  0.44598902219E+02  0.92862051462E+02  0.00000000000E+00 0. -1.
         22    1    3    3    0    0  0.22816055053E+02 -0.41424067671E+02  0.10887510636E+03  0.11870263070E+03  0.00000000000E+00 0. -1.
</event>
<event>
 7    1  0.5593520E-006  0.1676744E+03  0.7818608E-02  0.1312874E+00
          2   -1    0    0  502    0  0.00000000000E+00  0.00000000000E+00  0.14896714866E+04  0.14896714866E+04  0.00000000000E+00 0. -1.
          1   -1    0    0  501    0 -0.00000000000E+00 -0.00000000000E+00 -0.26351553090E+04  0.26351553090E+04  0.00000000000E+00 0. -1.
         25    2    1    2    0    0 -0.10443193743E+03 -0.11632450493E+03 -0.19734463455E+04  0.19835708482E+04  0.12500164479E+03 0.  0.
          2    1    1    2  501    0 -0.36279092832E+02  0.25063614412E+02 -0.65116206646E+03  0.65265334914E+03  0.00000000000E+00 0. -1.
          1    1    1    2  502    0  0.14071103026E+03  0.91260890514E+02  0.14791245896E+04  0.14886025983E+04  0.00000000000E+00 0. -1.
         22    1    3    3    0    0 -0.21432343348E+02 -0.11438294142E+03 -0.10653070373E+04  0.10716444775E+04  0.00000000000E+00 0.  1.
         22    1    3    3    0    0 -0.82999594085E+02 -0.19415635030E+01 -0.90813930826E+03  0.91192637066E+03  0.00000000000E+00 0.  1.
</event>
<event>
 7    1  0.5593520E-006  0.5839179E+02  0.7818608E-02  0.1488120E+00
          2   -1    0    0  502    0  0.00000000000E+00  0.00000000000E+00  0.17140767453E+04  0.17140767453E+04  0.00000000000E+00 0. -1.
          1   -1    0    0  501    0 -0.00000000000E+00 -0.00000000000E+00 -0.68070714611E+03  0.68070714611E+03  0.00000000000E+00 0. -1.
         25    2    1    2    0    0  0.29829539710E+02  0.24885218371E+01 -0.17724721546E+02  0.12969897754E+03  0.12494664798E+03 0.  0.
          2    1    1    2  501    0 -0.55326201384E+02 -0.20932978821E+02 -0.60540431336E+03  0.60828739984E+03  0.00000000000E+00 0. -1.
          1    1    1    2  502    0  0.25496661675E+02  0.18444456984E+02  0.16564986341E+04  0.16567975141E+04  0.00000000000E+00 0. -1.
         22    1    3    3    0    0  0.49650838078E+02  0.50297064677E+02 -0.29560489461E+02  0.76608243513E+02  0.00000000000E+00 0. -1.
         22    1    3    3    0    0 -0.19821298368E+02 -0.47808542840E+02  0.11835767915E+02  0.53090734028E+02  0.00000000000E+00 0. -1.
</event>
<event>
 7    1  0.6021303E-006  0.7433941E+02  0.7818608E-02  0.1348724E+00
          2   -1    0    0  502    0  0.00000000000E+00  0.00000000000E+00  0.16154229323E+04  0.16154229323E+04  0.00000000000E+00 0. -1.
          1   -1    0    0  501    0 -0.00000000000E+00 -0.00000000000E+00 -0.40929984178E+03  0.40929984178E+03  0.00000000000E+00 0. -1.
         25    2    1    2    0    0  0.90771551628E+02 -0.73270438537E+02 -0.35807770659E+02  0.17468540463E+03  0.12499904961E+03 0.  0.
          2    1    1    2  501    0 -0.18236996283E+02  0.70681641203E+02 -0.29880539472E+03  0.30759250048E+03  0.00000000000E+00 0. -1.
          1    1    1    2  502    0 -0.72534555345E+02  0.25887973345E+01  0.15407362559E+04  0.15424448690E+04  0.00000000000E+00 0. -1.
         22    1    3    3    0    0  0.20929049307E+02 -0.95088063852E+02 -0.14224640637E+02  0.98397689980E+02  0.00000000000E+00 0. -1.
         22    1    3    3    0    0  0.69842502320E+02  0.21817625315E+02 -0.21583130023E+02  0.76287714649E+02  0.00000000000E+00 0. -1.
</event>
<event>
 7    1  0.5593520E-006  0.9429469E+02  0.7818608E-02  0.1305477E+00
          2   -1    0    0  502    0  0.00000000000E+00  0.00000000000E+00  0.15051661480E+04  0.15051661480E+04  0.00000000000E+00 0. -1.
          1   -1    0    0  501    0 -0.00000000000E+00 -0.00000000000E+00 -0.20677922581E+04  0.20677922581E+04  0.00000000000E+00 0. -1.
         25    2    1    2    0    0 -0.68258113422E+02 -0.93585476770E+02 -0.39698305052E+02  0.17496864762E+03  0.12498264166E+03 0.  0.
          2    1    1    2  501    0  0.93521345992E+02  0.13620663592E+02 -0.19580950758E+04  0.19603744771E+04  0.00000000000E+00 0. -1.
          1    1    1    2  502    0 -0.25263232571E+02  0.79964813178E+02  0.14351672707E+04  0.14376152813E+04  0.00000000000E+00 0. -1.
         22    1    3    3    0    0 -0.82354339177E+02 -0.47792922704E+02  0.21132469121E+02  0.97534516419E+02  0.00000000000E+00 0. -1.
         22    1    3    3    0    0  0.14096225756E+02 -0.45792554066E+02 -0.60830774173E+02  0.77434131202E+02  0.00000000000E+00 0. -1.
</event>
<event>
 7    1  0.5593520E-006  0.1326521E+03  0.7818608E-02  0.1337386E+00
          2   -1    0    0  502    0  0.00000000000E+00  0.00000000000E+00  0.81066708745E+03  0.81066708745E+03  0.00000000000E+00 0. -1.
          1   -1    0    0  501    0 -0.00000000000E+00 -0.00000000000E+00 -0.90591872905E+03  0.90591872905E+03  0.00000000000E+00 0. -1.
         25    2    1    2    0    0 -0.75239277058E+02 -0.63835312847E+02 -0.21532960909E+03  0.26781987067E+03  0.12499898637E+03 0.  0.
          2    1    1    2  501    0  0.10159110941E+03  0.10012991045E+03 -0.65603233895E+03  0.67136069458E+03  0.00000000000E+00 0. -1.
          1    1    1    2  502    0 -0.26351832349E+02 -0.36294597607E+02  0.77611030645E+03  0.77740525124E+03  0.00000000000E+00 0. -1.
         22    1    3    3    0    0 -0.59145239840E+02  0.28390877347E+02 -0.91013441308E+02  0.11219468709E+03  0.00000000000E+00 0. -1.
         22    1    3    3    0    0 -0.16094037219E+02 -0.92226190194E+02 -0.12431616778E+03  0.15562518358E+03  0.00000000000E+00 0. -1.
</event>
<event>
 7    1  0.5593520E-006  0.7552916E+02  0.7818608E-02  0.1434769E+00
          2   -1    0    0  502    0  0.00000000000E+00  0.00000000000E+00  0.80160872989E+03  0.80160872989E+03  0.00000000000E+00 0. -1.
          1   -1    0    0  501    0 -0.00000000000E+00 -0.00000000000E+00 -0.21770827677E+04  0.21770827677E+04  0.00000000000E+00 0. -1.
         25    2    1    2    0    0  0.17890951256E+02 -0.10519390258E+03 -0.11516890097E+03  0.20068524483E+03  0.12499939387E+03 0.  0.
          2    1    1    2  501    0 -0.19530564585E+02  0.30027970672E+02 -0.20171340629E+04  0.20174520936E+04  0.00000000000E+00 0. -1.
          1    1    1    2  502    0  0.16396133286E+01  0.75165931903E+02  0.75682892611E+03  0.76055415918E+03  0.00000000000E+00 0. -1.
         22    1    3    3    0    0  0.10127794848E+02 -0.13187337578E+03 -0.75626575851E+02  0.15235661601E+03  0.00000000000E+00 0. -1.
         22    1    3    3    0    0  0.77631564080E+01  0.26679473206E+02 -0.39542325118E+02  0.48328628821E+02  0.00000000000E+00 0. -1.
</event>
<event>
 7    1  0.5593520E-006  0.1278896E+03  0.7818608E-02  0.1316865E+00
          2   -1    0    0  502    0  0.00000000000E+00  0.00000000000E+00  0.22688775939E+03  0.22688775939E+03  0.00000000000E+00 0. -1.
          1   -1    0    0  501    0 -0.00000000000E+00 -0.00000000000E+00 -0.37284635618E+04  0.37284635618E+04  0.00000000000E+00 0. -1.
         25    2    1    2    0    0 -0.65638875330E+02  0.96273495495E+02 -0.17679466677E+03  0.24588518529E+03  0.12500448894E+03 0.  0.
          2    1    1    2  501    0  0.11139174357E+03 -0.64381234342E+02 -0.35118779141E+04  0.35142338493E+04  0.00000000000E+00 0. -1.
          1    1    1    2  502    0 -0.45752868236E+02 -0.31892261153E+02  0.18709677840E+03  0.19523228668E+03  0.00000000000E+00 0. -1.
         22    1    3    3    0    0  0.29648521327E+02  0.33318627121E+02 -0.13466629875E+02  0.46588795330E+02  0.00000000000E+00 0. -1.
         22    1    3    3    0    0 -0.95287396657E+02  0.62954868374E+02 -0.16332803689E+03  0.19929638996E+03  0.00000000000E+00 0. -1.
</event>
<event>
 7    1  0.5593520E-006  0.6353947E+02  0.7818608E-02  0.1422091E+00
          2   -1    0    0  502    0  0.00000000000E+00  0.00000000000E+00  0.94264329670E+03  0.94264329670E+03  0.00000000000E+00 0. -1.
          1   -1    0    0  501    0 -0.00000000000E+00 -0.00000000000E+00 -0.70698445136E+03  0.70698445136E+03  0.00000000000E+00 0. -1.
         25    2    1    2    0    0  0.10039079970E+03  0.36463895595E+02  0.11904755599E+01  0.16442175169E+03  0.12500066740E+03 0.  0.
          2    1    1    2  501    0 -0.46754968365E+02 -0.34954892792E+01 -0.62333476645E+03  0.62509557395E+03  0.00000000000E+00 0. -1.
          1    1    1    2  502    0 -0.53635831336E+02 -0.32968406316E+02  0.85780313623E+03  0.86011042242E+03  0.00000000000E+00 0. -1.
         22    1    3    3    0    0  0.16998335106E+02 -0.41499593382E+01  0.54635919235E+02  0.57369410225E+02  0.00000000000E+00 0. -1.
         22    1    3    3    0    0  0.83392464595E+02  0.40613854933E+02 -0.53445443675E+02  0.10705234147E+03  0.00000000000E+00 0. -1.
</event>
<event>
 7    1  0.5593520E-006  0.8766249E+02  0.7818608E-02  0.1373870E+00
          2   -1    0    0  502    0  0.00000000000E+00  0.00000000000E+00  0.10360637604E+04  0.10360637604E+04  0.00000000000E+00 0. -1.
          1   -1    0    0  501    0 -0.00000000000E+00 -0.00000000000E+00 -0.91113385237E+02  0.91113385237E+02  0.00000000000E+00 0. -1.
         25    2    1    2    0    0 -0.56054620531E+02  0.50457950031E+01  0.42066194163E+03  0.44242743185E+03  0.12497192802E+03 0.  0.
          2    1    1    2  501    0 -0.37116894490E+02  0.33270571561E+02 -0.67800331217E+02  0.84151528219E+02  0.00000000000E+00 0. -1.
          1    1    1    2  502    0  0.93171515021E+02 -0.38316366564E+02  0.59208876479E+03  0.60059818560E+03  0.00000000000E+00 0. -1.
         22    1    3    3    0    0  0.33915030918E+02  0.83983749527E+01  0.50066283621E+02  0.61052393726E+02  0.00000000000E+00 0. -1.
         22    1    3    3    0    0 -0.89969651449E+02 -0.33525799496E+01  0.37059565800E+03  0.38137503813E+03  0.00000000000E+00 0. -1.
</event>
<event>
 7    1  0.6005241E-006  0.1784351E+03  0.7818608E-02  0.1238442E+00
          2   -1    0    0  502    0  0.00000000000E+00  0.00000000000E+00  0.77500767488E+03  0.77500767488E+03  0.00000000000E+00 0. -1.
          1   -1    0    0  501    0 -0.00000000000E+00 -0.00000000000E+00 -0.17956622493E+04  0.17956622493E+04  0.00000000000E+00 0. -1.
         25    2    1    2    0    0 -0.53760579649E+02 -0.10021565555E+03 -0.29146605952E+03  0.33691284675E+03  0.12499769964E+03 0.  0.
          2    1    1    2  501    0  0.77496590887E+02  0.18142035631E+03 -0.14724949042E+04  0.14856514767E+04  0.00000000000E+00 0. -1.
          1    1    1    2  502    0 -0.23736011237E+02 -0.81204700761E+02  0.74330638924E+03  0.74810560079E+03  0.00000000000E+00 0. -1.
         22    1    3    3    0    0  0.17915953117E+02 -0.94813145356E+02 -0.15261972592E+03  0.18056382431E+03  0.00000000000E+00 0.  1.
         22    1    3    3    0    0 -0.71676532766E+02 -0.54025101895E+01 -0.13884633360E+03  0.15634902244E+03  0.00000000000E+00 0.  1.
</event>
<event>
 7    1  0.5593520E-006  0.1324385E+03  0.7818608E-02  0.1346081E+00
          2   -1    0    0  502    0  0.00000000000E+00  0.00000000000E+00  0.20255041189E+04  0.20255041189E+04  0.00000000000E+00 0. -1.
          1   -1    0    0  501    0 -0.00000000000E+00 -0.00000000000E+00 -0.73250022217E+02  0.73250022217E+02  0.00000000000E+00 0. -1.
         25    2    1    2    0    0 -0.12302420161E+03  0.37296713505E+02  0.11714670655E+03  0.21418296374E+03  0.12499996833E+03 0.  0.
          2    1    1    2  501    0  0.14045054614E+03  0.55805560357E+00  0.17706856536E+03  0.22600872589E+03  0.00000000000E+00 0. -1.
          1    1    1    2  502    0 -0.17426344531E+02 -0.37854769108E+02  0.16580388248E+04  0.16585624515E+04  0.00000000000E+00 0. -1.
         22    1    3    3    0    0 -0.14116406907E+03  0.57207998122E+02  0.10143084334E+03  0.18299799295E+03  0.00000000000E+00 0.  1.
         22    1    3    3    0    0  0.18139867459E+02 -0.19911284617E+02  0.15715863209E+02  0.31184970786E+02  0.00000000000E+00 0.  1.
</event>
<event>
 7    1  0.5593520E-006  0.7975239E+02  0.7818608E-02  0.1339801E+00
          2   -1    0    0  502    0  0.00000000000E+00  0.00000000000E+00  0.60901548273E+03  0.60901548273E+03  0.00000000000E+00 0. -1.
          1   -1    0    0  501    0 -0.00000000000E+00 -0.00000000000E+00 -0.85982451651E+02  0.85982451651E+02  0.00000000000E+00 0. -1.
         25    2    1    2    0    0  0.60702977090E+02 -0.69247535159E+02  0.30189319684E+03  0.33947686020E+03  0.12499985505E+03 0.  0.
          2    1    1    2  501    0  0.22975308141E+02  0.69348057087E+02 -0.38606626842E+02  0.82628623624E+02  0.00000000000E+00 0. -1.
          1    1    1    2  502    0 -0.83678285231E+02 -0.10052192848E+00  0.25974646109E+03  0.27289245056E+03  0.00000000000E+00 0. -1.
         22    1    3    3    0    0 -0.61052435107E+01  0.18017353877E+02  0.15425579945E+03  0.15542442119E+03  0.00000000000E+00 0.  1.
         22    1    3    3    0    0  0.66808220601E+02 -0.87264889036E+02  0.14763739739E+03  0.18405243901E+03  0.00000000000E+00 0.  1.
</event>
<event>
 7    1  0.5593520E-006  0.1516440E+03  0.7818608E-02  0.1266604E+00
          2   -1    0    0  502    0  0.00000000000E+00  0.00000000000E+00  0.99112810774E+03  0.99112810774E+03  0.00000000000E+00 0. -1.
          1   -1    0    0  501    0 -0.00000000000E+00 -0.00000000000E+00 -0.19061950107E+03  0.19061950107E+03  0.00000000000E+00 0. -1.
         25    2    1    2    0    0  0.11224792824E+03  0.18146748474E+03  0.21712570356E+03  0.32908657969E+03  0.12499744146E+03 0.  0.
          2    1    1    2  501    0 -0.93244677466E+02 -0.10868359348E+03 -0.93881360095E+02  0.17123201552E+03  0.00000000000E+00 0. -1.
          1    1    1    2  502    0 -0.19003250772E+02 -0.72783891264E+02  0.67726426320E+03  0.68142901360E+03  0.00000000000E+00 0. -1.
         22    1    3    3    0    0 -0.53909729516E+01  0.75607250600E+01  0.74941164027E+02  0.75514271622E+02  0.00000000000E+00 0.  1.
         22    1    3    3    0    0  0.11763890119E+03  0.17390675968E+03  0.14218453954E+03  0.25357230807E+03  0.00000000000E+00 0.  1.
</event>
<event>
 7    1  0.5593520E-006  0.5408975E+02  0.7818608E-02  0.1454610E+00
          2   -1    0    0  502    0  0.00000000000E+00  0.00000000000E+00  0.53655337985E+02  0.53655337985E+02  0.00000000000E+00 0. -1.
          1   -1    0    0  501    0 -0.00000000000E+00 -0.00000000000E+00 -0.15999823152E+04  0.15999823152E+04  0.00000000000E+00 0. -1.
         25    2    1    2    0    0  0.36705939237E+02  0.81034480858E+02 -0.14024998944E+03  0.20786750445E+03  0.12499970722E+03 0.  0.
          2    1    1    2  501    0 -0.27068641002E+02 -0.33627840893E+02 -0.13956061400E+04  0.13962736268E+04  0.00000000000E+00 0. -1.
          1    1    1    2  502    0 -0.96372982346E+01 -0.47406639966E+02 -0.10470847819E+02  0.49496521940E+02  0.00000000000E+00 0. -1.
         22    1    3    3    0    0 -0.29772730453E+02  0.30181223653E+02  0.24140076602E+01  0.42463504010E+02  0.00000000000E+00 0.  1.
         22    1    3    3    0    0  0.66478669690E+02  0.50853257205E+02 -0.14266399710E+03  0.16540400044E+03  0.00000000000E+00 0.  1.
</event>
<event>
 7    1  0.5593520E-006  0.4467583E+03  0.7818608E-02  0.1175948E+00
          2   -1    0    0  502    0  0.00000000000E+00  0.00000000000E+00  0.15181407626E+04  0.15181407626E+04  0.00000000000E+00 0. -1.
          1   -1    0    0  501    0 -0.00000000000E+00 -0.00000000000E+00 -0.14803521986E+04  0.14803521986E+04  0.00000000000E+00 0. -1.
         25    2    1    2    0    0 -0.47680243642E+03 -0.15216352867E+03  0.16958126813E+03  0.54302579531E+03  0.12499962016E+03 0.  0.
          2    1    1    2  501    0  0.59820563054E+02  0.28101402568E+02 -0.12520022931E+04  0.12537455605E+04  0.00000000000E+00 0. -1.
          1    1    1    2  502    0  0.41698187337E+03  0.12406212610E+03  0.11202095889E+04  0.12017216054E+04  0.00000000000E+00 0. -1.
         22    1    3    3    0    0 -0.33483083960E+03 -0.16018029201E+03  0.98336105496E+02  0.38397839359E+03  0.00000000000E+00 0. -1.
         22    1    3    3    0    0 -0.14197159682E+03  0.80167633362E+01  0.71245162633E+02  0.15904740173E+03  0.00000000000E+00 0. -1.
</event>
<event>
 7    1  0.5593520E-006  0.1048258E+03  0.7818608E-02  0.1363618E+00
          2   -1    0    0  502    0  0.00000000000E+00  0.00000000000E+00  0.27199951241E+04  0.27199951241E+04  0.00000000000E+00 0. -1.
          1   -1    0    0  501    0 -0.00000000000E+00 -0.00000000000E+00 -0.98081001172E+03  0.98081001172E+03  0.00000000000E+00 0. -1.
         25    2    1    2    0    0 -0.11204668579E+03 -0.11530769976E+02  0.46590443911E+03  0.49535762287E+03  0.12499923881E+03 0.  0.
          2    1    1    2  501    0  0.20846023811E+02 -0.40312755515E+02 -0.96432083175E+03  0.96538818178E+03  0.00000000000E+00 0. -1.
          1    1    1    2  502    0  0.91200661983E+02  0.51843525491E+02  0.22376015050E+04  0.22400593312E+04  0.00000000000E+00 0. -1.
         22    1    3    3    0    0 -0.10904377739E+03 -0.51787951755E+02  0.27656891473E+03  0.30176630350E+03  0.00000000000E+00 0.  1.
         22    1    3    3    0    0 -0.30029084013E+01  0.40257181779E+02  0.18933552438E+03  0.19359131937E+03  0.00000000000E+00 0.  1.
</event>
<event>
 7    1  0.5593520E-006  0.3620860E+03  0.7818608E-02  0.1223929E+00
          2   -1    0    0  502    0  0.00000000000E+00  0.00000000000E+00  0.47336308285E+03  0.47336308285E+03  0.00000000000E+00 0. -1.
          1   -1    0    0  501    0 -0.00000000000E+00 -0.00000000000E+00 -0.19010947556E+04  0.19010947556E+04  0.00000000000E+00 0. -1.
         25    2    1    2    0    0  0.25720427900E+03 -0.28092375873E+03 -0.45566108814E+03  0.60689707748E+03  0.12499934421E+03 0.  0.
          2    1    1    2  501    0 -0.47172846687E+02 -0.10908204132E+02 -0.12880102780E+04  0.12889199908E+04  0.00000000000E+00 0. -1.
          1    1    1    2  502    0 -0.21003143232E+03  0.29183196286E+03  0.31593969334E+03  0.47864077024E+03  0.00000000000E+00 0. -1.
         22    1    3    3    0    0  0.12066220587E+03 -0.53061110467E+02 -0.18967995063E+03  0.23098340425E+03  0.00000000000E+00 0. -1.
         22    1    3    3    0    0  0.13654207314E+03 -0.22786264826E+03 -0.26598113751E+03  0.37591367323E+03  0.00000000000E+00 0. -1.
</event>
<event>
 7    1  0.5593520E-006  0.1387639E+03  0.7818608E-02  0.1304162E+00
          2   -1    0    0  502    0  0.00000000000E+00  0.00000000000E+00  0.73082334765E+03  0.73082334765E+03  0.00000000000E+00 0. -1.
          1   -1    0    0  501    0 -0.00000000000E+00 -0.00000000000E+00 -0.96048101883E+03  0.96048101883E+03  0.00000000000E+00 0. -1.
         25    2    1    2    0    0  0.80755309766E+02  0.74435473410E+02  0.12757585427E+03  0.20967223621E+03  0.12499915315E+03 0.  0.
          2    1    1    2  501    0 -0.13428501767E+02  0.56090557886E+02 -0.90891139641E+03  0.91073948079E+03  0.00000000000E+00 0. -1.
          1    1    1    2  502    0 -0.67326807999E+02 -0.13052603130E+03  0.55167787096E+03  0.57089264948E+03  0.00000000000E+00 0. -1.
         22    1    3    3    0    0  0.94137492174E+02  0.88379397277E+02  0.65756737235E+02  0.14490249752E+03  0.00000000000E+00 0. -1.
         22    1    3    3    0    0 -0.13382182408E+02 -0.13943923867E+02  0.61819117040E+02  0.64769738693E+02  0.00000000000E+00 0. -1.
</event>
<event>
 7    1  0.5593520E-006  0.3079332E+02  0.7818608E-02  0.1621442E+00
          2   -1    0    0  502    0  0.00000000000E+00  0.00000000000E+00  0.14251846891E+04  0.14251846891E+04  0.00000000000E+00 0. -1.
          1   -1    0    0  501    0 -0.00000000000E+00 -0.00000000000E+00 -0.23291011903E+02  0.23291011903E+02  0.00000000000E+00 0. -1.
         25    2    1    2    0    0 -0.71465111352E+01  0.11558153472E+02  0.25777318002E+03  0.28680352094E+03  0.12499833501E+03 0.  0.
          2    1    1    2  501    0 -0.74068839718E+01 -0.32424592110E+02  0.23408657660E+02  0.40671628405E+02  0.00000000000E+00 0. -1.
          1    1    1    2  502    0  0.14553395107E+02  0.20866438638E+02  0.11207118395E+04  0.11210005517E+04  0.00000000000E+00 0. -1.
         22    1    3    3    0    0  0.35789717186E+02 -0.12807946713E+02  0.18105589379E+02  0.42104153263E+02  0.00000000000E+00 0. -1.
         22    1    3    3    0    0 -0.42936228321E+02  0.24366100185E+02  0.23966759064E+03  0.24469936768E+03  0.00000000000E+00 0. -1.
</event>
<event>
 7    1  0.5593520E-006  0.3733396E+02  0.7818608E-02  0.1585479E+00
          2   -1    0    0  502    0  0.00000000000E+00  0.00000000000E+00  0.87498496584E+02  0.87498496584E+02  0.00000000000E+00 0. -1.
          1   -1    0    0  501    0 -0.00000000000E+00 -0.00000000000E+00 -0.10174213606E+04  0.10174213606E+04  0.00000000000E+00 0. -1.
         25    2    1    2    0    0 -0.56544839442E+02  0.68178538535E+01 -0.86500344041E+03  0.87584272306E+03  0.12500288646E+03 0.  0.
          2    1    1    2  501    0  0.30517070870E+02 -0.68673201894E+01 -0.14320329428E+03  0.14657979122E+03  0.00000000000E+00 0. -1.
          1    1    1    2  502    0  0.26027768572E+02  0.49466335937E-01  0.78283870657E+02  0.82497342919E+02  0.00000000000E+00 0. -1.
         22    1    3    3    0    0  0.80315408901E+01  0.11311549193E+02 -0.72555154516E+01  0.15655647501E+02  0.00000000000E+00 0. -1.
         22    1    3    3    0    0 -0.64576380332E+02 -0.44936953392E+01 -0.85774792495E+03  0.86018707556E+03  0.00000000000E+00 0. -1.
</event>
<event>
 7    1  0.5593520E-006  0.1881747E+03  0.7818608E-02  0.1228192E+00
          2   -1    0    0  502    0  0.00000000000E+00  0.00000000000E+00  0.14605812904E+04  0.14605812904E+04  0.00000000000E+00 0. -1.
          1   -1    0    0  501    0 -0.00000000000E+00 -0.00000000000E+00 -0.10822375879E+03  0.10822375879E+03  0.00000000000E+00 0. -1.
         25    2    1    2    0    0 -0.10986691536E+03 -0.19840392315E+03  0.59697419942E+03  0.65072103728E+03  0.12499927107E+03 0.  0.
          2    1    1    2  501    0  0.22160670203E+02  0.18255005620E+03  0.28892213312E+02  0.18614612087E+03  0.00000000000E+00 0. -1.
          1    1    1    2  502    0  0.87706245159E+02  0.15853866945E+02  0.72649111884E+03  0.73193789101E+03  0.00000000000E+00 0. -1.
         22    1    3    3    0    0 -0.11284863270E+03 -0.20902837673E+03  0.59330523732E+03  0.63909215362E+03  0.00000000000E+00 0. -1.
         22    1    3    3    0    0  0.29817173343E+01  0.10624453586E+02  0.36689620973E+01  0.11628883658E+02  0.00000000000E+00 0. -1.
</event>
<event>
 7    1  0.5593520E-006  0.6555228E+02  0.7818608E-02  0.1400412E+00
          2   -1    0    0  502    0  0.00000000000E+00  0.00000000000E+00  0.11884914541E+04  0.11884914541E+04  0.00000000000E+00 0. -1.
          1   -1    0    0  501    0 -0.00000000000E+00 -0.00000000000E+00 -0.10811065246E+03  0.10811065246E+03  0.00000000000E+00 0. -1.
         25    2    1    2    0    0  0.15833747140E+02  0.11246301856E+03  0.15417129046E+03  0.22867536919E+03  0.12499999833E+03 0.  0.
          2    1    1    2  501    0  0.32088634482E+01 -0.62139281003E+02 -0.56319582262E+02  0.83925457368E+02  0.00000000000E+00 0. -1.
          1    1    1    2  502    0 -0.19042610588E+02 -0.50323737554E+02  0.98252909345E+03  0.98400128001E+03  0.00000000000E+00 0. -1.
         22    1    3    3    0    0 -0.62702990981E+01  0.10071696264E+03  0.34855198392E+02  0.10676192237E+03  0.00000000000E+00 0. -1.
         22    1    3    3    0    0  0.22104046238E+02  0.11746055921E+02  0.11931609207E+03  0.12191344682E+03  0.00000000000E+00 0. -1.
</event>
<event>
 7    1  0.5593520E-006  0.1025150E+03  0.7818608E-02  0.1291471E+00
          2   -1    0    0  502    0  0.00000000000E+00  0.00000000000E+00  0.71806903355E+03  0.71806903355E+03  0.00000000000E+00 0. -1.
          1   -1    0    0  501    0 -0.00000000000E+00 -0.00000000000E+00 -0.51848514277E+03  0.51848514277E+03  0.00000000000E+00 0. -1.
         25    2    1    2    0    0 -0.97098209154E+02 -0.17776623467E+02  0.16238291496E+03  0.22745838621E+03  0.12500014329E+03 0.  0.
          2    1    1    2  501    0  0.49105023587E+02  0.91291099963E+02 -0.47665369761E+03  0.48779515754E+03  0.00000000000E+00 0. -1.
          1    1    1    2  502    0  0.47993185567E+02 -0.73514476495E+02  0.51385467343E+03  0.52130063257E+03  0.00000000000E+00 0. -1.
         22    1    3    3    0    0 -0.98434249311E+02 -0.42425542931E+01  0.18000120836E+03  0.20520169521E+03  0.00000000000E+00 0.  1.
         22    1    3    3    0    0  0.13360401572E+01 -0.13534069174E+02 -0.17618293406E+02  0.22256690999E+02  0.00000000000E+00 0.  1.
</event>
<event>
 7    1  0.5593520E-006  0.1251000E+03  0.7818608E-02  0.1321886E+00
          2   -1    0    0  502    0  0.00000000000E+00  0.00000000000E+00  0.27343854871E+03  0.27343854871E+03  0.00000000000E+00 0. -1.
          1   -1    0    0  501    0 -0.00000000000E+00 -0.00000000000E+00 -0.67521063577E+03  0.67521063577E+03  0.00000000000E+00 0. -1.
         25    2    1    2    0    0 -0.77404891090E+02  0.36789453806E+02 -0.12053536015E+03  0.19364741441E+03  0.12500226792E+03 0.  0.
          2    1    1    2  501    0  0.13155968987E+03 -0.30561444100E+02 -0.50600364401E+03  0.52371904836E+03  0.00000000000E+00 0. -1.
          1    1    1    2  502    0 -0.54154798783E+02 -0.62280097062E+01  0.22476691710E+03  0.23128272171E+03  0.00000000000E+00 0. -1.
         22    1    3    3    0    0 -0.48350661200E+02  0.61424320217E+02 -0.13239608098E+03  0.15375127906E+03  0.00000000000E+00 0.  1.
         22    1    3    3    0    0 -0.29054229891E+02 -0.24634866410E+02  0.11860720832E+02  0.39896135355E+02  0.00000000000E+00 0.  1.
</event>
<event>
 7    1  0.5593520E-006  0.8166701E+02  0.7818608E-02  0.1397534E+00
          2   -1    0    0  502    0  0.00000000000E+00  0.00000000000E+00  0.58334156882E+02  0.58334156882E+02  0.00000000000E+00 0. -1.
          1   -1    0    0  501    0 -0.00000000000E+00 -0.00000000000E+00 -0.19113330515E+04  0.19113330515E+04  0.00000000000E+00 0. -1.
         25    2    1    2    0    0 -0.37419256212E+02 -0.11595439662E+02 -0.12671450620E+03  0.18225215794E+03  0.12499851213E+03 0.  0.
          2    1    1    2  501    0  0.77617063739E+02  0.29940140811E+02 -0.17393496657E+04  0.17413380143E+04  0.00000000000E+00 0. -1.
          1    1    1    2  502    0 -0.40197807528E+02 -0.18344701149E+02  0.13065277241E+02  0.46077036142E+02  0.00000000000E+00 0. -1.
         22    1    3    3    0    0 -0.51153668090E+02  0.47442831271E+02 -0.76533585861E+02  0.10356114022E+03  0.00000000000E+00 0. -1.
         22    1    3    3    0    0  0.13734411878E+02 -0.59038270933E+02 -0.50180920339E+02  0.78691017724E+02  0.00000000000E+00 0. -1.
</event>
<event>
 7    1  0.5593520E-006  0.1119533E+03  0.7818608E-02  0.1328862E+00
          2   -1    0    0  502    0  0.00000000000E+00  0.00000000000E+00  0.10840231279E+04  0.10840231279E+04  0.00000000000E+00 0. -1.
          1   -1    0    0  501    0 -0.00000000000E+00 -0.00000000000E+00 -0.40740622367E+03  0.40740622367E+03  0.00000000000E+00 0. -1.
         25    2    1    2    0    0 -0.16591901579E+03  0.26188512488E+02 -0.11806820868E+03  0.24037917437E+03  0.12500835006E+03 0.  0.
          2    1    1    2  501    0  0.57108266206E+02 -0.41962965895E+01 -0.22151908438E+03  0.22880049763E+03  0.00000000000E+00 0. -1.
          1    1    1    2  502    0  0.10881074958E+03 -0.21992215899E+02  0.10162041973E+04  0.10222496795E+04  0.00000000000E+00 0. -1.
         22    1    3    3    0    0  0.12431507115E+02 -0.21175587550E+02 -0.98628138278E+01  0.26461726584E+02  0.00000000000E+00 0.  1.
         22    1    3    3    0    0 -0.17835052290E+03  0.47364100038E+02 -0.10820539485E+03  0.21391744778E+03  0.00000000000E+00 0.  1.
</event>
<event>
 7    1  0.5593520E-006  0.1695606E+03  0.7818608E-02  0.1303090E+00
          2   -1    0    0  502    0  0.00000000000E+00  0.00000000000E+00  0.80597568374E+03  0.80597568374E+03  0.00000000000E+00 0. -1.
          1   -1    0    0  501    0 -0.00000000000E+00 -0.00000000000E+00 -0.27725131834E+03  0.27725131834E+03  0.00000000000E+00 0. -1.
         25    2    1    2    0    0  0.87498279897E+02  0.18974362351E+03  0.26936386038E+03  0.36308538105E+03  0.12496204626E+03 0.  0.
          2    1    1    2  501    0 -0.85648856323E+02 -0.14211315779E+03 -0.19911865707E+03  0.25919127261E+03  0.00000000000E+00 0. -1.
          1    1    1    2  502    0 -0.18494235738E+01 -0.47630465723E+02  0.45847916209E+03  0.46095034841E+03  0.00000000000E+00 0. -1.
         22    1    3    3    0    0  0.95677617533E+02  0.62099595243E+02  0.14711375788E+03  0.18615322717E+03  0.00000000000E+00 0. -1.
         22    1    3    3    0    0 -0.81793376362E+01  0.12764402827E+03  0.12225010249E+03  0.17693215388E+03  0.00000000000E+00 0. -1.
</event>
<event>
 7    1  0.5593520E-006  0.9888428E+02  0.7818608E-02  0.1290976E+00
          2   -1    0    0  502    0  0.00000000000E+00  0.00000000000E+00  0.13444736924E+04  0.13444736924E+04  0.00000000000E+00 0. -1.
          1   -1    0    0  501    0 -0.00000000000E+00 -0.00000000000E+00 -0.97391839545E+03  0.97391839545E+03  0.00000000000E+00 0. -1.
         25    2    1    2    0    0  0.16396914260E+03 -0.85149748807E+02  0.12834309047E+03  0.25735877738E+03  0.12500092791E+03 0.  0.
          2    1    1    2  501    0 -0.75469678370E+02  0.62148980745E+02 -0.90495846469E+03  0.91022414327E+03  0.00000000000E+00 0. -1.
          1    1    1    2  502    0 -0.88499464229E+02  0.23000768062E+02  0.11471706712E+04  0.11508091672E+04  0.00000000000E+00 0. -1.
         22    1    3    3    0    0  0.52293770810E+00 -0.21881579469E+02  0.68892792706E+02  0.72286194192E+02  0.00000000000E+00 0.  1.
         22    1    3    3    0    0  0.16344620489E+03 -0.63268169338E+02  0.59450297766E+02  0.18507258319E+03  0.00000000000E+00 0.  1.
</event>
<event>
 7    1  0.5593520E-006  0.9360720E+02  0.7818608E-02  0.1328629E+00
          2   -1    0    0  502    0  0.00000000000E+00  0.00000000000E+00  0.80167209862E+03  0.80167209862E+03  0.00000000000E+00 0. -1.
          1   -1    0    0  501    0 -0.00000000000E+00 -0.00000000000E+00 -0.73222280511E+03  0.73222280511E+03  0.00000000000E+00 0. -1.
         25    2    1    2    0    0  0.12289292151E+02 -0.15853157143E+03 -0.16314900952E+02  0.20291327460E+03  0.12499734066E+03 0.  0.
          2    1    1    2  501    0  0.13215282952E+01  0.91268900021E+02 -0.61758421676E+03  0.62429321904E+03  0.00000000000E+00 0. -1.
          1    1    1    2  502    0 -0.13610820446E+02  0.67262671412E+02  0.70334841122E+03  0.70668841009E+03  0.00000000000E+00 0. -1.
         22    1    3    3    0    0  0.46107952331E+02 -0.16183342421E+03 -0.13142194093E+02  0.16878601164E+03  0.00000000000E+00 0.  1.
         22    1    3    3    0    0 -0.33818660180E+02  0.33018527780E+01 -0.31727068592E+01  0.34127262957E+02  0.00000000000E+00 0.  1.
</event>
<event>
 7    1  0.5593520E-006  0.2896085E+02  0.7818608E-02  0.1612647E+00
          2   -1    0    0  502    0  0.00000000000E+00  0.00000000000E+00  0.39224563759E+02  0.39224563759E+02  0.00000000000E+00 0. -1.
          1   -1    0    0  501    0 -0.00000000000E+00 -0.00000000000E+00 -0.17639622767E+04  0.17639622767E+04  0.00000000000E+00 0. -1.
         25    2    1    2    0    0  0.11254213243E+02 -0.40491250393E+02 -0.75268475277E+03  0.76415031046E+03  0.12500064494E+03 0.  0.
          2    1    1    2  501    0 -0.24500542240E+02  0.15270966635E+02 -0.99924065149E+03  0.99965762067E+03  0.00000000000E+00 0. -1.
          1    1    1    2  502    0  0.13246328997E+02  0.25220283758E+02  0.27187691288E+02  0.39378909359E+02  0.00000000000E+00 0. -1.
         22    1    3    3    0    0  0.33823261887E+02  0.19636575070E+01 -0.64873821032E+03  0.64962230144E+03  0.00000000000E+00 0.  1.
         22    1    3    3    0    0 -0.22569048644E+02 -0.42454907900E+02 -0.10394654246E+03  0.11452800902E+03  0.00000000000E+00 0.  1.
</event>
<event>
 7    1  0.5593520E-006  0.4793920E+02  0.7818608E-02  0.1486503E+00
          2   -1    0    0  502    0  0.00000000000E+00  0.00000000000E+00  0.15356778998E+04  0.15356778998E+04  0.00000000000E+00 0. -1.
          1   -1    0    0  501    0 -0.00000000000E+00 -0.00000000000E+00 -0.14845048463E+03  0.14845048463E+03  0.00000000000E+00 0. -1.
         25    2    1    2    0    0 -0.10016707666E+02  0.77085226867E+02  0.14374069260E+01  0.14720511763E+03  0.12499925553E+03 0.  0.
          2    1    1    2  501    0 -0.10694355711E+02 -0.44315609911E+02 -0.68409207377E+02  0.82207433847E+02  0.00000000000E+00 0. -1.
          1    1    1    2  502    0  0.20711063377E+02 -0.32769616956E+02  0.14541992156E+04  0.14547158329E+04  0.00000000000E+00 0. -1.
         22    1    3    3    0    0 -0.12729642267E+02 -0.22743292376E+02  0.33385086063E+02  0.42354044810E+02  0.00000000000E+00 0. -1.
         22    1    3    3    0    0  0.27129346007E+01  0.99828519243E+02 -0.31947679137E+02  0.10485107282E+03  0.00000000000E+00 0. -1.
</event>
<event>
 7    1  0.5593520E-006  0.6989563E+02  0.7818608E-02  0.1378310E+00
          2   -1    0    0  502    0  0.00000000000E+00  0.00000000000E+00  0.63312044270E+03  0.63312044270E+03  0.00000000000E+00 0. -1.
          1   -1    0    0  501    0 -0.00000000000E+00 -0.00000000000E+00 -0.16789570945E+03  0.16789570945E+03  0.00000000000E+00 0. -1.
         25    2    1    2    0    0 -0.11641503605E+03 -0.20716082211E+02  0.22036975900E+03  0.27958908023E+03  0.12500242568E+03 0.  0.
          2    1    1    2  501    0  0.58156762141E+02  0.36198243220E+02 -0.12722554782E+03  0.14449519651E+03  0.00000000000E+00 0. -1.
          1    1    1    2  502    0  0.58258273908E+02 -0.15482161009E+02  0.37208052207E+03  0.37693187540E+03  0.00000000000E+00 0. -1.
         22    1    3    3    0    0 -0.12437344999E+03 -0.31286790052E+02  0.22992095967E+03  0.26327032872E+03  0.00000000000E+00 0.  1.
         22    1    3    3    0    0  0.79584139363E+01  0.10570707841E+02 -0.95512006695E+01  0.16318751511E+02  0.00000000000E+00 0.  1.
</event>
<event>
 7    1  0.5593520E-006  0.4642268E+02  0.7818608E-02  0.1585393E+00
          2   -1    0    0  502    0  0.00000000000E+00  0.00000000000E+00  0.41787894531E+02  0.41787894531E+02  0.00000000000E+00 0. -1.
          1   -1    0    0  501    0 -0.00000000000E+00 -0.00000000000E+00 -0.22307304277E+04  0.22307304277E+04  0.00000000000E+00 0. -1.
         25    2    1    2    0    0 -0.16876222600E+02  0.41934818986E+02 -0.98666199111E+03  0.99557535737E+03  0.12500028624E+03 0.  0.
          2    1    1    2  501    0 -0.17834208627E+02 -0.10979679036E+02 -0.12250020026E+04  0.12251810146E+04  0.00000000000E+00 0. -1.
          1    1    1    2  502    0  0.34710431228E+02 -0.30955139950E+02  0.22721460494E+02  0.51761950237E+02  0.00000000000E+00 0. -1.
         22    1    3    3    0    0 -0.39426048966E+02 -0.33446527298E+02 -0.30029955768E+03  0.30471775116E+03  0.00000000000E+00 0. -1.
         22    1    3    3    0    0  0.22549826366E+02  0.75381346284E+02 -0.68636243343E+03  0.69085760621E+03  0.00000000000E+00 0. -1.
</event>
<event>
 7    1  0.5593520E-006  0.1265936E+03  0.7818608E-02  0.1352219E+00
          2   -1    0    0  502    0  0.00000000000E+00  0.00000000000E+00  0.78057181599E+03  0.78057181599E+03  0.00000000000E+00 0. -1.
          1   -1    0    0  501    0 -0.00000000000E+00 -0.00000000000E+00 -0.10234194686E+04  0.10234194686E+04  0.00000000000E+00 0. -1.
         25    2    1    2    0    0  0.92072555706E+02  0.13729282336E+03  0.18468833616E+03  0.27760125378E+03  0.12500399884E+03 0.  0.
          2    1    1    2  501    0 -0.60693589022E+02 -0.11033238451E+03 -0.97211746735E+03  0.98023941828E+03  0.00000000000E+00 0. -1.
          1    1    1    2  502    0 -0.31378966684E+02 -0.26960438843E+02  0.54458147855E+03  0.54615061255E+03  0.00000000000E+00 0. -1.
         22    1    3    3    0    0  0.68273667021E+02  0.16005885561E+03  0.16061621034E+03  0.23680730118E+03  0.00000000000E+00 0. -1.
         22    1    3    3    0    0  0.23798888685E+02 -0.22766032251E+02  0.24072125816E+02  0.40793952595E+02  0.00000000000E+00 0. -1.
</event>
<event>
 7    1  0.5593520E-006  0.1624208E+03  0.7818608E-02  0.1323641E+00
          2   -1    0    0  502    0  0.00000000000E+00  0.00000000000E+00  0.51704849756E+03  0.51704849756E+03  0.00000000000E+00 0. -1.
          1   -1    0    0  501    0 -0.00000000000E+00 -0.00000000000E+00 -0.45826587593E+03  0.45826587593E+03  0.00000000000E+00 0. -1.
         25    2    1    2    0    0  0.15600652043E+03 -0.64542040581E+02  0.12560255241E+03  0.24477375866E+03  0.12503792360E+03 0.  0.
          2    1    1    2  501    0 -0.16056339892E+03  0.23458180222E+02 -0.38075787788E+03  0.41389304519E+03  0.00000000000E+00 0. -1.
          1    1    1    2  502    0  0.45568784859E+01  0.41083860359E+02  0.31393794710E+03  0.31664756963E+03  0.00000000000E+00 0. -1.
         22    1    3    3    0    0 -0.13832245492E+02 -0.40755090457E+01  0.45073826265E+02  0.47324313027E+02  0.00000000000E+00 0. -1.
         22    1    3    3    0    0  0.16983876593E+03 -0.60466531535E+02  0.80528726141E+02  0.19744944563E+03  0.00000000000E+00 0. -1.
</event>
<event>
 7    1  0.5593520E-006  0.7234202E+02  0.7818608E-02  0.1418996E+00
          2   -1    0    0  502    0  0.00000000000E+00  0.00000000000E+00  0.27264452407E+04  0.27264452407E+04  0.00000000000E+00 0. -1.
          1   -1    0    0  501    0 -0.00000000000E+00 -0.00000000000E+00 -0.22728855392E+03  0.22728855392E+03  0.00000000000E+00 0. -1.
         25    2    1    2    0    0  0.32281926797E+02 -0.60051785730E+02 -0.35929971021E+02  0.14683804375E+03  0.12498843350E+03 0.  0.
          2    1    1    2  501    0  0.32253283809E+02  0.27169603213E+02 -0.13212951845E+03  0.13869632764E+03  0.00000000000E+00 0. -1.
          1    1    1    2  502    0 -0.64535210607E+02  0.32882182517E+02  0.26672161763E+04  0.26681994233E+04  0.00000000000E+00 0. -1.
         22    1    3    3    0    0  0.70322962578E+02 -0.61636114116E+02 -0.50253299772E+02  0.10615895519E+03  0.00000000000E+00 0.  1.
         22    1    3    3    0    0 -0.38041035781E+02  0.15843283868E+01  0.14323328752E+02  0.40679088562E+02  0.00000000000E+00 0.  1.
</event>
<event>
 7    1  0.5593520E-006  0.2640443E+03  0.7818608E-02  0.1279807E+00
          2   -1    0    0  502    0  0.00000000000E+00  0.00000000000E+00  0.63007105693E+03  0.63007105693E+03  0.00000000000E+00 0. -1.
          1   -1    0    0  501    0 -0.00000000000E+00 -0.00000000000E+00 -0.14685386497E+04  0.14685386497E+04  0.00000000000E+00 0. -1.
         25    2    1    2    0    0 -0.23936263921E+02 -0.23942932902E+03 -0.41448787264E+03  0.49530276778E+03  0.12500114750E+03 0.  0.
          2    1    1    2  501    0 -0.32211586559E+02 -0.20251850549E+02 -0.98332995106E+03  0.98406580899E+03  0.00000000000E+00 0. -1.
          1    1    1    2  502    0  0.56147850480E+02  0.25968117957E+03  0.55935023090E+03  0.61924112989E+03  0.00000000000E+00 0. -1.
         22    1    3    3    0    0 -0.46223542787E+02 -0.21819680323E+03 -0.40623016862E+03  0.46343220728E+03  0.00000000000E+00 0. -1.
         22    1    3    3    0    0  0.22287278865E+02 -0.21232525800E+02 -0.82577040227E+01  0.31870560503E+02  0.00000000000E+00 0. -1.
</event>
<event>
 7    1  0.5593520E-006  0.6921320E+02  0.7818608E-02  0.1413941E+00
          2   -1    0    0  502    0  0.00000000000E+00  0.00000000000E+00  0.13991087793E+03  0.13991087793E+03  0.00000000000E+00 0. -1.
          1   -1    0    0  501    0 -0.00000000000E+00 -0.00000000000E+00 -0.25648288664E+04  0.25648288664E+04  0.00000000000E+00 0. -1.
         25    2    1    2    0    0  0.91885781666E+01  0.40810008801E+02 -0.14369117521E+04  0.14429434699E+04  0.12498234726E+03 0.  0.
          2    1    1    2  501    0 -0.40707248067E+02  0.21064971256E+02 -0.11155943874E+04  0.11165355571E+04  0.00000000000E+00 0. -1.
          1    1    1    2  502    0  0.31518669900E+02 -0.61874980057E+02  0.12758815106E+03  0.14526071733E+03  0.00000000000E+00 0. -1.
         22    1    3    3    0    0  0.54023624620E+02 -0.96768983401E+01 -0.92072243191E+03  0.92235675907E+03  0.00000000000E+00 0.  1.
         22    1    3    3    0    0 -0.44835046454E+02  0.50486907141E+02 -0.51618932023E+03  0.52058671084E+03  0.00000000000E+00 0.  1.
</event>
<event>
 7    1  0.5593520E-006  0.6686041E+02  0.7818608E-02  0.1387888E+00
          2   -1    0    0  502    0  0.00000000000E+00  0.00000000000E+00  0.22751152854E+04  0.22751152854E+04  0.00000000000E+00 0. -1.
          1   -1    0    0  501    0 -0.00000000000E+00 -0.00000000000E+00 -0.73212749979E+03  0.73212749979E+03  0.00000000000E+00 0. -1.
         25    2    1    2    0    0  0.14958344214E+02  0.44864992316E+02  0.47138232433E+03  0.48996241056E+03  0.12500099389E+03 0.  0.
          2    1    1    2  501    0 -0.65220892151E+02 -0.15320502397E+02 -0.72081007142E+03  0.72391687481E+03  0.00000000000E+00 0. -1.
          1    1    1    2  502    0  0.50262547937E+02 -0.29544489919E+02  0.17924155327E+04  0.17933634998E+04  0.00000000000E+00 0. -1.
         22    1    3    3    0    0 -0.50803313337E+02 -0.47687758328E+01  0.19449363330E+03  0.20107583461E+03  0.00000000000E+00 0. -1.
         22    1    3    3    0    0  0.65761657551E+02  0.49633768149E+02  0.27688869103E+03  0.28888657595E+03  0.00000000000E+00 0. -1.
</event>
<event>
 7    1  0.5593520E-006  0.4032179E+02  0.7818608E-02  0.1536794E+00
          2   -1    0    0  502    0  0.00000000000E+00  0.00000000000E+00  0.14451172032E+04  0.14451172032E+04  0.00000000000E+00 0. -1.
          1   -1    0    0  501    0 -0.00000000000E+00 -0.00000000000E+00 -0.38760374019E+02  0.38760374019E+02  0.00000000000E+00 0. -1.
         25    2    1    2    0    0  0.11838072618E+02 -0.14665123984E+02  0.38467434131E+03  0.40491020732E+03  0.12499088488E+03 0.  0.
          2    1    1    2  501    0  0.29629608778E+02  0.14064710389E+02 -0.18702604863E+02  0.37756022345E+02  0.00000000000E+00 0. -1.
          1    1    1    2  502    0 -0.41467681397E+02  0.60041359582E+00  0.10403850927E+04  0.10412113476E+04  0.00000000000E+00 0. -1.
         22    1    3    3    0    0  0.24544787037E+02 -0.23967785044E+02  0.19627651382E+02  0.39523992579E+02  0.00000000000E+00 0.  1.
         22    1    3    3    0    0 -0.12706714418E+02  0.93026610595E+01  0.36504668993E+03  0.36538621474E+03  0.00000000000E+00 0.  1.
</event>
<event>
 7    1  0.5593520E-006  0.1076834E+03  0.7818608E-02  0.1374108E+00
          2   -1    0    0  502    0  0.00000000000E+00  0.00000000000E+00  0.44571395748E+03  0.44571395748E+03  0.00000000000E+00 0. -1.
          1   -1    0    0  501    0 -0.00000000000E+00 -0.00000000000E+00 -0.65667627829E+03  0.65667627829E+03  0.00000000000E+00 0. -1.
         25    2    1    2    0    0  0.51229302120E+02 -0.99969985510E+02  0.32994225449E+00  0.16805822131E+03  0.12500006996E+03 0.  0.
          2    1    1    2  501    0 -0.11386123485E+02  0.10722741861E+03 -0.56657685781E+03  0.57674665055E+03  0.00000000000E+00 0. -1.
          1    1    1    2  502    0 -0.39843178634E+02 -0.72574330954E+01  0.35528459475E+03  0.35758536391E+03  0.00000000000E+00 0. -1.
         22    1    3    3    0    0  0.78907698516E+02 -0.93644290895E+02  0.30942998863E+02  0.12630576899E+03  0.00000000000E+00 0.  1.
         22    1    3    3    0    0 -0.27678396397E+02 -0.63256946157E+01 -0.30613056609E+02  0.41752452316E+02  0.00000000000E+00 0.  1.
</event>
<event>
 7    1  0.5593520E-006  0.8520762E+02  0.7818608E-02  0.1361607E+00
          2   -1    0    0  502    0  0.00000000000E+00  0.00000000000E+00  0.20966066273E+03  0.20966066273E+03  0.00000000000E+00 0. -1.
          1   -1    0    0  501    0 -0.00000000000E+00 -0.00000000000E+00 -0.13648838750E+04  0.13648838750E+04  0.00000000000E+00 0. -1.
         25    2    1    2    0    0 -0.10691947870E+03  0.83924748465E+02 -0.12382046267E+03  0.22233212522E+03  0.12499971440E+03 0.  0.
          2    1    1    2  501    0  0.52050239410E+02 -0.22689072216E+02 -0.11805436915E+04  0.11819083843E+04  0.00000000000E+00 0. -1.
          1    1    1    2  502    0  0.54869239286E+02 -0.61235676248E+02  0.14914094190E+03  0.17030402818E+03  0.00000000000E+00 0. -1.
         22    1    3    3    0    0  0.22928897790E+02  0.38008184451E+02 -0.46920356559E+02  0.64590063467E+02  0.00000000000E+00 0.  1.
         22    1    3    3    0    0 -0.12984837649E+03  0.45916564014E+02 -0.76900106116E+02  0.15774206176E+03  0.00000000000E+00 0.  1.
</event>
<event>
 7    1  0.5593520E-006  0.1323975E+03  0.7818608E-02  0.1380680E+00
          2   -1    0    0  502    0  0.00000000000E+00  0.00000000000E+00  0.75860256047E+02  0.75860256047E+02  0.00000000000E+00 0. -1.
          1   -1    0    0  501    0 -0.00000000000E+00 -0.00000000000E+00 -0.20998615294E+04  0.20998615294E+04  0.00000000000E+00 0. -1.
         25    2    1    2    0    0  0.11708622951E+02 -0.15145942959E+03 -0.60769537019E+03  0.63874514232E+03  0.12499857288E+03 0.  0.
          2    1    1    2  501    0 -0.22597020570E+02  0.21532923823E+02 -0.14058278599E+04  0.14061743362E+04  0.00000000000E+00 0. -1.
          1    1    1    2  502    0  0.10888397619E+02  0.12992650577E+03 -0.10478043265E+02  0.13080230692E+03  0.00000000000E+00 0. -1.
         22    1    3    3    0    0  0.26396776600E+02 -0.12330694287E+03 -0.25352581175E+03  0.28315495616E+03  0.00000000000E+00 0. -1.
         22    1    3    3    0    0 -0.14688153650E+02 -0.28152486721E+02 -0.35416955844E+03  0.35559018616E+03  0.00000000000E+00 0. -1.
</event>
<event>
 7    1  0.5593520E-006  0.9395987E+02  0.7818608E-02  0.1369471E+00
          2   -1    0    0  502    0  0.00000000000E+00  0.00000000000E+00  0.29483421373E+04  0.29483421373E+04  0.00000000000E+00 0. -1.
          1   -1    0    0  501    0 -0.00000000000E+00 -0.00000000000E+00 -0.17762966361E+02  0.17762966361E+02  0.00000000000E+00 0. -1.
         25    2    1    2    0    0 -0.53402936817E+02  0.22387136429E+02  0.94491718209E+03  0.95490645138E+03  0.12499916933E+03 0.  0.
          2    1    1    2  501    0  0.81859815157E+02 -0.61321227005E+02  0.19773828834E+03  0.22262469067E+03  0.00000000000E+00 0. -1.
          1    1    1    2  502    0 -0.28456878340E+02  0.38934090576E+02  0.17879237005E+04  0.17885739616E+04  0.00000000000E+00 0. -1.
         22    1    3    3    0    0 -0.14626564063E+02 -0.44251893320E+02  0.58343105512E+03  0.58528963985E+03  0.00000000000E+00 0. -1.
         22    1    3    3    0    0 -0.38776372754E+02  0.66639029749E+02  0.36148612697E+03  0.36961681153E+03  0.00000000000E+00 0. -1.
</event>
<event>
 7    1  0.5593520E-006  0.5486405E+02  0.7818608E-02  0.1447838E+00
          2   -1    0    0  502    0  0.00000000000E+00  0.00000000000E+00  0.29096167267E+03  0.29096167267E+03  0.00000000000E+00 0. -1.
          1   -1    0    0  501    0 -0.00000000000E+00 -0.00000000000E+00 -0.18240553788E+03  0.18240553788E+03  0.00000000000E+00 0. -1.
         25    2    1    2    0    0 -0.71950751877E+02 -0.27032278484E+01  0.11540340602E+03  0.18474086571E+03  0.12500809256E+03 0.  0.
          2    1    1    2  501    0  0.41642558078E+02  0.35603671480E+02 -0.13884025100E+03  0.14925930243E+03  0.00000000000E+00 0. -1.
          1    1    1    2  502    0  0.30308193800E+02 -0.32900443631E+02  0.13199297976E+03  0.13936704240E+03  0.00000000000E+00 0. -1.
         22    1    3    3    0    0 -0.25528298570E+01 -0.32168337177E+02  0.10349880085E+03  0.10841273281E+03  0.00000000000E+00 0.  1.
         22    1    3    3    0    0 -0.69397922020E+02  0.29465109329E+02  0.11904605170E+02  0.76328132905E+02  0.00000000000E+00 0.  1.
</event>
<event>
 7    1  0.5593520E-006  0.8787895E+02  0.7818608E-02  0.1345926E+00
          2   -1    0    0  502    0  0.00000000000E+00  0.00000000000E+00  0.37645450209E+03  0.37645450209E+03  0.00000000000E+00 0. -1.
          1   -1    0    0  501    0 -0.00000000000E+00 -0.00000000000E+00 -0.12521391120E+03  0.12521391120E+03  0.00000000000E+00 0. -1.
         25    2    1    2    0    0 -0.71573734992E+02 -0.73264785393E+02  0.58656497860E+02  0.17191814464E+03  0.12499894158E+03 0.  0.
          2    1    1    2  501    0 -0.15983950080E+02  0.60822062689E+02 -0.44281546964E+02  0.76913362762E+02  0.00000000000E+00 0. -1.
          1    1    1    2  502    0  0.87557685072E+02  0.12442722705E+02  0.23686563999E+03  0.25283690588E+03  0.00000000000E+00 0. -1.
         22    1    3    3    0    0  0.20520715169E+02 -0.44320667110E+02 -0.14326765108E+02  0.50898698241E+02  0.00000000000E+00 0. -1.
         22    1    3    3    0    0 -0.92094450161E+02 -0.28944118283E+02  0.72983262968E+02  0.12101944640E+03  0.00000000000E+00 0. -1.
</event>
<event>
 7    1  0.5593520E-006  0.1593513E+03  0.7818608E-02  0.1240304E+00
          2   -1    0    0  502    0  0.00000000000E+00  0.00000000000E+00  0.78846601278E+03  0.78846601278E+03  0.00000000000E+00 0. -1.
          1   -1    0    0  501    0 -0.00000000000E+00 -0.00000000000E+00 -0.84105654110E+02  0.84105654110E+02  0.00000000000E+00 0. -1.
         25    2    1    2    0    0 -0.89813119865E+02 -0.89784219968E+02  0.36713690841E+03  0.40809586231E+03  0.12500048266E+03 0.  0.
          2    1    1    2  501    0 -0.63785181363E+02 -0.67621965536E+02  0.60131741044E+02  0.11071181448E+03  0.00000000000E+00 0. -1.
          1    1    1    2  502    0  0.15359830123E+03  0.15740618550E+03  0.27709170922E+03  0.35376399010E+03  0.00000000000E+00 0. -1.
         22    1    3    3    0    0 -0.26003171429E+02 -0.77766423416E+02  0.83150704098E+02  0.11678108206E+03  0.00000000000E+00 0.  1.
         22    1    3    3    0    0 -0.63809948436E+02 -0.12017796552E+02  0.28398620431E+03  0.29131478025E+03  0.00000000000E+00 0.  1.
</event>
<event>
 7    1  0.5593520E-006  0.1706690E+03  0.7818608E-02  0.1180082E+00
          2   -1    0    0  502    0  0.00000000000E+00  0.00000000000E+00  0.13847212122E+04  0.13847212122E+04  0.00000000000E+00 0. -1.
          1   -1    0    0  501    0 -0.00000000000E+00 -0.00000000000E+00 -0.32781051785E+03  0.32781051785E+03  0.00000000000E+00 0. -1.
         25    2    1    2    0    0  0.51195007438E+02  0.41705600635E+02  0.27830389050E+03  0.31215454478E+03  0.12500847350E+03 0.  0.
          2    1    1    2  501    0 -0.16771954920E+03  0.75294723288E+02 -0.27671190435E+03  0.33221773063E+03  0.00000000000E+00 0. -1.
          1    1    1    2  502    0  0.11652454176E+03 -0.11700032392E+03  0.10553187082E+04  0.10681594547E+04  0.00000000000E+00 0. -1.
         22    1    3    3    0    0  0.53522393645E+02  0.40426444466E+02  0.29128332147E+03  0.29890620167E+03  0.00000000000E+00 0.  1.
         22    1    3    3    0    0 -0.23273862064E+01  0.12791561689E+01 -0.12979430962E+02  0.13248343110E+02  0.00000000000E+00 0.  1.
</event>
<event>
 7    1  0.5593520E-006  0.8374456E+02  0.7818608E-02  0.1348576E+00
          2   -1    0    0  502    0  0.00000000000E+00  0.00000000000E+00  0.12961533405E+03  0.12961533405E+03  0.00000000000E+00 0. -1.
          1   -1    0    0  501    0 -0.00000000000E+00 -0.00000000000E+00 -0.59326486381E+03  0.59326486381E+03  0.00000000000E+00 0. -1.
         25    2    1    2    0    0 -0.11062021617E+03 -0.18818520173E+02 -0.34429617773E+03  0.38308433991E+03  0.12499113790E+03 0.  0.
          2    1    1    2  501    0  0.71206478773E+02 -0.32252068012E+02 -0.21253944517E+03  0.22645876946E+03  0.00000000000E+00 0. -1.
          1    1    1    2  502    0  0.39413737401E+02  0.51070588186E+02  0.93186093145E+02  0.11333708850E+03  0.00000000000E+00 0. -1.
         22    1    3    3    0    0 -0.27961993050E+02  0.84052725763E+01 -0.26097163797E+03  0.26259991906E+03  0.00000000000E+00 0. -1.
         22    1    3    3    0    0 -0.82658223124E+02 -0.27223792749E+02 -0.83324539760E+02  0.12048442085E+03  0.00000000000E+00 0. -1.
</event>
<event>
 7    1  0.5593520E-006  0.9712832E+02  0.7818608E-02  0.1342592E+00
          2   -1    0    0  502    0  0.00000000000E+00  0.00000000000E+00  0.64276636304E+03  0.64276636304E+03  0.00000000000E+00 0. -1.
          1   -1    0    0  501    0 -0.00000000000E+00 -0.00000000000E+00 -0.17504637218E+03  0.17504637218E+03  0.00000000000E+00 0. -1.
         25    2    1    2    0    0 -0.49166618566E+02  0.11829978680E+03  0.36685541430E+03  0.40819291970E+03  0.12500547488E+03 0.  0.
          2    1    1    2  501    0  0.50117339097E+02 -0.30281469836E+02 -0.14076408190E+03  0.15245734436E+03  0.00000000000E+00 0. -1.
          1    1    1    2  502    0 -0.95072053148E+00 -0.88018316968E+02  0.24162865846E+03  0.25716247117E+03  0.00000000000E+00 0. -1.
         22    1    3    3    0    0  0.95011811331E+01  0.53058305036E+02  0.33454822465E+02  0.63440376121E+02  0.00000000000E+00 0. -1.
         22    1    3    3    0    0 -0.58667799699E+02  0.65241481768E+02  0.33340059184E+03  0.34475254358E+03  0.00000000000E+00 0. -1.
</event>
<event>
 7    1  0.5593520E-006  0.1825753E+03  0.7818608E-02  0.1323798E+00
          2   -1    0    0  502    0  0.00000000000E+00  0.00000000000E+00  0.19745569165E+04  0.19745569165E+04  0.00000000000E+00 0. -1.
          1   -1    0    0  501    0 -0.00000000000E+00 -0.00000000000E+00 -0.71666232352E+03  0.71666232352E+03  0.00000000000E+00 0. -1.
         25    2    1    2    0    0 -0.93752810332E+02  0.19008506615E+03  0.95903517195E+02  0.26409662435E+03  0.12501048182E+03 0.  0.
          2    1    1    2  501    0  0.63752984136E+02 -0.16890767612E+03 -0.61949093946E+03  0.64526217162E+03  0.00000000000E+00 0. -1.
          1    1    1    2  502    0  0.29999826196E+02 -0.21177390034E+02  0.17814820152E+04  0.17818604440E+04  0.00000000000E+00 0. -1.
         22    1    3    3    0    0 -0.54667402631E+02  0.19757532063E+03  0.70038080349E+02  0.21663301903E+03  0.00000000000E+00 0. -1.
         22    1    3    3    0    0 -0.39085407701E+02 -0.74902544790E+01  0.25865436846E+02  0.47463605326E+02  0.00000000000E+00 0. -1.
</event>
<event>
 7    1  0.5593520E-006  0.1669625E+03  0.7818608E-02  0.1341484E+00
          2   -1    0    0  502    0  0.00000000000E+00  0.00000000000E+00  0.12647229966E+04  0.12647229966E+04  0.00000000000E+00 0. -1.
          1   -1    0    0  501    0 -0.00000000000E+00 -0.00000000000E+00 -0.77013822747E+03  0.77013822747E+03  0.00000000000E+00 0. -1.
         25    2    1    2    0    0  0.65934746293E+02 -0.11756664129E+03 -0.36458921678E+03  0.40831304449E+03  0.12499975759E+03 0.  0.
          2    1    1    2  501    0  0.52413803986E+01 -0.33989305775E+02 -0.37726214289E+03  0.37882643708E+03  0.00000000000E+00 0. -1.
          1    1    1    2  502    0 -0.71176126692E+02  0.15155594706E+03  0.12364361288E+04  0.12477217425E+04  0.00000000000E+00 0. -1.
         22    1    3    3    0    0  0.10097414866E+03 -0.82832793710E+02 -0.22369212934E+03  0.25902744862E+03  0.00000000000E+00 0.  1.
         22    1    3    3    0    0 -0.35039402363E+02 -0.34733847579E+02 -0.14089708744E+03  0.14928559587E+03  0.00000000000E+00 0.  1.
</event>
<event>
 7    1  0.5593520E-006  0.1398251E+03  0.7818608E-02  0.1364209E+00
          2   -1    0    0  502    0  0.00000000000E+00  0.00000000000E+00  0.14295129480E+04  0.14295129480E+04  0.00000000000E+00 0. -1.
          1   -1    0    0  501    0 -0.00000000000E+00 -0.00000000000E+00 -0.41081010292E+03  0.41081010292E+03  0.00000000000E+00 0. -1.
         25    2    1    2    0    0 -0.10464550524E+03 -0.35727619933E+02  0.93732763292E+02  0.19141107967E+03  0.12500090366E+03 0.  0.
          2    1    1    2  501    0  0.13848417586E+03  0.34636316063E+02 -0.34766303606E+03  0.37582858859E+03  0.00000000000E+00 0. -1.
          1    1    1    2  502    0 -0.33838670629E+02  0.10913038695E+01  0.12726331179E+04  0.12730833827E+04  0.00000000000E+00 0. -1.
         22    1    3    3    0    0 -0.48774064042E+02 -0.79301388999E+02  0.70717766446E+02  0.11691288257E+03  0.00000000000E+00 0.  1.
         22    1    3    3    0    0 -0.55871441193E+02  0.43573769066E+02  0.23014996847E+02  0.74498197102E+02  0.00000000000E+00 0.  1.
</event>
<event>
 7    1  0.5593520E-006  0.8843873E+02  0.7818608E-02  0.1475620E+00
          2   -1    0    0  502    0  0.00000000000E+00  0.00000000000E+00  0.15439984481E+04  0.15439984481E+04  0.00000000000E+00 0. -1.
          1   -1    0    0  501    0 -0.00000000000E+00 -0.00000000000E+00 -0.94255030077E+02  0.94255030077E+02  0.00000000000E+00 0. -1.
         25    2    1    2    0    0 -0.30014688162E+02  0.97362842197E+02  0.81105994155E+03  0.82693588008E+03  0.12499726570E+03 0.  0.
          2    1    1    2  501    0 -0.72787260374E+01 -0.21490770244E+02 -0.82312189801E+02  0.85382256051E+02  0.00000000000E+00 0. -1.
          1    1    1    2  502    0  0.37293414199E+02 -0.75872071953E+02  0.72099566627E+03  0.72593534205E+03  0.00000000000E+00 0. -1.
         22    1    3    3    0    0 -0.58557986414E+02  0.94982631229E+00  0.36624587775E+03  0.37089888502E+03  0.00000000000E+00 0.  1.
         22    1    3    3    0    0  0.28543298252E+02  0.96413015884E+02  0.44481406380E+03  0.45603699506E+03  0.00000000000E+00 0.  1.
</event>
<event>
 7    1  0.5593520E-006  0.4731531E+02  0.7818608E-02  0.1482210E+00
          2   -1    0    0  502    0  0.00000000000E+00  0.00000000000E+00  0.92482160030E+03  0.92482160030E+03  0.00000000000E+00 0. -1.
          1   -1    0    0  501    0 -0.00000000000E+00 -0.00000000000E+00 -0.44641021927E+03  0.44641021927E+03  0.00000000000E+00 0. -1.
         25    2    1    2    0    0  0.76911959574E+02  0.32787345370E+02  0.53124161115E+02  0.15949158799E+03  0.12499972241E+03 0.  0.
          2    1    1    2  501    0 -0.46479304661E+02 -0.60965294528E+01 -0.39132631041E+03  0.39412405998E+03  0.00000000000E+00 0. -1.
          1    1    1    2  502    0 -0.30432654913E+02 -0.26690815917E+02  0.81661353033E+03  0.81761617160E+03  0.00000000000E+00 0. -1.
         22    1    3    3    0    0  0.32219045535E+02  0.78421195384E+02  0.18274500324E+02  0.86728934865E+02  0.00000000000E+00 0. -1.
         22    1    3    3    0    0  0.44692914039E+02 -0.45633850014E+02  0.34849660791E+02  0.72762653124E+02  0.00000000000E+00 0. -1.
</event>
<event>
 7    1  0.5593520E-006  0.4971229E+02  0.7818608E-02  0.1536146E+00
          2   -1    0    0  502    0  0.00000000000E+00  0.00000000000E+00  0.50925973173E+03  0.50925973173E+03  0.00000000000E+00 0. -1.
          1   -1    0    0  501    0 -0.00000000000E+00 -0.00000000000E+00 -0.77376997193E+02  0.77376997193E+02  0.00000000000E+00 0. -1.
         25    2    1    2    0    0 -0.20185110091E+02 -0.25708294863E+02  0.45573035117E+02  0.13700630700E+03  0.12500188613E+03 0.  0.
          2    1    1    2  501    0  0.16363744524E+02  0.52149404125E+02 -0.72763437355E+01  0.55138712930E+02  0.00000000000E+00 0. -1.
          1    1    1    2  502    0  0.38213655673E+01 -0.26441109262E+02  0.39358604316E+03  0.39449170899E+03  0.00000000000E+00 0. -1.
         22    1    3    3    0    0 -0.55398614053E+02 -0.53971460642E+02  0.70690101344E+01  0.77665281221E+02  0.00000000000E+00 0. -1.
         22    1    3    3    0    0  0.35213503962E+02  0.28263165779E+02  0.38504024982E+02  0.59341025783E+02  0.00000000000E+00 0. -1.
</event>
<event>
 7    1  0.5593520E-006  0.1111492E+03  0.7818608E-02  0.1311101E+00
          2   -1    0    0  502    0  0.00000000000E+00  0.00000000000E+00  0.68013070868E+02  0.68013070868E+02  0.00000000000E+00 0. -1.
          1   -1    0    0  501    0 -0.00000000000E+00 -0.00000000000E+00 -0.13040982445E+04  0.13040982445E+04  0.00000000000E+00 0. -1.
         25    2    1    2    0    0 -0.67940264574E+02 -0.11377669466E+03 -0.90178216971E+03  0.91999841226E+03  0.12499992463E+03 0.  0.
          2    1    1    2  501    0  0.88877774632E+02  0.49506258678E+02 -0.36424309955E+03  0.37818403462E+03  0.00000000000E+00 0. -1.
          1    1    1    2  502    0 -0.20937510058E+02  0.64270435983E+02  0.29940095631E+02  0.73928868484E+02  0.00000000000E+00 0. -1.
         22    1    3    3    0    0 -0.44333625849E+02 -0.99049338556E+02 -0.87388695028E+03  0.88059902550E+03  0.00000000000E+00 0. -1.
         22    1    3    3    0    0 -0.23606638725E+02 -0.14727356105E+02 -0.27895219430E+02  0.39399386757E+02  0.00000000000E+00 0. -1.
</event>
<event>
 7    1  0.5593520E-006  0.1291891E+03  0.7818608E-02  0.1296048E+00
          2   -1    0    0  502    0  0.00000000000E+00  0.00000000000E+00  0.23679426351E+04  0.23679426351E+04  0.00000000000E+00 0. -1.
          1   -1    0    0  501    0 -0.00000000000E+00 -0.00000000000E+00 -0.11228769334E+03  0.11228769334E+03  0.00000000000E+00 0. -1.
         25    2    1    2    0    0  0.39553086462E+02  0.14427658895E+03  0.21005521184E+03  0.28658075793E+03  0.12500063210E+03 0.  0.
          2    1    1    2  501    0  0.24382678301E+02 -0.12506230000E+03 -0.18252629504E+02  0.12871772359E+03  0.00000000000E+00 0. -1.
          1    1    1    2  502    0 -0.63935764763E+02 -0.19214288946E+02  0.20638523594E+04  0.20649318469E+04  0.00000000000E+00 0. -1.
         22    1    3    3    0    0 -0.18407167870E+02  0.12851118560E+03  0.17192218024E+03  0.21543255258E+03  0.00000000000E+00 0.  1.
         22    1    3    3    0    0  0.57960254332E+02  0.15765403345E+02  0.38133031602E+02  0.71148205347E+02  0.00000000000E+00 0.  1.
</event>
<event>
 7    1  0.5593520E-006  0.8972740E+02  0.7818608E-02  0.1329942E+00
          2   -1    0    0  502    0  0.00000000000E+00  0.00000000000E+00  0.72807487516E+03  0.72807487516E+03  0.00000000000E+00 0. -1.
          1   -1    0    0  501    0 -0.00000000000E+00 -0.00000000000E+00 -0.59003888489E+03  0.59003888489E+03  0.00000000000E+00 0. -1.
         25    2    1    2    0    0  0.68270045870E+02  0.14154943123E+03  0.55237913354E+00  0.20080411510E+03  0.12499978750E+03 0.  0.
          2    1    1    2  501    0 -0.44643446503E+02 -0.74839699517E+02 -0.48401371645E+03  0.49179598987E+03  0.00000000000E+00 0. -1.
          1    1    1    2  502    0 -0.23626599367E+02 -0.66709731710E+02  0.62149732758E+03  0.62551365508E+03  0.00000000000E+00 0. -1.
         22    1    3    3    0    0 -0.42830494791E+00  0.89496304275E+02  0.48893174304E+02  0.10198193182E+03  0.00000000000E+00 0.  1.
         22    1    3    3    0    0  0.68698350818E+02  0.52053126953E+02 -0.48340795170E+02  0.98822183280E+02  0.00000000000E+00 0.  1.
</event>
<event>
 7    1  0.5593520E-006  0.2832033E+03  0.7818608E-02  0.1178828E+00
          2   -1    0    0  502    0  0.00000000000E+00  0.00000000000E+00  0.57102000239E+02  0.57102000239E+02  0.00000000000E+00 0. -1.
          1   -1    0    0  501    0 -0.00000000000E+00 -0.00000000000E+00 -0.24015786341E+04  0.24015786341E+04  0.00000000000E+00 0. -1.
         25    2    1    2    0    0  0.12449118932E+03  0.17515550000E+03 -0.13146670405E+04  0.13379657385E+04  0.12500153875E+03 0.  0.
          2    1    1    2  501    0  0.49590368539E+02  0.87901587038E+02 -0.44452250035E+03  0.45583565786E+03  0.00000000000E+00 0. -1.
          1    1    1    2  502    0 -0.17408155786E+03 -0.26305708704E+03 -0.58528709304E+03  0.66487923799E+03  0.00000000000E+00 0. -1.
         22    1    3    3    0    0  0.77074164837E+02  0.14137849238E+02 -0.50926346938E+03  0.51525681646E+03  0.00000000000E+00 0. -1.
         22    1    3    3    0    0  0.47417024482E+02  0.16101765076E+03 -0.80540357109E+03  0.82270892203E+03  0.00000000000E+00 0. -1.
</event>
<event>
 7    1  0.5593520E-006  0.7240079E+02  0.7818608E-02  0.1490750E+00
          2   -1    0    0  502    0  0.00000000000E+00  0.00000000000E+00  0.12813322017E+04  0.12813322017E+04  0.00000000000E+00 0. -1.
          1   -1    0    0  501    0 -0.00000000000E+00 -0.00000000000E+00 -0.40203744408E+02  0.40203744408E+02  0.00000000000E+00 0. -1.
         25    2    1    2    0    0  0.10649603878E+02  0.62540868696E+02  0.22177195036E+03  0.26235962720E+03  0.12500000680E+03 0.  0.
          2    1    1    2  501    0 -0.35126145163E+02 -0.67213655602E+02  0.53057422748E+02  0.92555992146E+02  0.00000000000E+00 0. -1.
          1    1    1    2  502    0  0.24476541284E+02  0.46727869064E+01  0.96629908423E+03  0.96662032681E+03  0.00000000000E+00 0. -1.
         22    1    3    3    0    0 -0.43449176735E+02  0.38214552883E+02  0.18191567292E+03  0.19089655592E+03  0.00000000000E+00 0. -1.
         22    1    3    3    0    0  0.54098780614E+02  0.24326315813E+02  0.39856277442E+02  0.71463071278E+02  0.00000000000E+00 0. -1.
</event>
<event>
 7    1  0.5593520E-006  0.5373555E+02  0.7818608E-02  0.1436018E+00
          2   -1    0    0  502    0  0.00000000000E+00  0.00000000000E+00  0.78596569683E+02  0.78596569683E+02  0.00000000000E+00 0. -1.
          1   -1    0    0  501    0 -0.00000000000E+00 -0.00000000000E+00 -0.90272853979E+03  0.90272853979E+03  0.00000000000E+00 0. -1.
         25    2    1    2    0    0  0.30896896122E+02  0.53219561560E+01 -0.96052616837E+02  0.16073163644E+03  0.12500244936E+03 0.  0.
          2    1    1    2  501    0 -0.22284296890E+02  0.48897027890E+02 -0.75675242809E+03  0.75865785875E+03  0.00000000000E+00 0. -1.
          1    1    1    2  502    0 -0.86125992321E+01 -0.54218984046E+02  0.28673074818E+02  0.61935614278E+02  0.00000000000E+00 0. -1.
         22    1    3    3    0    0  0.15530029485E+02 -0.58038202928E+02 -0.27332472111E+02  0.66005142577E+02  0.00000000000E+00 0. -1.
         22    1    3    3    0    0  0.15366866638E+02  0.63360159084E+02 -0.68720144726E+02  0.94726493868E+02  0.00000000000E+00 0. -1.
</event>
<event>
 7    1  0.5593520E-006  0.1231238E+03  0.7818608E-02  0.1313282E+00
          2   -1    0    0  502    0  0.00000000000E+00  0.00000000000E+00  0.54226804211E+03  0.54226804211E+03  0.00000000000E+00 0. -1.
          1   -1    0    0  501    0 -0.00000000000E+00 -0.00000000000E+00 -0.15351083486E+04  0.15351083486E+04  0.00000000000E+00 0. -1.
         25    2    1    2    0    0 -0.31076275610E+02  0.13576352218E+03 -0.73583272080E+02  0.20108854838E+03  0.12499854999E+03 0.  0.
          2    1    1    2  501    0  0.57716165713E+02 -0.15760711944E+02 -0.13892235404E+04  0.13905112733E+04  0.00000000000E+00 0. -1.
          1    1    1    2  502    0 -0.26639890103E+02 -0.12000281024E+03  0.46996650605E+03  0.48577656903E+03  0.00000000000E+00 0. -1.
         22    1    3    3    0    0 -0.51832630252E+01 -0.18189673428E+02  0.12636331271E+02  0.22746588821E+02  0.00000000000E+00 0. -1.
         22    1    3    3    0    0 -0.25893012585E+02  0.15395319561E+03 -0.86219603351E+02  0.17834195956E+03  0.00000000000E+00 0. -1.
</event>
<event>
 7    1  0.5593520E-006  0.9975662E+02  0.7818608E-02  0.1378102E+00
          2   -1    0    0  502    0  0.00000000000E+00  0.00000000000E+00  0.37921723297E+03  0.37921723297E+03  0.00000000000E+00 0. -1.
          1   -1    0    0  501    0 -0.00000000000E+00 -0.00000000000E+00 -0.28225349861E+03  0.28225349861E+03  0.00000000000E+00 0. -1.
         25    2    1    2    0    0  0.13196279836E+03 -0.41584720579E+02  0.13171733465E+02  0.18692814613E+03  0.12500067246E+03 0.  0.
          2    1    1    2  501    0 -0.40440645730E+02  0.12429912564E+02 -0.18464907814E+03  0.18943397428E+03  0.00000000000E+00 0. -1.
          1    1    1    2  502    0 -0.91522152631E+02  0.29154808015E+02  0.26844107903E+03  0.28510861117E+03  0.00000000000E+00 0. -1.
         22    1    3    3    0    0  0.60120276424E+02 -0.48685546157E+02 -0.49067947242E+02  0.91610007578E+02  0.00000000000E+00 0.  1.
         22    1    3    3    0    0  0.71842521937E+02  0.71008255777E+01  0.62239680706E+02  0.95318138550E+02  0.00000000000E+00 0.  1.
</event>
<event>
 7    1  0.5593520E-006  0.5727133E+02  0.7818608E-02  0.1428640E+00
          2   -1    0    0  502    0  0.00000000000E+00  0.00000000000E+00  0.58337341768E+02  0.58337341768E+02  0.00000000000E+00 0. -1.
          1   -1    0    0  501    0 -0.00000000000E+00 -0.00000000000E+00 -0.28550450683E+04  0.28550450683E+04  0.00000000000E+00 0. -1.
         25    2    1    2    0    0  0.23424295050E+02 -0.15813920283E+02 -0.72117834826E+02  0.14705166707E+03  0.12499773203E+03 0.  0.
          2    1    1    2  501    0 -0.28855841168E+02 -0.49470651426E+02 -0.26929874199E+04  0.26935963411E+04  0.00000000000E+00 0. -1.
          1    1    1    2  502    0  0.54315461185E+01  0.65284571709E+02 -0.31602471773E+02  0.72734401892E+02  0.00000000000E+00 0. -1.
         22    1    3    3    0    0  0.11884826729E+02  0.49359159496E+02 -0.22622394074E+01  0.50820207198E+02  0.00000000000E+00 0.  1.
         22    1    3    3    0    0  0.11539468321E+02 -0.65173079779E+02 -0.69855595419E+02  0.96231459868E+02  0.00000000000E+00 0.  1.
</event>
<event>
 7    1  0.5593520E-006  0.1160548E+03  0.7818608E-02  0.1254459E+00
          2   -1    0    0  502    0  0.00000000000E+00  0.00000000000E+00  0.15446457592E+04  0.15446457592E+04  0.00000000000E+00 0. -1.
          1   -1    0    0  501    0 -0.00000000000E+00 -0.00000000000E+00 -0.20181451146E+03  0.20181451146E+03  0.00000000000E+00 0. -1.
         25    2    1    2    0    0  0.11044608835E+03 -0.56733203140E+02  0.23586070646E+03  0.29440235610E+03  0.12500191861E+03 0.  0.
          2    1    1    2  501    0 -0.10631171912E+03 -0.53931142758E+02 -0.14922284253E+03  0.19099268707E+03  0.00000000000E+00 0. -1.
          1    1    1    2  502    0 -0.41343692288E+01  0.11066434590E+03  0.12561933838E+04  0.12610652275E+04  0.00000000000E+00 0. -1.
         22    1    3    3    0    0  0.66429762238E+01 -0.71017884984E+02  0.91208531076E+02  0.11578715500E+03  0.00000000000E+00 0. -1.
         22    1    3    3    0    0  0.10380311213E+03  0.14284681845E+02  0.14465217538E+03  0.17861520110E+03  0.00000000000E+00 0. -1.
</event>
<event>
 7    1  0.5593520E-006  0.9111355E+03  0.7818608E-02  0.1001857E+00
          2   -1    0    0  502    0  0.00000000000E+00  0.00000000000E+00  0.76256407128E+03  0.76256407128E+03  0.00000000000E+00 0. -1.
          1   -1    0    0  501    0 -0.00000000000E+00 -0.00000000000E+00 -0.26581729578E+04  0.26581729578E+04  0.00000000000E+00 0. -1.
         25    2    1    2    0    0  0.32240896372E+03 -0.75701309993E+03  0.10185332635E+02  0.83231344853E+03  0.12500224893E+03 0.  0.
          2    1    1    2  501    0  0.24299414351E+03 -0.22345054009E+03 -0.12226388835E+04  0.12664209952E+04  0.00000000000E+00 0. -1.
          1    1    1    2  502    0 -0.56540310723E+03  0.98046364003E+03 -0.68315533568E+03  0.13220025854E+04  0.00000000000E+00 0. -1.
         22    1    3    3    0    0  0.21333301430E+03 -0.35851105069E+03 -0.23048914628E+02  0.41781862204E+03  0.00000000000E+00 0.  1.
         22    1    3    3    0    0  0.10907594942E+03 -0.39850204924E+03  0.33234247263E+02  0.41449482648E+03  0.00000000000E+00 0.  1.
</event>
<event>
 7    1  0.5593520E-006  0.6345021E+02  0.7818608E-02  0.1422422E+00
          2   -1    0    0  502    0  0.00000000000E+00  0.00000000000E+00  0.30834659727E+03  0.30834659727E+03  0.00000000000E+00 0. -1.
          1   -1    0    0  501    0 -0.00000000000E+00 -0.00000000000E+00 -0.17968825553E+04  0.17968825553E+04  0.00000000000E+00 0. -1.
         25    2    1    2    0    0 -0.79745838749E+02 -0.24400065601E+02 -0.64491412690E+02  0.16352398376E+03  0.12500475573E+03 0.  0.
          2    1    1    2  501    0  0.39826170931E+02 -0.24640316758E+02 -0.16786812818E+04  0.16793344262E+04  0.00000000000E+00 0. -1.
          1    1    1    2  502    0  0.39919667817E+02  0.49040382359E+02  0.25463673651E+03  0.26237074257E+03  0.00000000000E+00 0. -1.
         22    1    3    3    0    0 -0.73468984768E+02 -0.31411257055E+02 -0.99306023004E+02  0.12745997410E+03  0.00000000000E+00 0.  1.
         22    1    3    3    0    0 -0.62768539809E+01  0.70111914537E+01  0.34814610314E+02  0.36064009661E+02  0.00000000000E+00 0.  1.
</event>
<event>
 7    1  0.5593520E-006  0.6299906E+02  0.7818608E-02  0.1403574E+00
          2   -1    0    0  502    0  0.00000000000E+00  0.00000000000E+00  0.15301758697E+04  0.15301758697E+04  0.00000000000E+00 0. -1.
          1   -1    0    0  501    0 -0.00000000000E+00 -0.00000000000E+00 -0.41237139922E+03  0.41237139922E+03  0.00000000000E+00 0. -1.
         25    2    1    2    0    0  0.94520837501E+02 -0.62523793296E+02  0.92292688320E+02  0.19231752798E+03  0.12499871120E+03 0.  0.
          2    1    1    2  501    0 -0.35996479015E+02  0.41061961496E+02 -0.35959677424E+03  0.36371922032E+03  0.00000000000E+00 0. -1.
          1    1    1    2  502    0 -0.58524358486E+02  0.21461831800E+02  0.13851085564E+04  0.13865105207E+04  0.00000000000E+00 0. -1.
         22    1    3    3    0    0  0.91913940508E+02 -0.73509607312E+01  0.93688194530E+01  0.92682165821E+02  0.00000000000E+00 0.  1.
         22    1    3    3    0    0  0.26068969931E+01 -0.55172832565E+02  0.82923868867E+02  0.99635362162E+02  0.00000000000E+00 0.  1.
</event>
<event>
 7    1  0.5593520E-006  0.8924609E+02  0.7818608E-02  0.1456466E+00
          2   -1    0    0  502    0  0.00000000000E+00  0.00000000000E+00  0.52034744353E+03  0.52034744353E+03  0.00000000000E+00 0. -1.
          1   -1    0    0  501    0 -0.00000000000E+00 -0.00000000000E+00 -0.14382865241E+04  0.14382865241E+04  0.00000000000E+00 0. -1.
         25    2    1    2    0    0  0.16162412301E+02  0.10880642697E+03 -0.22411838160E+03  0.27921315866E+03  0.12502350530E+03 0.  0.
          2    1    1    2  501    0 -0.79492033675E+00 -0.88069086921E+02 -0.11846469771E+04  0.11879163508E+04  0.00000000000E+00 0. -1.
          1    1    1    2  502    0 -0.15367491964E+02 -0.20737340049E+02  0.49082627818E+03  0.49150445820E+03  0.00000000000E+00 0. -1.
         22    1    3    3    0    0 -0.11373711642E+02  0.12177734207E+03 -0.21514435035E+03  0.24747964330E+03  0.00000000000E+00 0. -1.
         22    1    3    3    0    0  0.27536123943E+02 -0.12970915105E+02 -0.89740312471E+01  0.31733515363E+02  0.00000000000E+00 0. -1.
</event>
<event>
 7    1  0.5593520E-006  0.1525440E+03  0.7818608E-02  0.1406947E+00
          2   -1    0    0  502    0  0.00000000000E+00  0.00000000000E+00  0.48912270317E+03  0.48912270317E+03  0.00000000000E+00 0. -1.
          1   -1    0    0  501    0 -0.00000000000E+00 -0.00000000000E+00 -0.52251751679E+03  0.52251751679E+03  0.00000000000E+00 0. -1.
         25    2    1    2    0    0 -0.13189261048E+03  0.33056920828E+02  0.24028482974E+02  0.18625503545E+03  0.12500059809E+03 0.  0.
          2    1    1    2  501    0  0.15258350661E+03 -0.25693700602E+02 -0.42750862350E+03  0.45464878302E+03  0.00000000000E+00 0. -1.
          1    1    1    2  502    0 -0.20690896130E+02 -0.73632202261E+01  0.37008532691E+03  0.37073640149E+03  0.00000000000E+00 0. -1.
         22    1    3    3    0    0 -0.13411245746E+03 -0.16166246673E+02  0.12568804139E+02  0.13566677418E+03  0.00000000000E+00 0. -1.
         22    1    3    3    0    0  0.22198469883E+01  0.49223167501E+02  0.11459678834E+02  0.50588261272E+02  0.00000000000E+00 0. -1.
</event>
<event>
 7    1  0.5593520E-006  0.7339393E+02  0.7818608E-02  0.1395320E+00
          2   -1    0    0  502    0  0.00000000000E+00  0.00000000000E+00  0.11431872564E+03  0.11431872564E+03  0.00000000000E+00 0. -1.
          1   -1    0    0  501    0 -0.00000000000E+00 -0.00000000000E+00 -0.30439836221E+03  0.30439836221E+03  0.00000000000E+00 0. -1.
         25    2    1    2    0    0 -0.22319082316E+01 -0.74992707798E+02 -0.17909097054E+03  0.23092750846E+03  0.12500020320E+03 0.  0.
          2    1    1    2  501    0 -0.46521971652E+02  0.63717148357E+02 -0.73424983123E+02  0.10777475116E+03  0.00000000000E+00 0. -1.
          1    1    1    2  502    0  0.48753879884E+02  0.11275559440E+02  0.62436317084E+02  0.80014828222E+02  0.00000000000E+00 0. -1.
         22    1    3    3    0    0 -0.19627115935E+02 -0.62434008970E+02 -0.19403895555E+03  0.20477877191E+03  0.00000000000E+00 0. -1.
         22    1    3    3    0    0  0.17395207703E+02 -0.12558698827E+02  0.14947985011E+02  0.26148736550E+02  0.00000000000E+00 0. -1.
</event>
<event>
 7    1  0.7075293E-006  0.6126522E+02  0.7818608E-02  0.1523486E+00
          2   -1    0    0  502    0  0.00000000000E+00  0.00000000000E+00  0.12160853384E+04  0.12160853384E+04  0.00000000000E+00 0. -1.
          1   -1    0    0  501    0 -0.00000000000E+00 -0.00000000000E+00 -0.17577429668E+04  0.17577429668E+04  0.00000000000E+00 0. -1.
         25    2    1    2    0    0  0.57642776390E+02 -0.40469522697E+01 -0.10936939178E+04  0.11023300590E+04  0.12500442241E+03 0.  0.
          2    1    1    2  501    0 -0.28596704791E+01 -0.23392470710E+02 -0.65874562572E+03  0.65916703862E+03  0.00000000000E+00 0. -1.
          1    1    1    2  502    0 -0.54783105911E+02  0.27439422980E+02  0.12107819152E+04  0.12123312076E+04  0.00000000000E+00 0. -1.
         22    1    3    3    0    0  0.62122296299E+02 -0.56946157448E+02 -0.70871898716E+03  0.71371187975E+03  0.00000000000E+00 0.  1.
         22    1    3    3    0    0 -0.44795199085E+01  0.52899205178E+02 -0.38497493069E+03  0.38861817928E+03  0.00000000000E+00 0.  1.
</event>
<event>
 7    1  0.5593520E-006  0.1104927E+03  0.7818608E-02  0.1357357E+00
          2   -1    0    0  502    0  0.00000000000E+00  0.00000000000E+00  0.70997922189E+03  0.70997922189E+03  0.00000000000E+00 0. -1.
          1   -1    0    0  501    0 -0.00000000000E+00 -0.00000000000E+00 -0.30441903708E+04  0.30441903708E+04  0.00000000000E+00 0. -1.
         25    2    1    2    0    0 -0.53714323707E+02 -0.58170753927E+02 -0.18064184164E+04  0.18124683403E+04  0.12499969800E+03 0.  0.
          2    1    1    2  501    0 -0.44710253389E+02  0.77687803261E+01 -0.12300019079E+04  0.12308387604E+04  0.00000000000E+00 0. -1.
          1    1    1    2  502    0  0.98424577096E+02  0.50401973601E+02  0.70220917542E+03  0.71086249189E+03  0.00000000000E+00 0. -1.
         22    1    3    3    0    0 -0.60741826349E+02 -0.29624260540E+02 -0.17172351330E+04  0.17185644207E+04  0.00000000000E+00 0.  1.
         22    1    3    3    0    0  0.70275026423E+01 -0.28546493387E+02 -0.89183283397E+02  0.93903919596E+02  0.00000000000E+00 0.  1.
</event>
<event>
 7    1  0.5593520E-006  0.1188428E+03  0.7818608E-02  0.1363584E+00
          2   -1    0    0  502    0  0.00000000000E+00  0.00000000000E+00  0.92555156802E+03  0.92555156802E+03  0.00000000000E+00 0. -1.
          1   -1    0    0  501    0 -0.00000000000E+00 -0.00000000000E+00 -0.26353286635E+04  0.26353286635E+04  0.00000000000E+00 0. -1.
         25    2    1    2    0    0 -0.20185299268E+02  0.10795054291E+03  0.27796501915E+01  0.16641143357E+03  0.12499709095E+03 0.  0.
          2    1    1    2  501    0 -0.39794447231E+02 -0.44489023315E+01 -0.25491006010E+04  0.25494150828E+04  0.00000000000E+00 0. -1.
          1    1    1    2  502    0  0.59979746498E+02 -0.10350164058E+03  0.83654385530E+03  0.84505371512E+03  0.00000000000E+00 0. -1.
         22    1    3    3    0    0 -0.11848409566E+01 -0.28525113582E+02  0.19621217375E+01  0.28617055660E+02  0.00000000000E+00 0. -1.
         22    1    3    3    0    0 -0.19000458311E+02  0.13647565649E+03  0.81752845398E+00  0.13779437791E+03  0.00000000000E+00 0. -1.
</event>
<event>
 7    1  0.5593520E-006  0.8280185E+02  0.7818608E-02  0.1323445E+00
          2   -1    0    0  502    0  0.00000000000E+00  0.00000000000E+00  0.40951673995E+03  0.40951673995E+03  0.00000000000E+00 0. -1.
          1   -1    0    0  501    0 -0.00000000000E+00 -0.00000000000E+00 -0.12198773427E+03  0.12198773427E+03  0.00000000000E+00 0. -1.
         25    2    1    2    0    0 -0.65696104801E+02 -0.60864823878E+02  0.22847270920E+03  0.27539059580E+03  0.12497878394E+03 0.  0.
          2    1    1    2  501    0 -0.12046053772E+02  0.84391066510E+02 -0.65437597277E+02  0.10746645363E+03  0.00000000000E+00 0. -1.
          1    1    1    2  502    0  0.77742158573E+02 -0.23526242631E+02  0.12449389376E+03  0.14864742479E+03  0.00000000000E+00 0. -1.
         22    1    3    3    0    0  0.15446339203E+02  0.24131568326E+02  0.16600975766E+02  0.33113658527E+02  0.00000000000E+00 0. -1.
         22    1    3    3    0    0 -0.81142444005E+02 -0.84996392204E+02  0.21187173343E+03  0.24227693727E+03  0.00000000000E+00 0. -1.
</event>
<event>
 7    1  0.5593520E-006  0.3272440E+02  0.7818608E-02  0.1603190E+00
          2   -1    0    0  502    0  0.00000000000E+00  0.00000000000E+00  0.16858485371E+04  0.16858485371E+04  0.00000000000E+00 0. -1.
          1   -1    0    0  501    0 -0.00000000000E+00 -0.00000000000E+00 -0.49157982954E+03  0.49157982954E+03  0.00000000000E+00 0. -1.
         25    2    1    2    0    0 -0.72638835795E+01 -0.58025391700E+00  0.56554049213E+03  0.57923585815E+03  0.12500012170E+03 0.  0.
          2    1    1    2  501    0 -0.25946837966E+02  0.61762814514E+01 -0.48411030203E+03  0.48484447958E+03  0.00000000000E+00 0. -1.
          1    1    1    2  502    0  0.33210721546E+02 -0.55960275344E+01  0.11128385174E+04  0.11133480289E+04  0.00000000000E+00 0. -1.
         22    1    3    3    0    0  0.26405056026E+02 -0.53407248727E+02  0.21311692893E+03  0.22128801729E+03  0.00000000000E+00 0.  1.
         22    1    3    3    0    0 -0.33668939605E+02  0.52826994810E+02  0.35242356320E+03  0.35794784086E+03  0.00000000000E+00 0.  1.
</event>
<event>
 7    1  0.5593520E-006  0.1298893E+03  0.7818608E-02  0.1336676E+00
          2   -1    0    0  502    0  0.00000000000E+00  0.00000000000E+00  0.29029610643E+03  0.29029610643E+03  0.00000000000E+00 0. -1.
          1   -1    0    0  501    0 -0.00000000000E+00 -0.00000000000E+00 -0.14592257650E+03  0.14592257650E+03  0.00000000000E+00 0. -1.
         25    2    1    2    0    0  0.92436917952E+02  0.24382672077E+02 -0.13965375885E+02  0.15798461448E+03  0.12500003277E+03 0.  0.
          2    1    1    2  501    0  0.37358712227E+02  0.26992592609E+02 -0.21266875534E+02  0.50759761918E+02  0.00000000000E+00 0. -1.
          1    1    1    2  502    0 -0.12979563018E+03 -0.51375264686E+02  0.17960578135E+03  0.22747430653E+03  0.00000000000E+00 0. -1.
         22    1    3    3    0    0  0.84966234113E+02  0.64113712296E+02  0.16033925365E+02  0.10764253716E+03  0.00000000000E+00 0. -1.
         22    1    3    3    0    0  0.74706838392E+01 -0.39731040219E+02 -0.29999301250E+02  0.50342077325E+02  0.00000000000E+00 0. -1.
</event>
<event>
 7    1  0.5593520E-006  0.1045442E+03  0.7818608E-02  0.1275807E+00
          2   -1    0    0  502    0  0.00000000000E+00  0.00000000000E+00  0.72867805287E+03  0.72867805287E+03  0.00000000000E+00 0. -1.
          1   -1    0    0  501    0 -0.00000000000E+00 -0.00000000000E+00 -0.11764969262E+04  0.11764969262E+04  0.00000000000E+00 0. -1.
         25    2    1    2    0    0 -0.35219891142E+01  0.38462615975E+02  0.10118793476E+03  0.16539457260E+03  0.12499835706E+03 0.  0.
          2    1    1    2  501    0 -0.95907330556E+02  0.27750119861E+02 -0.11361903191E+04  0.11405685979E+04  0.00000000000E+00 0. -1.
          1    1    1    2  502    0  0.99429319671E+02 -0.66212735836E+02  0.58718351100E+03  0.59921180862E+03  0.00000000000E+00 0. -1.
         22    1    3    3    0    0  0.24034464738E+02  0.66267856169E+02  0.16944344715E+02  0.72499621201E+02  0.00000000000E+00 0.  1.
         22    1    3    3    0    0 -0.27556453852E+02 -0.27805240194E+02  0.84243590048E+02  0.92894951399E+02  0.00000000000E+00 0.  1.
</event>
<event>
 7    1  0.5593520E-006  0.9257785E+02  0.7818608E-02  0.1366817E+00
          2   -1    0    0  502    0  0.00000000000E+00  0.00000000000E+00  0.23198004922E+03  0.23198004922E+03  0.00000000000E+00 0. -1.
          1   -1    0    0  501    0 -0.00000000000E+00 -0.00000000000E+00 -0.15341778561E+03  0.15341778561E+03  0.00000000000E+00 0. -1.
         25    2    1    2    0    0 -0.12349126719E+03 -0.31511640845E+02 -0.60886589185E+02  0.18861318756E+03  0.12499872478E+03 0.  0.
          2    1    1    2  501    0  0.35182714399E+02  0.35576817387E+02  0.43265069799E+02  0.66146803344E+02  0.00000000000E+00 0. -1.
          1    1    1    2  502    0  0.88308552789E+02 -0.40651765427E+01  0.96183782998E+02  0.13063784393E+03  0.00000000000E+00 0. -1.
         22    1    3    3    0    0 -0.51923602141E+02 -0.68295886946E+02  0.30352742066E+01  0.85846383281E+02  0.00000000000E+00 0. -1.
         22    1    3    3    0    0 -0.71567665047E+02  0.36784246101E+02 -0.63921863392E+02  0.10276680428E+03  0.00000000000E+00 0. -1.
</event>
<event>
 7    1  0.5593520E-006  0.9662139E+02  0.7818608E-02  0.1365431E+00
          2   -1    0    0  502    0  0.00000000000E+00  0.00000000000E+00  0.89254247454E+03  0.89254247454E+03  0.00000000000E+00 0. -1.
          1   -1    0    0  501    0 -0.00000000000E+00 -0.00000000000E+00 -0.30317972932E+02  0.30317972932E+02  0.00000000000E+00 0. -1.
         25    2    1    2    0    0  0.60851183148E+02  0.45292641122E+02  0.38097740342E+03  0.40807166568E+03  0.12499765030E+03 0.  0.
          2    1    1    2  501    0 -0.10592768178E+03 -0.27400088193E+02  0.18769563556E+03  0.21725811886E+03  0.00000000000E+00 0. -1.
          1    1    1    2  502    0  0.45076498630E+02 -0.17892552928E+02  0.29355146262E+03  0.29753066293E+03  0.00000000000E+00 0. -1.
         22    1    3    3    0    0 -0.31014764175E+02 -0.12629539064E+02  0.13667946226E+03  0.14072205320E+03  0.00000000000E+00 0.  1.
         22    1    3    3    0    0  0.91865947324E+02  0.57922180186E+02  0.24429794117E+03  0.26734961248E+03  0.00000000000E+00 0.  1.
</event>
<event>
 7    1  0.5593520E-006  0.8971876E+02  0.7818608E-02  0.1349836E+00
          2   -1    0    0  502    0  0.00000000000E+00  0.00000000000E+00  0.23948297591E+03  0.23948297591E+03  0.00000000000E+00 0. -1.
          1   -1    0    0  501    0 -0.00000000000E+00 -0.00000000000E+00 -0.48226442271E+03  0.48226442271E+03  0.00000000000E+00 0. -1.
         25    2    1    2    0    0  0.12358395445E+03 -0.77467720589E+02  0.12016188891E+03  0.22657838486E+03  0.12499857362E+03 0.  0.
          2    1    1    2  501    0 -0.80320759108E+02  0.36517264476E+02 -0.40991759250E+03  0.41930581631E+03  0.00000000000E+00 0. -1.
          1    1    1    2  502    0 -0.43263195340E+02  0.40950456113E+02  0.46974256794E+02  0.75863197455E+02  0.00000000000E+00 0. -1.
         22    1    3    3    0    0 -0.11547435098E+02 -0.50837883128E+02  0.49019662578E+02  0.71559492295E+02  0.00000000000E+00 0.  1.
         22    1    3    3    0    0  0.13513138955E+03 -0.26629837461E+02  0.71142226334E+02  0.15501889256E+03  0.00000000000E+00 0.  1.
</event>
<event>
 7    1  0.5593520E-006  0.2417864E+03  0.7818608E-02  0.1179352E+00
          2   -1    0    0  502    0  0.00000000000E+00  0.00000000000E+00  0.32348517516E+04  0.32348517516E+04  0.00000000000E+00 0. -1.
          1   -1    0    0  501    0 -0.00000000000E+00 -0.00000000000E+00 -0.24966251989E+03  0.24966251989E+03  0.00000000000E+00 0. -1.
         25    2    1    2    0    0  0.19233359886E+03  0.29644195751E+03  0.40486470271E+02  0.37700810097E+03  0.12500362594E+03 0.  0.
          2    1    1    2  501    0 -0.80515168549E+02 -0.85602481735E+02 -0.31566567212E+02  0.12168371054E+03  0.00000000000E+00 0. -1.
          1    1    1    2  502    0 -0.11181843031E+03 -0.21083947577E+03  0.29762693286E+04  0.29858224599E+04  0.00000000000E+00 0. -1.
         22    1    3    3    0    0  0.11947563471E+03  0.27317270145E+03  0.37010537303E+02  0.30044555577E+03  0.00000000000E+00 0.  1.
         22    1    3    3    0    0  0.72857964151E+02  0.23269256055E+02  0.34759329680E+01  0.76562545200E+02  0.00000000000E+00 0.  1.
</event>
<event>
 7    1  0.5593520E-006  0.5024868E+02  0.7818608E-02  0.1565040E+00
          2   -1    0    0  502    0  0.00000000000E+00  0.00000000000E+00  0.81138917420E+02  0.81138917420E+02  0.00000000000E+00 0. -1.
          1   -1    0    0  501    0 -0.00000000000E+00 -0.00000000000E+00 -0.42858037765E+03  0.42858037765E+03  0.00000000000E+00 0. -1.
         25    2    1    2    0    0  0.67826285396E+02  0.43930817490E+01 -0.34321511084E+02  0.14636678230E+03  0.12500225870E+03 0.  0.
          2    1    1    2  501    0 -0.21818573374E+02 -0.24585415963E+01 -0.31642483456E+03  0.31718570349E+03  0.00000000000E+00 0. -1.
          1    1    1    2  502    0 -0.46007712022E+02 -0.19345401527E+01  0.33048854180E+01  0.46166809276E+02  0.00000000000E+00 0. -1.
         22    1    3    3    0    0 -0.35763421365E+02 -0.11307691794E+02 -0.95657887194E+01  0.38709049526E+02  0.00000000000E+00 0.  1.
         22    1    3    3    0    0  0.10358970676E+03  0.15700773543E+02 -0.24755722364E+02  0.10765773278E+03  0.00000000000E+00 0.  1.
</event>
<event>
 7    1  0.5593520E-006  0.9003045E+02  0.7818608E-02  0.1346618E+00
          2   -1    0    0  502    0  0.00000000000E+00  0.00000000000E+00  0.78206818470E+03  0.78206818470E+03  0.00000000000E+00 0. -1.
          1   -1    0    0  501    0 -0.00000000000E+00 -0.00000000000E+00 -0.13086673701E+04  0.13086673701E+04  0.00000000000E+00 0. -1.
         25    2    1    2    0    0 -0.20746003676E+02  0.38596022882E+02  0.33189432710E+03  0.35734857861E+03  0.12499645043E+03 0.  0.
          2    1    1    2  501    0  0.81766559798E+02 -0.38274267065E+02 -0.12922295716E+04  0.12953794639E+04  0.00000000000E+00 0. -1.
          1    1    1    2  502    0 -0.61020556122E+02 -0.32175581697E+00  0.43373605912E+03  0.43800751224E+03  0.00000000000E+00 0. -1.
         22    1    3    3    0    0 -0.60073362849E+02  0.62108848106E+02  0.22664841298E+03  0.24256096356E+03  0.00000000000E+00 0.  1.
         22    1    3    3    0    0  0.39327359172E+02 -0.23512825223E+02  0.10524591413E+03  0.11478761506E+03  0.00000000000E+00 0.  1.
</event>
<event>
 7    1  0.5593520E-006  0.2608369E+03  0.7818608E-02  0.1244786E+00
          2   -1    0    0  502    0  0.00000000000E+00  0.00000000000E+00  0.74857289584E+03  0.74857289584E+03  0.00000000000E+00 0. -1.
          1   -1    0    0  501    0 -0.00000000000E+00 -0.00000000000E+00 -0.20246149434E+04  0.20246149434E+04  0.00000000000E+00 0. -1.
         25    2    1    2    0    0 -0.48259666541E+02  0.27155771096E+03 -0.48944720338E+03  0.57554843888E+03  0.12499941921E+03 0.  0.
          2    1    1    2  501    0 -0.42820200182E+01 -0.25795471237E+03 -0.14798968570E+04  0.15022162549E+04  0.00000000000E+00 0. -1.
          1    1    1    2  502    0  0.52541686559E+02 -0.13602998594E+02  0.69330201273E+03  0.69542314547E+03  0.00000000000E+00 0. -1.
         22    1    3    3    0    0 -0.16315463428E+02 -0.10205420877E+02 -0.31771131542E+02  0.37144982994E+02  0.00000000000E+00 0. -1.
         22    1    3    3    0    0 -0.31944203113E+02  0.28176313184E+03 -0.45767607184E+03  0.53840345589E+03  0.00000000000E+00 0. -1.
</event>
<event>
 7    1  0.5593520E-006  0.1331300E+03  0.7818608E-02  0.1306342E+00
          2   -1    0    0  502    0  0.00000000000E+00  0.00000000000E+00  0.11409347512E+04  0.11409347512E+04  0.00000000000E+00 0. -1.
          1   -1    0    0  501    0 -0.00000000000E+00 -0.00000000000E+00 -0.88371479062E+03  0.88371479062E+03  0.00000000000E+00 0. -1.
         25    2    1    2    0    0 -0.15843485576E+03  0.10213978532E+03  0.15689388648E+03  0.27527324919E+03  0.12500212335E+03 0.  0.
          2    1    1    2  501    0  0.11746363229E+03 -0.59782703112E+02 -0.81830777603E+03  0.82885420480E+03  0.00000000000E+00 0. -1.
          1    1    1    2  502    0  0.40971223473E+02 -0.42357082206E+02  0.91863385010E+03  0.92052208780E+03  0.00000000000E+00 0. -1.
         22    1    3    3    0    0 -0.14534283025E+03  0.12898026862E+03  0.14752273273E+03  0.24397418853E+03  0.00000000000E+00 0.  1.
         22    1    3    3    0    0 -0.13092025512E+02 -0.26840483300E+02  0.93711537501E+01  0.31299060663E+02  0.00000000000E+00 0.  1.
</event>
<event>
 7    1  0.5593520E-006  0.1062992E+03  0.7818608E-02  0.1277215E+00
          2   -1    0    0  502    0  0.00000000000E+00  0.00000000000E+00  0.20255083895E+04  0.20255083895E+04  0.00000000000E+00 0. -1.
          1   -1    0    0  501    0 -0.00000000000E+00 -0.00000000000E+00 -0.34598112496E+03  0.34598112496E+03  0.00000000000E+00 0. -1.
         25    2    1    2    0    0 -0.20019492365E+02  0.69863137752E+02 -0.35665236852E+01  0.14463759980E+03  0.12500270834E+03 0.  0.
          2    1    1    2  501    0 -0.86104977771E+02 -0.63770755850E+02 -0.25981260941E+03  0.28103979880E+03  0.00000000000E+00 0. -1.
          1    1    1    2  502    0  0.10612447014E+03 -0.60923819018E+01  0.19429063976E+04  0.19458121158E+04  0.00000000000E+00 0. -1.
         22    1    3    3    0    0  0.31727844149E+02  0.84396825627E+02 -0.90120365459E+01  0.90612896836E+02  0.00000000000E+00 0. -1.
         22    1    3    3    0    0 -0.51747336514E+02 -0.14533687875E+02  0.54455128608E+01  0.54024702959E+02  0.00000000000E+00 0. -1.
</event>
<event>
 7    1  0.5593520E-006  0.1757006E+03  0.7818608E-02  0.1238901E+00
          2   -1    0    0  502    0  0.00000000000E+00  0.00000000000E+00  0.25591128333E+04  0.25591128333E+04  0.00000000000E+00 0. -1.
          1   -1    0    0  501    0 -0.00000000000E+00 -0.00000000000E+00 -0.75829849402E+03  0.75829849402E+03  0.00000000000E+00 0. -1.
         25    2    1    2    0    0 -0.97848285434E+02  0.18259570337E+03  0.10670557281E+04  0.10941438716E+04  0.12500962824E+03 0.  0.
          2    1    1    2  501    0 -0.34768028449E+02 -0.78132548178E+02 -0.73745636207E+03  0.74239840844E+03  0.00000000000E+00 0. -1.
          1    1    1    2  502    0  0.13261631388E+03 -0.10446315519E+03  0.14712149733E+04  0.14808690473E+04  0.00000000000E+00 0. -1.
         22    1    3    3    0    0  0.68659011827E+01  0.37041264942E+02  0.57187658922E+02  0.68480831190E+02  0.00000000000E+00 0. -1.
         22    1    3    3    0    0 -0.10471418662E+03  0.14555443842E+03  0.10098680692E+04  0.10256630405E+04  0.00000000000E+00 0. -1.
</event>
<event>
 7    1  0.5593520E-006  0.3923316E+02  0.7818608E-02  0.1582210E+00
          2   -1    0    0  502    0  0.00000000000E+00  0.00000000000E+00  0.40452070397E+02  0.40452070397E+02  0.00000000000E+00 0. -1.
          1   -1    0    0  501    0 -0.00000000000E+00 -0.00000000000E+00 -0.18910446635E+04  0.18910446635E+04  0.00000000000E+00 0. -1.
         25    2    1    2    0    0 -0.32221348591E+02 -0.52529477974E+01 -0.19018759177E+03  0.22991725868E+03  0.12499926803E+03 0.  0.
          2    1    1    2  501    0  0.33968560746E+02 -0.19956813858E+02 -0.16729173469E+04  0.16733811840E+04  0.00000000000E+00 0. -1.
          1    1    1    2  502    0 -0.17472121547E+01  0.25209761656E+02  0.12512345577E+02  0.28198291170E+02  0.00000000000E+00 0. -1.
         22    1    3    3    0    0 -0.12570545482E+02  0.45246779476E+02 -0.16233290453E+03  0.16898893916E+03  0.00000000000E+00 0. -1.
         22    1    3    3    0    0 -0.19650803109E+02 -0.50499727274E+02 -0.27854687241E+02  0.60928319514E+02  0.00000000000E+00 0. -1.
</event>
<event>
 7    1  0.5593520E-006  0.8832823E+02  0.7818608E-02  0.1321329E+00
          2   -1    0    0  502    0  0.00000000000E+00  0.00000000000E+00  0.86508430064E+03  0.86508430064E+03  0.00000000000E+00 0. -1.
          1   -1    0    0  501    0 -0.00000000000E+00 -0.00000000000E+00 -0.46472648941E+03  0.46472648941E+03  0.00000000000E+00 0. -1.
         25    2    1    2    0    0  0.97228940572E+02 -0.65586844824E+02  0.99095209971E+02  0.19798456802E+03  0.12499170947E+03 0.  0.
          2    1    1    2  501    0 -0.22228563702E+02  0.85463473188E+02 -0.40844898662E+03  0.41788597603E+03  0.00000000000E+00 0. -1.
          1    1    1    2  502    0 -0.75000376870E+02 -0.19876628364E+02  0.70971158788E+03  0.71394024599E+03  0.00000000000E+00 0. -1.
         22    1    3    3    0    0  0.27649110101E+02 -0.39241233968E+02  0.11256610275E+03  0.12237432419E+03  0.00000000000E+00 0. -1.
         22    1    3    3    0    0  0.69579830471E+02 -0.26345610856E+02 -0.13470892779E+02  0.75610243830E+02  0.00000000000E+00 0. -1.
</event>
<event>
 7    1  0.5593520E-006  0.9737648E+02  0.7818608E-02  0.1334443E+00
          2   -1    0    0  502    0  0.00000000000E+00  0.00000000000E+00  0.64549707579E+03  0.64549707579E+03  0.00000000000E+00 0. -1.
          1   -1    0    0  501    0 -0.00000000000E+00 -0.00000000000E+00 -0.47027165707E+03  0.47027165707E+03  0.00000000000E+00 0. -1.
         25    2    1    2    0    0  0.10081738039E+03  0.47974736843E+02 -0.10449605419E+03  0.19750889128E+03  0.12499846892E+03 0.  0.
          2    1    1    2  501    0 -0.44192951080E+01 -0.62531732489E+02 -0.31216549751E+03  0.31839762181E+03  0.00000000000E+00 0. -1.
          1    1    1    2  502    0 -0.96398085280E+02  0.14556995646E+02  0.59188697041E+03  0.59986221978E+03  0.00000000000E+00 0. -1.
         22    1    3    3    0    0 -0.18641369996E+02 -0.97410120928E+01  0.90362173379E+01  0.22891946525E+02  0.00000000000E+00 0.  1.
         22    1    3    3    0    0  0.11945875038E+03  0.57715748936E+02 -0.11353227152E+03  0.17461694476E+03  0.00000000000E+00 0.  1.
</event>
<event>
 7    1  0.5593520E-006  0.8953963E+02  0.7818608E-02  0.1308439E+00
          2   -1    0    0  502    0  0.00000000000E+00  0.00000000000E+00  0.10945597429E+03  0.10945597429E+03  0.00000000000E+00 0. -1.
          1   -1    0    0  501    0 -0.00000000000E+00 -0.00000000000E+00 -0.81180422580E+03  0.81180422580E+03  0.00000000000E+00 0. -1.
         25    2    1    2    0    0  0.27556058339E+02 -0.38807058132E+02 -0.16771110441E+03  0.21451513125E+03  0.12499761151E+03 0.  0.
          2    1    1    2  501    0  0.65426202540E+02  0.61129023562E+02 -0.58966072583E+03  0.59642025207E+03  0.00000000000E+00 0. -1.
          1    1    1    2  502    0 -0.92982260879E+02 -0.22321965430E+02  0.55023578727E+02  0.11032481677E+03  0.00000000000E+00 0. -1.
         22    1    3    3    0    0  0.73080994321E+02 -0.44033927741E+02 -0.12826816260E+03  0.15405369213E+03  0.00000000000E+00 0. -1.
         22    1    3    3    0    0 -0.45524935982E+02  0.52268696091E+01 -0.39442941805E+02  0.60461439119E+02  0.00000000000E+00 0. -1.
</event>
<event>
 7    1  0.5593520E-006  0.1050690E+03  0.7818608E-02  0.1313292E+00
          2   -1    0    0  502    0  0.00000000000E+00  0.00000000000E+00  0.14752785014E+03  0.14752785014E+03  0.00000000000E+00 0. -1.
          1   -1    0    0  501    0 -0.00000000000E+00 -0.00000000000E+00 -0.38362802949E+03  0.38362802949E+03  0.00000000000E+00 0. -1.
         25    2    1    2    0    0  0.98960732219E+02 -0.28652890722E+01 -0.10852073807E+03  0.19287680806E+03  0.12499310419E+03 0.  0.
          2    1    1    2  501    0 -0.11123648929E+02  0.69215707557E+02 -0.19634531817E+03  0.20848509228E+03  0.00000000000E+00 0. -1.
          1    1    1    2  502    0 -0.87837083290E+02 -0.66350418484E+02  0.68765876890E+02  0.12979397928E+03  0.00000000000E+00 0. -1.
         22    1    3    3    0    0  0.10565584785E+03  0.42266913388E+02 -0.75801228017E+02  0.13673140210E+03  0.00000000000E+00 0.  1.
         22    1    3    3    0    0 -0.66951156307E+01 -0.45132202460E+02 -0.32719510053E+02  0.56145405959E+02  0.00000000000E+00 0.  1.
</event>
<event>
 7    1  0.5593520E-006  0.1627721E+03  0.7818608E-02  0.1340180E+00
          2   -1    0    0  502    0  0.00000000000E+00  0.00000000000E+00  0.13445794907E+03  0.13445794907E+03  0.00000000000E+00 0. -1.
          1   -1    0    0  501    0 -0.00000000000E+00 -0.00000000000E+00 -0.30071675015E+04  0.30071675015E+04  0.00000000000E+00 0. -1.
         25    2    1    2    0    0 -0.48239993748E+02 -0.19054848779E+03 -0.19701752310E+04  0.19838980605E+04  0.12500100193E+03 0.  0.
          2    1    1    2  501    0  0.11218833500E+01  0.35659008249E+02 -0.97831953112E+03  0.97896983021E+03  0.00000000000E+00 0. -1.
          1    1    1    2  502    0  0.47118110398E+02  0.15488947954E+03  0.75785209673E+02  0.17875755985E+03  0.00000000000E+00 0. -1.
         22    1    3    3    0    0  0.10245641986E+02 -0.16398784554E+03 -0.15735435487E+04  0.15820986968E+04  0.00000000000E+00 0. -1.
         22    1    3    3    0    0 -0.58485635734E+02 -0.26560642246E+02 -0.39663168225E+03  0.40179936370E+03  0.00000000000E+00 0. -1.
</event>
<event>
 7    1  0.5593520E-006  0.5500736E+02  0.7818608E-02  0.1477707E+00
          2   -1    0    0  502    0  0.00000000000E+00  0.00000000000E+00  0.83833430740E+03  0.83833430740E+03  0.00000000000E+00 0. -1.
          1   -1    0    0  501    0 -0.00000000000E+00 -0.00000000000E+00 -0.60474958446E+03  0.60474958446E+03  0.00000000000E+00 0. -1.
         25    2    1    2    0    0  0.24484795616E+02  0.83086403364E+02  0.23265070110E+03  0.27794702648E+03  0.12500138066E+03 0.  0.
          2    1    1    2  501    0 -0.22916905969E+01 -0.54812255722E+02 -0.58025240166E+03  0.58284001652E+03  0.00000000000E+00 0. -1.
          1    1    1    2  502    0 -0.22193105019E+02 -0.28274147642E+02  0.58118642350E+03  0.58229684886E+03  0.00000000000E+00 0. -1.
         22    1    3    3    0    0  0.51774211143E+02  0.57794473813E+02  0.22752007664E+03  0.24038751094E+03  0.00000000000E+00 0.  1.
         22    1    3    3    0    0 -0.27289415526E+02  0.25291929551E+02  0.51306244585E+01  0.37559515539E+02  0.00000000000E+00 0.  1.
</event>
<event>
 7    1  0.5593520E-006  0.7696337E+02  0.7818608E-02  0.1416576E+00
          2   -1    0    0  502    0  0.00000000000E+00  0.00000000000E+00  0.68632229316E+03  0.68632229316E+03  0.00000000000E+00 0. -1.
          1   -1    0    0  501    0 -0.00000000000E+00 -0.00000000000E+00 -0.42869084464E+03  0.42869084464E+03  0.00000000000E+00 0. -1.
         25    2    1    2    0    0 -0.28208016664E+01 -0.39627998973E+02  0.13168407403E+02  0.13182006098E+03  0.12499914519E+03 0.  0.
          2    1    1    2  501    0  0.17724188101E+02  0.77164125320E+02 -0.36444566521E+03  0.37294650014E+03  0.00000000000E+00 0. -1.
          1    1    1    2  502    0 -0.14903386434E+02 -0.37536126347E+02  0.60890870633E+03  0.61024657668E+03  0.00000000000E+00 0. -1.
         22    1    3    3    0    0  0.50027005572E+02 -0.52097958818E+02  0.24653401923E+02  0.76319649016E+02  0.00000000000E+00 0.  1.
         22    1    3    3    0    0 -0.52847807239E+02  0.12469959845E+02 -0.11484994520E+02  0.55500411959E+02  0.00000000000E+00 0.  1.
</event>
<event>
 7    1  0.5593520E-006  0.5320653E+02  0.7818608E-02  0.1429023E+00
          2   -1    0    0  502    0  0.00000000000E+00  0.00000000000E+00  0.21965474237E+04  0.21965474237E+04  0.00000000000E+00 0. -1.
          1   -1    0    0  501    0 -0.00000000000E+00 -0.00000000000E+00 -0.11503700495E+03  0.11503700495E+03  0.00000000000E+00 0. -1.
         25    2    1    2    0    0 -0.43925596590E+02  0.57343629158E+02  0.16438994216E+03  0.21878506718E+03  0.12500041079E+03 0.  0.
          2    1    1    2  501    0  0.53095271246E+02 -0.50346910131E+01 -0.79358059086E+02  0.95614630075E+02  0.00000000000E+00 0. -1.
          1    1    1    2  502    0 -0.91696746563E+01 -0.52308938145E+02  0.19964785357E+04  0.19971847314E+04  0.00000000000E+00 0. -1.
         22    1    3    3    0    0 -0.75658863363E+02  0.70019336632E+02  0.89699878987E+02  0.13664933003E+03  0.00000000000E+00 0. -1.
         22    1    3    3    0    0  0.31733266773E+02 -0.12675707474E+02  0.74690063176E+02  0.82135737150E+02  0.00000000000E+00 0. -1.
</event>
<event>
 7    1  0.5593520E-006  0.6619880E+02  0.7818608E-02  0.1451089E+00
          2   -1    0    0  502    0  0.00000000000E+00  0.00000000000E+00  0.41969678590E+03  0.41969678590E+03  0.00000000000E+00 0. -1.
          1   -1    0    0  501    0 -0.00000000000E+00 -0.00000000000E+00 -0.10470508323E+04  0.10470508323E+04  0.00000000000E+00 0. -1.
         25    2    1    2    0    0  0.27426339523E+02 -0.18182301811E+02 -0.15388469774E+03  0.20096705735E+03  0.12499783095E+03 0.  0.
          2    1    1    2  501    0 -0.62524907153E+02  0.27025091023E+02 -0.86746029643E+03  0.87013049909E+03  0.00000000000E+00 0. -1.
          1    1    1    2  502    0  0.35098567630E+02 -0.88427892119E+01  0.39399094782E+03  0.39565006171E+03  0.00000000000E+00 0. -1.
         22    1    3    3    0    0  0.73009120910E+02  0.80242428133E+01 -0.67029553653E+02  0.99436820503E+02  0.00000000000E+00 0.  1.
         22    1    3    3    0    0 -0.45582781387E+02 -0.26206544625E+02 -0.86855144088E+02  0.10153023685E+03  0.00000000000E+00 0.  1.
</event>
<event>
 7    1  0.5593520E-006  0.6076104E+02  0.7818608E-02  0.1437892E+00
          2   -1    0    0  502    0  0.00000000000E+00  0.00000000000E+00  0.22827062705E+04  0.22827062705E+04  0.00000000000E+00 0. -1.
          1   -1    0    0  501    0 -0.00000000000E+00 -0.00000000000E+00 -0.10186713340E+03  0.10186713340E+03  0.00000000000E+00 0. -1.
         25    2    1    2    0    0  0.63888169965E+02  0.70140658731E+02  0.19997668163E+03  0.25420094148E+03  0.12500414067E+03 0.  0.
          2    1    1    2  501    0 -0.10446460729E+02 -0.42221474869E+02 -0.67947124474E+02  0.80675852684E+02  0.00000000000E+00 0. -1.
          1    1    1    2  502    0 -0.53441709236E+02 -0.27919183862E+02  0.20488095799E+04  0.20496966097E+04  0.00000000000E+00 0. -1.
         22    1    3    3    0    0  0.11323475863E+02  0.50643981011E+00 -0.16947664271E+02  0.20388744717E+02  0.00000000000E+00 0.  1.
         22    1    3    3    0    0  0.52564694103E+02  0.69634218921E+02  0.21692434590E+03  0.23381219676E+03  0.00000000000E+00 0.  1.
</event>
<event>
 7    1  0.5593520E-006  0.1179633E+03  0.7818608E-02  0.1327843E+00
          2   -1    0    0  502    0  0.00000000000E+00  0.00000000000E+00  0.12032769745E+04  0.12032769745E+04  0.00000000000E+00 0. -1.
          1   -1    0    0  501    0 -0.00000000000E+00 -0.00000000000E+00 -0.58669177286E+03  0.58669177286E+03  0.00000000000E+00 0. -1.
         25    2    1    2    0    0  0.42120766551E+01 -0.10364117216E+03  0.16793719011E+02  0.16329731328E+03  0.12499899747E+03 0.  0.
          2    1    1    2  501    0  0.50378722319E+02  0.10881278496E+03 -0.50575022020E+03  0.51977064467E+03  0.00000000000E+00 0. -1.
          1    1    1    2  502    0 -0.54590798974E+02 -0.51716127931E+01  0.11055417029E+04  0.11069007894E+04  0.00000000000E+00 0. -1.
         22    1    3    3    0    0 -0.26575648794E+02  0.18063822203E+02 -0.12341339250E+02  0.34422019637E+02  0.00000000000E+00 0.  1.
         22    1    3    3    0    0  0.30787725449E+02 -0.12170499437E+03  0.29135058261E+02  0.12887529364E+03  0.00000000000E+00 0.  1.
</event>
<event>
 7    1  0.5593520E-006  0.1097434E+03  0.7818608E-02  0.1403615E+00
          2   -1    0    0  502    0  0.00000000000E+00  0.00000000000E+00  0.84911750831E+02  0.84911750831E+02  0.00000000000E+00 0. -1.
          1   -1    0    0  501    0 -0.00000000000E+00 -0.00000000000E+00 -0.72824973429E+03  0.72824973429E+03  0.00000000000E+00 0. -1.
         25    2    1    2    0    0  0.65230717355E+02  0.12163201372E+03 -0.49473775967E+03  0.52862103261E+03  0.12500140810E+03 0.  0.
          2    1    1    2  501    0 -0.19615970461E+02 -0.24438109921E+02 -0.17185217750E+03  0.17468594226E+03  0.00000000000E+00 0. -1.
          1    1    1    2  502    0 -0.45614746894E+02 -0.97193903802E+02  0.23251953709E+02  0.10985451025E+03  0.00000000000E+00 0. -1.
         22    1    3    3    0    0 -0.32849207520E+02  0.90081237296E+01 -0.13242271943E+03  0.13673329276E+03  0.00000000000E+00 0. -1.
         22    1    3    3    0    0  0.98079924875E+02  0.11262388999E+03 -0.36231504023E+03  0.39188773984E+03  0.00000000000E+00 0. -1.
</event>
<event>
 7    1  0.5593520E-006  0.1086739E+03  0.7818608E-02  0.1438153E+00
          2   -1    0    0  502    0  0.00000000000E+00  0.00000000000E+00  0.14232099889E+04  0.14232099889E+04  0.00000000000E+00 0. -1.
          1   -1    0    0  501    0 -0.00000000000E+00 -0.00000000000E+00 -0.20077549209E+03  0.20077549209E+03  0.00000000000E+00 0. -1.
         25    2    1    2    0    0 -0.83521210794E+02 -0.41483526008E+02  0.16963958302E+03  0.23040717859E+03  0.12495280804E+03 0.  0.
          2    1    1    2  501    0 -0.21994133756E+02  0.10263418541E+02 -0.16703814808E+03  0.16879224684E+03  0.00000000000E+00 0. -1.
          1    1    1    2  502    0  0.10551534455E+03  0.31220107467E+02  0.12198330619E+04  0.12247860556E+04  0.00000000000E+00 0. -1.
         22    1    3    3    0    0 -0.79160419480E+02 -0.69048085959E+02  0.17290232569E+03  0.20230972398E+03  0.00000000000E+00 0.  1.
         22    1    3    3    0    0 -0.43607913135E+01  0.27564559951E+02 -0.32627426693E+01  0.28097454616E+02  0.00000000000E+00 0.  1.
</event>
<event>
 7    1  0.5593520E-006  0.1054098E+03  0.7818608E-02  0.1327429E+00
          2   -1    0    0  502    0  0.00000000000E+00  0.00000000000E+00  0.33073883492E+03  0.33073883492E+03  0.00000000000E+00 0. -1.
          1   -1    0    0  501    0 -0.00000000000E+00 -0.00000000000E+00 -0.26848140061E+04  0.26848140061E+04  0.00000000000E+00 0. -1.
         25    2    1    2    0    0 -0.87755180624E+01  0.46677241829E+02 -0.12774099067E+04  0.12843897377E+04  0.12500061520E+03 0.  0.
          2    1    1    2  501    0  0.18777502738E+02  0.58658632772E+02 -0.13946638423E+04  0.13960231599E+04  0.00000000000E+00 0. -1.
          1    1    1    2  502    0 -0.10001984675E+02 -0.10533587460E+03  0.31799857788E+03  0.33513994347E+03  0.00000000000E+00 0. -1.
         22    1    3    3    0    0 -0.44202283996E+01 -0.38457418834E+02 -0.65848224489E+03  0.65961911609E+03  0.00000000000E+00 0.  1.
         22    1    3    3    0    0 -0.43552896628E+01  0.85134660663E+02 -0.61892766185E+03  0.62477062159E+03  0.00000000000E+00 0.  1.
</event>
<event>
 7    1  0.5593520E-006  0.4366987E+02  0.7818608E-02  0.1527385E+00
          2   -1    0    0  502    0  0.00000000000E+00  0.00000000000E+00  0.46047431843E+03  0.46047431843E+03  0.00000000000E+00 0. -1.
          1   -1    0    0  501    0 -0.00000000000E+00 -0.00000000000E+00 -0.12085046369E+04  0.12085046369E+04  0.00000000000E+00 0. -1.
         25    2    1    2    0    0 -0.20941301639E+02  0.65821482723E+02 -0.37563925692E+02  0.14767021921E+03  0.12499775769E+03 0.  0.
          2    1    1    2  501    0 -0.22423380028E+01 -0.43449906653E+02 -0.11148225100E+04  0.11156711663E+04  0.00000000000E+00 0. -1.
          1    1    1    2  502    0  0.23183639642E+02 -0.22371576070E+02  0.40435611719E+03  0.40563756985E+03  0.00000000000E+00 0. -1.
         22    1    3    3    0    0 -0.59591915408E+01  0.29399014438E+02 -0.82579159788E+02  0.87858588909E+02  0.00000000000E+00 0. -1.
         22    1    3    3    0    0 -0.14982110099E+02  0.36422468286E+02  0.45015234096E+02  0.59811630305E+02  0.00000000000E+00 0. -1.
</event>
<event>
 7    1  0.5593520E-006  0.9490166E+02  0.7818608E-02  0.1480880E+00
          2   -1    0    0  502    0  0.00000000000E+00  0.00000000000E+00  0.50535527300E+03  0.50535527300E+03  0.00000000000E+00 0. -1.
          1   -1    0    0  501    0 -0.00000000000E+00 -0.00000000000E+00 -0.17670075196E+04  0.17670075196E+04  0.00000000000E+00 0. -1.
         25    2    1    2    0    0  0.28931987165E+02  0.77049911412E+02 -0.23814742866E+03  0.28127048593E+03  0.12500055897E+03 0.  0.
          2    1    1    2  501    0  0.19832411083E+02  0.46564486206E+01 -0.15025502544E+04  0.15026883489E+04  0.00000000000E+00 0. -1.
          1    1    1    2  502    0 -0.48764398248E+02 -0.81706360033E+02  0.47904543643E+03  0.48840395777E+03  0.00000000000E+00 0. -1.
         22    1    3    3    0    0  0.13601368557E+02  0.60807410576E+02 -0.25293637537E+02  0.67248096683E+02  0.00000000000E+00 0.  1.
         22    1    3    3    0    0  0.15330618608E+02  0.16242500836E+02 -0.21285379113E+03  0.21402238924E+03  0.00000000000E+00 0.  1.
</event>
<event>
 7    1  0.5593520E-006  0.4241619E+02  0.7818608E-02  0.1531901E+00
          2   -1    0    0  502    0  0.00000000000E+00  0.00000000000E+00  0.64905531235E+03  0.64905531235E+03  0.00000000000E+00 0. -1.
          1   -1    0    0  501    0 -0.00000000000E+00 -0.00000000000E+00 -0.19172641554E+04  0.19172641554E+04  0.00000000000E+00 0. -1.
         25    2    1    2    0    0  0.34781432966E+02  0.63974113752E+02  0.27150274490E+02  0.14718951640E+03  0.12500072409E+03 0.  0.
          2    1    1    2  501    0 -0.21261852864E+02 -0.24176304007E+02 -0.18563187165E+04  0.18565978932E+04  0.00000000000E+00 0. -1.
          1    1    1    2  502    0 -0.13519580102E+02 -0.39797809745E+02  0.56095959896E+03  0.56253205809E+03  0.00000000000E+00 0. -1.
         22    1    3    3    0    0  0.61379376473E+02  0.88919417141E+02  0.17356299931E+02  0.10943185893E+03  0.00000000000E+00 0. -1.
         22    1    3    3    0    0 -0.26597943508E+02 -0.24945303390E+02  0.97939745593E+01  0.37757657471E+02  0.00000000000E+00 0. -1.
</event>
<event>
 7    1  0.5593520E-006  0.4122693E+02  0.7818608E-02  0.1605614E+00
          2   -1    0    0  502    0  0.00000000000E+00  0.00000000000E+00  0.96659788806E+02  0.96659788806E+02  0.00000000000E+00 0. -1.
          1   -1    0    0  501    0 -0.00000000000E+00 -0.00000000000E+00 -0.15842961124E+04  0.15842961124E+04  0.00000000000E+00 0. -1.
         25    2    1    2    0    0 -0.18383324223E+02 -0.41439167741E+02 -0.30275792169E+03  0.33066890657E+03  0.12499766155E+03 0.  0.
          2    1    1    2  501    0  0.32188382709E+02  0.25792342986E+02 -0.12659252902E+04  0.12665970856E+04  0.00000000000E+00 0. -1.
          1    1    1    2  502    0 -0.13805058487E+02  0.15646824755E+02  0.81046888308E+02  0.83689909004E+02  0.00000000000E+00 0. -1.
         22    1    3    3    0    0 -0.50625645494E+01  0.19910354558E+01  0.11723106995E+02  0.12923815985E+02  0.00000000000E+00 0. -1.
         22    1    3    3    0    0 -0.13320759673E+02 -0.43430203196E+02 -0.31448102869E+03  0.31774509059E+03  0.00000000000E+00 0. -1.
</event>
<event>
 7    1  0.5593520E-006  0.2011109E+03  0.7818608E-02  0.1181058E+00
          2   -1    0    0  502    0  0.00000000000E+00  0.00000000000E+00  0.18784813366E+03  0.18784813366E+03  0.00000000000E+00 0. -1.
          1   -1    0    0  501    0 -0.00000000000E+00 -0.00000000000E+00 -0.19813541547E+04  0.19813541547E+04  0.00000000000E+00 0. -1.
         25    2    1    2    0    0 -0.16596208157E+03 -0.20723138713E+03 -0.12763676381E+04  0.13096668821E+04  0.12499893596E+03 0.  0.
          2    1    1    2  501    0  0.15398052566E+03  0.69145773566E+02 -0.64757205149E+03  0.66920901231E+03  0.00000000000E+00 0. -1.
          1    1    1    2  502    0  0.11981555914E+02  0.13808561356E+03  0.13043366857E+03  0.19032639400E+03  0.00000000000E+00 0. -1.
         22    1    3    3    0    0 -0.10707311382E+03 -0.84178037785E+02 -0.39542506597E+03  0.41822431367E+03  0.00000000000E+00 0.  1.
         22    1    3    3    0    0 -0.58888967752E+02 -0.12305334934E+03 -0.88094257217E+03  0.89144256841E+03  0.00000000000E+00 0.  1.
</event>
<event>
 7    1  0.5593520E-006  0.9513163E+02  0.7818608E-02  0.1431159E+00
          2   -1    0    0  502    0  0.00000000000E+00  0.00000000000E+00  0.16431377117E+04  0.16431377117E+04  0.00000000000E+00 0. -1.
          1   -1    0    0  501    0 -0.00000000000E+00 -0.00000000000E+00 -0.11644419463E+03  0.11644419463E+03  0.00000000000E+00 0. -1.
         25    2    1    2    0    0  0.68704483717E+02  0.11210959158E+02  0.48205971815E+03  0.50284438616E+03  0.12499965256E+03 0.  0.
          2    1    1    2  501    0 -0.91783160016E+02 -0.29141002318E+02 -0.83963227352E+02  0.12776216195E+03  0.00000000000E+00 0. -1.
          1    1    1    2  502    0  0.23078676300E+02  0.17930043160E+02  0.11285970263E+04  0.11289753583E+04  0.00000000000E+00 0. -1.
         22    1    3    3    0    0  0.57348636774E+02 -0.51627291410E+02  0.30541908042E+03  0.31501596474E+03  0.00000000000E+00 0. -1.
         22    1    3    3    0    0  0.11355846943E+02  0.62838250568E+02  0.17664063773E+03  0.18782842141E+03  0.00000000000E+00 0. -1.
</event>
<event>
 7    1  0.5593520E-006  0.6915016E+02  0.7818608E-02  0.1412349E+00
          2   -1    0    0  502    0  0.00000000000E+00  0.00000000000E+00  0.63570440016E+03  0.63570440016E+03  0.00000000000E+00 0. -1.
          1   -1    0    0  501    0 -0.00000000000E+00 -0.00000000000E+00 -0.87432022450E+03  0.87432022450E+03  0.00000000000E+00 0. -1.
         25    2    1    2    0    0  0.36088782543E+02 -0.68347476418E+01 -0.16661072758E+03  0.21150850763E+03  0.12501040059E+03 0.  0.
          2    1    1    2  501    0 -0.51894779556E+02  0.50509710280E+02 -0.68246267600E+03  0.68629410832E+03  0.00000000000E+00 0. -1.
          1    1    1    2  502    0  0.15805997013E+02 -0.43674962639E+02  0.61045757924E+03  0.61222200871E+03  0.00000000000E+00 0. -1.
         22    1    3    3    0    0  0.78537303908E+02 -0.59429009398E+01 -0.67658508997E+02  0.10383207605E+03  0.00000000000E+00 0.  1.
         22    1    3    3    0    0 -0.42448521365E+02 -0.89184670199E+00 -0.98952218582E+02  0.10767643158E+03  0.00000000000E+00 0.  1.
</event>
<event>
 7    1  0.5593520E-006  0.5852634E+02  0.7818608E-02  0.1537709E+00
          2   -1    0    0  502    0  0.00000000000E+00  0.00000000000E+00  0.80524029916E+03  0.80524029916E+03  0.00000000000E+00 0. -1.
          1   -1    0    0  501    0 -0.00000000000E+00 -0.00000000000E+00 -0.59528720648E+02  0.59528720648E+02  0.00000000000E+00 0. -1.
         25    2    1    2    0    0  0.56258284122E+02  0.19852962182E+02  0.40324005251E+03  0.42636610981E+03  0.12500553993E+03 0.  0.
          2    1    1    2  501    0 -0.11898173640E+02  0.19051605727E+02 -0.42961906896E+02  0.48479435443E+02  0.00000000000E+00 0. -1.
          1    1    1    2  502    0 -0.44360110482E+02 -0.38904567909E+02  0.38543343290E+03  0.38992347455E+03  0.00000000000E+00 0. -1.
         22    1    3    3    0    0  0.17474898700E+02  0.68803556100E+01  0.37766583827E+03  0.37813251219E+03  0.00000000000E+00 0.  1.
         22    1    3    3    0    0  0.38783385422E+02  0.12972606572E+02  0.25574214233E+02  0.48233597623E+02  0.00000000000E+00 0.  1.
</event>
<event>
 7    1  0.5593520E-006  0.1883853E+03  0.7818608E-02  0.1249406E+00
          2   -1    0    0  502    0  0.00000000000E+00  0.00000000000E+00  0.79504669212E+03  0.79504669212E+03  0.00000000000E+00 0. -1.
          1   -1    0    0  501    0 -0.00000000000E+00 -0.00000000000E+00 -0.89498561990E+03  0.89498561990E+03  0.00000000000E+00 0. -1.
         25    2    1    2    0    0  0.10011964513E+03 -0.10376241907E+03 -0.96636419938E+02  0.21389963532E+03  0.12499549343E+03 0.  0.
          2    1    1    2  501    0 -0.17182775725E+03  0.10154058985E+03 -0.72444218819E+03  0.75143313314E+03  0.00000000000E+00 0. -1.
          1    1    1    2  502    0  0.71708112112E+02  0.22218292211E+01  0.72113968035E+03  0.72469954357E+03  0.00000000000E+00 0. -1.
         22    1    3    3    0    0  0.13146748379E+02 -0.66828693237E+02 -0.98066979751E+02  0.11939867566E+03  0.00000000000E+00 0.  1.
         22    1    3    3    0    0  0.86972896756E+02 -0.36933725838E+02  0.14305598126E+01  0.94500959655E+02  0.00000000000E+00 0.  1.
</event>
<event>
 7    1  0.5593520E-006  0.5097068E+02  0.7818608E-02  0.1561960E+00
          2   -1    0    0  502    0  0.00000000000E+00  0.00000000000E+00  0.98030294277E+03  0.98030294277E+03  0.00000000000E+00 0. -1.
          1   -1    0    0  501    0 -0.00000000000E+00 -0.00000000000E+00 -0.12581254927E+04  0.12581254927E+04  0.00000000000E+00 0. -1.
         25    2    1    2    0    0  0.25155296630E+02  0.16042513249E+02 -0.10171912919E+03  0.16389602580E+03  0.12499989940E+03 0.  0.
          2    1    1    2  501    0 -0.39593930769E+02 -0.32734727712E+02 -0.11246031452E+04  0.11257759439E+04  0.00000000000E+00 0. -1.
          1    1    1    2  502    0  0.14438634139E+02  0.16692214464E+02  0.94849972440E+03  0.94875646579E+03  0.00000000000E+00 0. -1.
         22    1    3    3    0    0  0.62304505285E+02  0.43883262046E+02 -0.38270507485E+02  0.85277334678E+02  0.00000000000E+00 0.  1.
         22    1    3    3    0    0 -0.37149208655E+02 -0.27840748798E+02 -0.63448621707E+02  0.78618691123E+02  0.00000000000E+00 0.  1.
</event>
<event>
 7    1  0.5593520E-006  0.4727037E+02  0.7818608E-02  0.1505120E+00
          2   -1    0    0  502    0  0.00000000000E+00  0.00000000000E+00  0.14684874254E+04  0.14684874254E+04  0.00000000000E+00 0. -1.
          1   -1    0    0  501    0 -0.00000000000E+00 -0.00000000000E+00 -0.19170182952E+02  0.19170182952E+02  0.00000000000E+00 0. -1.
         25    2    1    2    0    0 -0.46017711921E+02 -0.53563495274E+02  0.68015864570E+03  0.69514557073E+03  0.12499961344E+03 0.  0.
          2    1    1    2  501    0  0.33152729801E+02  0.97892608285E+01  0.16205560449E+02  0.38177916526E+02  0.00000000000E+00 0. -1.
          1    1    1    2  502    0  0.12864982121E+02  0.43774234445E+02  0.75295303630E+03  0.75433412109E+03  0.00000000000E+00 0. -1.
         22    1    3    3    0    0  0.14124139102E+02  0.21209842179E+02  0.36037536441E+03  0.36127517488E+03  0.00000000000E+00 0. -1.
         22    1    3    3    0    0 -0.60141851023E+02 -0.74773337453E+02  0.31978328129E+03  0.33387039586E+03  0.00000000000E+00 0. -1.
</event>
<event>
 7    1  0.5593520E-006  0.1371037E+03  0.7818608E-02  0.1272662E+00
          2   -1    0    0  502    0  0.00000000000E+00  0.00000000000E+00  0.21794736888E+03  0.21794736888E+03  0.00000000000E+00 0. -1.
          1   -1    0    0  501    0 -0.00000000000E+00 -0.00000000000E+00 -0.92911787816E+03  0.92911787816E+03  0.00000000000E+00 0. -1.
         25    2    1    2    0    0  0.14770789410E+03 -0.36911691576E+02 -0.23236855725E+03  0.30463342819E+03  0.12500513678E+03 0.  0.
          2    1    1    2  501    0 -0.13173484053E+03 -0.39910213829E+02 -0.64453159402E+03  0.65906590647E+03  0.00000000000E+00 0. -1.
          1    1    1    2  502    0 -0.15973053569E+02  0.76821905405E+02  0.16572964199E+03  0.18336591239E+03  0.00000000000E+00 0. -1.
         22    1    3    3    0    0  0.99335093869E+02 -0.10797005397E+02 -0.22865786180E+03  0.24953647822E+03  0.00000000000E+00 0. -1.
         22    1    3    3    0    0  0.48372800227E+02 -0.26114686178E+02 -0.37106954542E+01  0.55096949977E+02  0.00000000000E+00 0. -1.
</event>
<event>
 7    1  0.5593520E-006  0.3070121E+02  0.7818608E-02  0.1648209E+00
          2   -1    0    0  502    0  0.00000000000E+00  0.00000000000E+00  0.14114027803E+04  0.14114027803E+04  0.00000000000E+00 0. -1.
          1   -1    0    0  501    0 -0.00000000000E+00 -0.00000000000E+00 -0.53746754730E+03  0.53746754730E+03  0.00000000000E+00 0. -1.
         25    2    1    2    0    0 -0.47803599221E+02  0.14494272270E+02 -0.15891119822E+03  0.20826502760E+03  0.12500513900E+03 0.  0.
          2    1    1    2  501    0  0.25953755544E+02 -0.15508955620E+02 -0.35314719366E+03  0.35443908577E+03  0.00000000000E+00 0. -1.
          1    1    1    2  502    0  0.21849843677E+02  0.10146833499E+01  0.13859936249E+04  0.13861662142E+04  0.00000000000E+00 0. -1.
         22    1    3    3    0    0  0.15879475495E+02 -0.42931365477E+02 -0.77588360001E+02  0.90084479747E+02  0.00000000000E+00 0. -1.
         22    1    3    3    0    0 -0.63683074716E+02  0.57425637747E+02 -0.81322838216E+02  0.11818054786E+03  0.00000000000E+00 0. -1.
</event>
<event>
 7    1  0.5593520E-006  0.6584932E+02  0.7818608E-02  0.1434437E+00
          2   -1    0    0  502    0  0.00000000000E+00  0.00000000000E+00  0.13040919719E+04  0.13040919719E+04  0.00000000000E+00 0. -1.
          1   -1    0    0  501    0 -0.00000000000E+00 -0.00000000000E+00 -0.18023207951E+03  0.18023207951E+03  0.00000000000E+00 0. -1.
         25    2    1    2    0    0  0.61727720444E+02  0.33340301740E+02  0.36246259464E+03  0.38977999417E+03  0.12500969622E+03 0.  0.
          2    1    1    2  501    0  0.43272540062E+01 -0.40961301062E+02 -0.16281430226E+03  0.16794359271E+03  0.00000000000E+00 0. -1.
          1    1    1    2  502    0 -0.66054974450E+02  0.76209993215E+01  0.92421160003E+03  0.92660046455E+03  0.00000000000E+00 0. -1.
         22    1    3    3    0    0  0.59331284709E+02  0.30514346052E+00  0.34903134400E+03  0.35403837864E+03  0.00000000000E+00 0.  1.
         22    1    3    3    0    0  0.23964357347E+01  0.33035158280E+02  0.13431250646E+02  0.35741615530E+02  0.00000000000E+00 0.  1.
</event>
<event>
 7    1  0.5593520E-006  0.3587381E+02  0.7818608E-02  0.1577938E+00
          2   -1    0    0  502    0  0.00000000000E+00  0.00000000000E+00  0.23432905307E+03  0.23432905307E+03  0.00000000000E+00 0. -1.
          1   -1    0    0  501    0 -0.00000000000E+00 -0.00000000000E+00 -0.86848690660E+02  0.86848690660E+02  0.00000000000E+00 0. -1.
         25    2    1    2    0    0  0.25159639917E+02  0.48385700744E+02  0.83210857451E+02  0.15976130482E+03  0.12500177680E+03 0.  0.
          2    1    1    2  501    0 -0.28756642742E+02 -0.20239292355E+02 -0.40055613966E+02  0.53301272659E+02  0.00000000000E+00 0. -1.
          1    1    1    2  502    0  0.35970028249E+01 -0.28146408389E+02  0.10432511893E+03  0.10811516625E+03  0.00000000000E+00 0. -1.
         22    1    3    3    0    0  0.75088068688E+00  0.88866644565E+02  0.58786770699E+02  0.10655387720E+03  0.00000000000E+00 0.  1.
         22    1    3    3    0    0  0.24408759231E+02 -0.40480943821E+02  0.24424086752E+02  0.53207427616E+02  0.00000000000E+00 0.  1.
</event>
<event>
 7    1  0.1217398E-005  0.1229267E+03  0.7818608E-02  0.1353000E+00
          2   -1    0    0  502    0  0.00000000000E+00  0.00000000000E+00  0.16825151268E+04  0.16825151268E+04  0.00000000000E+00 0. -1.
          1   -1    0    0  501    0 -0.00000000000E+00 -0.00000000000E+00 -0.15854870672E+04  0.15854870672E+04  0.00000000000E+00 0. -1.
         25    2    1    2    0    0 -0.13991052097E+03 -0.31021896270E+02 -0.52881937052E+03  0.56197189039E+03  0.12500066812E+03 0.  0.
          2    1    1    2  501    0  0.17281339710E+02  0.38633309002E+02 -0.10373940096E+04  0.10382569568E+04  0.00000000000E+00 0. -1.
          1    1    1    2  502    0  0.12262918126E+03 -0.76114127322E+01  0.16632414397E+04  0.16677733468E+04  0.00000000000E+00 0. -1.
         22    1    3    3    0    0 -0.22272167509E+02  0.27208970494E+02 -0.26478635901E+03  0.26711082614E+03  0.00000000000E+00 0. -1.
         22    1    3    3    0    0 -0.11763835346E+03 -0.58230866764E+02 -0.26403301150E+03  0.29486106425E+03  0.00000000000E+00 0. -1.
</event>
<event>
 7    1  0.5593520E-006  0.1508186E+03  0.7818608E-02  0.1269495E+00
          2   -1    0    0  502    0  0.00000000000E+00  0.00000000000E+00  0.11242250733E+04  0.11242250733E+04  0.00000000000E+00 0. -1.
          1   -1    0    0  501    0 -0.00000000000E+00 -0.00000000000E+00 -0.19411532929E+03  0.19411532929E+03  0.00000000000E+00 0. -1.
         25    2    1    2    0    0  0.16231375035E+03  0.61883484025E+02  0.11956189672E+02  0.21434283546E+03  0.12499832597E+03 0.  0.
          2    1    1    2  501    0 -0.12300867104E+02 -0.72507695127E+02 -0.71743760788E+02  0.10274163906E+03  0.00000000000E+00 0. -1.
          1    1    1    2  502    0 -0.15001288325E+03  0.10624211102E+02  0.98989731515E+03  0.10012559281E+04  0.00000000000E+00 0. -1.
         22    1    3    3    0    0  0.41490413648E+02  0.29671432418E+01 -0.51079797482E+02  0.65874153311E+02  0.00000000000E+00 0. -1.
         22    1    3    3    0    0  0.12082333670E+03  0.58916340783E+02  0.63035987154E+02  0.14846868215E+03  0.00000000000E+00 0. -1.
</event>
<event>
 7    1  0.5593520E-006  0.9498278E+02  0.7818608E-02  0.1318235E+00
          2   -1    0    0  502    0  0.00000000000E+00  0.00000000000E+00  0.31459905694E+04  0.31459905694E+04  0.00000000000E+00 0. -1.
          1   -1    0    0  501    0 -0.00000000000E+00 -0.00000000000E+00 -0.84116186806E+02  0.84116186806E+02  0.00000000000E+00 0. -1.
         25    2    1    2    0    0  0.30675312153E+02 -0.80922816684E+02  0.46755798026E+03  0.49165215640E+03  0.12498760320E+03 0.  0.
          2    1    1    2  501    0 -0.90210720903E+02  0.36676965517E+02 -0.38410428616E+02  0.10468302151E+03  0.00000000000E+00 0. -1.
          1    1    1    2  502    0  0.59535408750E+02  0.44245851167E+02  0.26327268310E+04  0.26337715783E+04  0.00000000000E+00 0. -1.
         22    1    3    3    0    0 -0.41793875190E+02 -0.56770257837E+02  0.16168381433E+03  0.17638380310E+03  0.00000000000E+00 0.  1.
         22    1    3    3    0    0  0.72469187343E+02 -0.24152558847E+02  0.30587416593E+03  0.31526835330E+03  0.00000000000E+00 0.  1.
</event>
<event>
 7    1  0.5593520E-006  0.4907062E+02  0.7818608E-02  0.1451828E+00
          2   -1    0    0  502    0  0.00000000000E+00  0.00000000000E+00  0.70903232960E+03  0.70903232960E+03  0.00000000000E+00 0. -1.
          1   -1    0    0  501    0 -0.00000000000E+00 -0.00000000000E+00 -0.72996719940E+02  0.72996719940E+02  0.00000000000E+00 0. -1.
         25    2    1    2    0    0 -0.35755290243E+02 -0.48946276300E+02  0.65755433788E+02  0.15370063832E+03  0.12500372156E+03 0.  0.
          2    1    1    2  501    0 -0.13309266111E+02  0.48174891150E+02 -0.56623049876E+01  0.50299288261E+02  0.00000000000E+00 0. -1.
          1    1    1    2  502    0  0.49064556354E+02  0.77138514980E+00  0.57594248086E+03  0.57802912295E+03  0.00000000000E+00 0. -1.
         22    1    3    3    0    0  0.25409482524E+02  0.20302107219E+02 -0.10208763038E+02  0.34088652107E+02  0.00000000000E+00 0. -1.
         22    1    3    3    0    0 -0.61164772767E+02 -0.69248383519E+02  0.75964196826E+02  0.11961198622E+03  0.00000000000E+00 0. -1.
</event>
<event>
 7    1  0.5593520E-006  0.5676823E+02  0.7818608E-02  0.1542206E+00
          2   -1    0    0  502    0  0.00000000000E+00  0.00000000000E+00  0.13438534625E+04  0.13438534625E+04  0.00000000000E+00 0. -1.
          1   -1    0    0  501    0 -0.00000000000E+00 -0.00000000000E+00 -0.30687801975E+03  0.30687801975E+03  0.00000000000E+00 0. -1.
         25    2    1    2    0    0  0.22737964524E+01 -0.38404537004E+02  0.64949564813E+03  0.66253257952E+03  0.12499897346E+03 0.  0.
          2    1    1    2  501    0  0.67249719047E+01 -0.21460374390E+02 -0.29860389369E+03  0.29944959216E+03  0.00000000000E+00 0. -1.
          1    1    1    2  502    0 -0.89987683571E+01  0.59864911394E+02  0.68608368834E+03  0.68874931060E+03  0.00000000000E+00 0. -1.
         22    1    3    3    0    0 -0.31137252359E+02  0.35953045478E+02  0.19005227608E+03  0.19591329104E+03  0.00000000000E+00 0.  1.
         22    1    3    3    0    0  0.33411048811E+02 -0.74357582482E+02  0.45944337205E+03  0.46661928847E+03  0.00000000000E+00 0.  1.
</event>
<event>
 7    1  0.5593520E-006  0.8498821E+02  0.7818608E-02  0.1333367E+00
          2   -1    0    0  502    0  0.00000000000E+00  0.00000000000E+00  0.10507011597E+04  0.10507011597E+04  0.00000000000E+00 0. -1.
          1   -1    0    0  501    0 -0.00000000000E+00 -0.00000000000E+00 -0.43165175589E+03  0.43165175589E+03  0.00000000000E+00 0. -1.
         25    2    1    2    0    0  0.96098735279E+02  0.12002655108E+03 -0.10546586886E+02  0.19843906569E+03  0.12500196962E+03 0.  0.
          2    1    1    2  501    0 -0.49700462370E+02 -0.64312064051E+02 -0.32070844420E+03  0.33084752337E+03  0.00000000000E+00 0. -1.
          1    1    1    2  502    0 -0.46398272909E+02 -0.55714487032E+02  0.95030443485E+03  0.95306632649E+03  0.00000000000E+00 0. -1.
         22    1    3    3    0    0  0.11017755704E+03  0.78840845276E+02 -0.45180537946E+02  0.14281545424E+03  0.00000000000E+00 0. -1.
         22    1    3    3    0    0 -0.14078821764E+02  0.41185705806E+02  0.34633951060E+02  0.55623611453E+02  0.00000000000E+00 0. -1.
</event>
<event>
 7    1  0.5593520E-006  0.6683653E+02  0.7818608E-02  0.1392675E+00
          2   -1    0    0  502    0  0.00000000000E+00  0.00000000000E+00  0.18743718268E+04  0.18743718268E+04  0.00000000000E+00 0. -1.
          1   -1    0    0  501    0 -0.00000000000E+00 -0.00000000000E+00 -0.12612078743E+04  0.12612078743E+04  0.00000000000E+00 0. -1.
         25    2    1    2    0    0 -0.11177338324E+03 -0.10858209832E+02  0.10929689069E+04  0.11058101632E+04  0.12499558259E+03 0.  0.
          2    1    1    2  501    0  0.53050303897E+02  0.18316988542E+02 -0.12530278378E+04  0.12542841023E+04  0.00000000000E+00 0. -1.
          1    1    1    2  502    0  0.58723079339E+02 -0.74587787099E+01  0.77322288344E+03  0.77548543565E+03  0.00000000000E+00 0. -1.
         22    1    3    3    0    0 -0.95477514420E+02 -0.26601314968E+02  0.38741250796E+03  0.39989003119E+03  0.00000000000E+00 0.  1.
         22    1    3    3    0    0 -0.16295868816E+02  0.15743105135E+02  0.70555639892E+03  0.70592013200E+03  0.00000000000E+00 0.  1.
</event>
<event>
 7    1  0.5593520E-006  0.3635412E+02  0.7818608E-02  0.1604535E+00
          2   -1    0    0  502    0  0.00000000000E+00  0.00000000000E+00  0.77402529844E+02  0.77402529844E+02  0.00000000000E+00 0. -1.
          1   -1    0    0  501    0 -0.00000000000E+00 -0.00000000000E+00 -0.19335408454E+03  0.19335408454E+03  0.00000000000E+00 0. -1.
         25    2    1    2    0    0  0.52100870788E+02  0.81981297842E+01 -0.60695022872E+02  0.14863133960E+03  0.12500271694E+03 0.  0.
          2    1    1    2  501    0 -0.30358692354E+02 -0.17918811523E+02 -0.80219491909E+02  0.87623632029E+02  0.00000000000E+00 0. -1.
          1    1    1    2  502    0 -0.21742178434E+02  0.97206817389E+01  0.24962960085E+02  0.34501642754E+02  0.00000000000E+00 0. -1.
         22    1    3    3    0    0  0.86965174305E+02  0.23006751985E+02 -0.18336910665E+02  0.91806832379E+02  0.00000000000E+00 0.  1.
         22    1    3    3    0    0 -0.34864303517E+02 -0.14808622201E+02 -0.42358112208E+02  0.56824507222E+02  0.00000000000E+00 0.  1.
</event>
<event>
 7    1  0.5593520E-006  0.4230699E+02  0.7818608E-02  0.1516225E+00
          2   -1    0    0  502    0  0.00000000000E+00  0.00000000000E+00  0.13289937327E+04  0.13289937327E+04  0.00000000000E+00 0. -1.
          1   -1    0    0  501    0 -0.00000000000E+00 -0.00000000000E+00 -0.20158359938E+03  0.20158359938E+03  0.00000000000E+00 0. -1.
         25    2    1    2    0    0  0.93841665800E+01 -0.15039434751E+02  0.36774907855E+03  0.38881674413E+03  0.12499931423E+03 0.  0.
          2    1    1    2  501    0  0.17466999228E+02  0.38755820782E+02 -0.18834251960E+03  0.19308033145E+03  0.00000000000E+00 0. -1.
          1    1    1    2  502    0 -0.26851165808E+02 -0.23716386031E+02  0.94800357440E+03  0.94868025654E+03  0.00000000000E+00 0. -1.
         22    1    3    3    0    0  0.38581285581E+01  0.48077380835E+02  0.74130607048E+02  0.88440186597E+02  0.00000000000E+00 0.  1.
         22    1    3    3    0    0  0.55260380219E+01 -0.63116815585E+02  0.29361847150E+03  0.30037655753E+03  0.00000000000E+00 0.  1.
</event>
<event>
 7    1  0.5593520E-006  0.7817400E+02  0.7818608E-02  0.1395808E+00
          2   -1    0    0  502    0  0.00000000000E+00  0.00000000000E+00  0.25448787524E+04  0.25448787524E+04  0.00000000000E+00 0. -1.
          1   -1    0    0  501    0 -0.00000000000E+00 -0.00000000000E+00 -0.40688341147E+02  0.40688341147E+02  0.00000000000E+00 0. -1.
         25    2    1    2    0    0 -0.85328509142E+02  0.62501344991E+02  0.10727414827E+04  0.10851666723E+04  0.12500018147E+03 0.  0.
          2    1    1    2  501    0  0.38746515082E+02 -0.66999185778E+02  0.98375702903E+01  0.78018979198E+02  0.00000000000E+00 0. -1.
          1    1    1    2  502    0  0.46581994061E+02  0.44978407873E+01  0.14216113583E+04  0.14223814421E+04  0.00000000000E+00 0. -1.
         22    1    3    3    0    0  0.32759313690E+02  0.15637464379E+02  0.20837831156E+03  0.21151648554E+03  0.00000000000E+00 0. -1.
         22    1    3    3    0    0 -0.11808782283E+03  0.46863880612E+02  0.86436317112E+03  0.87365018675E+03  0.00000000000E+00 0. -1.
</event>
<event>
 7    1  0.5593520E-006  0.8397237E+02  0.7818608E-02  0.1331710E+00
          2   -1    0    0  502    0  0.00000000000E+00  0.00000000000E+00  0.10257846007E+04  0.10257846007E+04  0.00000000000E+00 0. -1.
          1   -1    0    0  501    0 -0.00000000000E+00 -0.00000000000E+00 -0.13726034919E+04  0.13726034919E+04  0.00000000000E+00 0. -1.
         25    2    1    2    0    0 -0.13303726264E+03  0.83796239335E+02  0.37716981049E+03  0.42732023878E+03  0.12499919018E+03 0.  0.
          2    1    1    2  501    0  0.65831078086E+02 -0.51752182136E+02 -0.13439979750E+04  0.13466040903E+04  0.00000000000E+00 0. -1.
          1    1    1    2  502    0  0.67206184557E+02 -0.32044057199E+02  0.62000927334E+03  0.62446376346E+03  0.00000000000E+00 0. -1.
         22    1    3    3    0    0 -0.65354128477E+02 -0.14389196428E+02  0.65608758418E+02  0.93716168637E+02  0.00000000000E+00 0. -1.
         22    1    3    3    0    0 -0.67683134165E+02  0.98185435763E+02  0.31156105207E+03  0.33360407014E+03  0.00000000000E+00 0. -1.
</event>
<event>
 7    1  0.1198871E-005  0.5987247E+02  0.7818608E-02  0.1409818E+00
          2   -1    0    0  502    0  0.00000000000E+00  0.00000000000E+00  0.23879389488E+04  0.23879389488E+04  0.00000000000E+00 0. -1.
          1   -1    0    0  501    0 -0.00000000000E+00 -0.00000000000E+00 -0.18868050014E+04  0.18868050014E+04  0.00000000000E+00 0. -1.
         25    2    1    2    0    0  0.65054028788E+02 -0.91462510645E+02 -0.41567972290E+03  0.44834204630E+03  0.12499416360E+03 0.  0.
          2    1    1    2  501    0 -0.40315493719E+02  0.36988142748E+02 -0.14539021648E+04  0.14549312584E+04  0.00000000000E+00 0. -1.
          1    1    1    2  502    0 -0.24738535069E+02  0.54474367896E+02  0.23707158351E+04  0.23714706455E+04  0.00000000000E+00 0. -1.
         22    1    3    3    0    0  0.29837620523E+00 -0.38360659168E+02 -0.31526126459E+03  0.31758667188E+03  0.00000000000E+00 0. -1.
         22    1    3    3    0    0  0.64755652583E+02 -0.53101851476E+02 -0.10041845831E+03  0.13075537443E+03  0.00000000000E+00 0. -1.
</event>
<event>
 7    1  0.5593520E-006  0.8428134E+02  0.7818608E-02  0.1399766E+00
          2   -1    0    0  502    0  0.00000000000E+00  0.00000000000E+00  0.17034172388E+04  0.17034172388E+04  0.00000000000E+00 0. -1.
          1   -1    0    0  501    0 -0.00000000000E+00 -0.00000000000E+00 -0.30786423542E+03  0.30786423542E+03  0.00000000000E+00 0. -1.
         25    2    1    2    0    0 -0.10826832377E+03  0.10010852183E+02  0.10851390525E+03  0.19804861990E+03  0.12500296444E+03 0.  0.
          2    1    1    2  501    0  0.75286562630E+02 -0.36117470155E+02 -0.25617762540E+03  0.26944296969E+03  0.00000000000E+00 0. -1.
          1    1    1    2  502    0  0.32981761144E+02  0.26106617973E+02  0.15432167235E+04  0.15437898846E+04  0.00000000000E+00 0. -1.
         22    1    3    3    0    0 -0.12107273728E+03  0.19857801888E+02  0.12487169710E+03  0.17505964911E+03  0.00000000000E+00 0.  1.
         22    1    3    3    0    0  0.12804413510E+02 -0.98469497048E+01 -0.16357791853E+02  0.22988970793E+02  0.00000000000E+00 0.  1.
</event>
<event>
 7    1  0.5593520E-006  0.7997217E+02  0.7818608E-02  0.1349970E+00
          2   -1    0    0  502    0  0.00000000000E+00  0.00000000000E+00  0.19644784821E+04  0.19644784821E+04  0.00000000000E+00 0. -1.
          1   -1    0    0  501    0 -0.00000000000E+00 -0.00000000000E+00 -0.28504437270E+03  0.28504437270E+03  0.00000000000E+00 0. -1.
         25    2    1    2    0    0  0.12371194309E+02 -0.93662391136E+02  0.26427055335E+03  0.30722857927E+03  0.12499913836E+03 0.  0.
          2    1    1    2  501    0 -0.62794014387E+02  0.49916955772E+02 -0.25678025244E+03  0.26901837997E+03  0.00000000000E+00 0. -1.
          1    1    1    2  502    0  0.50422820078E+02  0.43745435364E+02  0.16719438084E+04  0.16732758955E+04  0.00000000000E+00 0. -1.
         22    1    3    3    0    0  0.63405994717E+02 -0.52473453962E+02  0.19591089663E+03  0.21249673634E+03  0.00000000000E+00 0. -1.
         22    1    3    3    0    0 -0.51034800408E+02 -0.41188937174E+02  0.68359656722E+02  0.94731842932E+02  0.00000000000E+00 0. -1.
</event>
<event>
 7    1  0.5593520E-006  0.4502170E+02  0.7818608E-02  0.1496573E+00
          2   -1    0    0  502    0  0.00000000000E+00  0.00000000000E+00  0.20377299520E+04  0.20377299520E+04  0.00000000000E+00 0. -1.
          1   -1    0    0  501    0 -0.00000000000E+00 -0.00000000000E+00 -0.39194794829E+03  0.39194794829E+03  0.00000000000E+00 0. -1.
         25    2    1    2    0    0 -0.49019888083E+02  0.33694458615E+01 -0.17002061117E+02  0.13538478709E+03  0.12500267157E+03 0.  0.
          2    1    1    2  501    0  0.21228822859E+02  0.32102786242E+02 -0.31432404895E+03  0.31667153259E+03  0.00000000000E+00 0. -1.
          1    1    1    2  502    0  0.27791065224E+02 -0.35472232104E+02  0.19771081137E+04  0.19776215806E+04  0.00000000000E+00 0. -1.
         22    1    3    3    0    0 -0.44828271826E+02 -0.11647756696E+02  0.49082562346E+02  0.67485866056E+02  0.00000000000E+00 0.  1.
         22    1    3    3    0    0 -0.41916162572E+01  0.15017202557E+02 -0.66084623463E+02  0.67898921035E+02  0.00000000000E+00 0.  1.
</event>
<event>
 7    1  0.5593520E-006  0.7832333E+02  0.7818608E-02  0.1376281E+00
          2   -1    0    0  502    0  0.00000000000E+00  0.00000000000E+00  0.38060287351E+02  0.38060287351E+02  0.00000000000E+00 0. -1.
          1   -1    0    0  501    0 -0.00000000000E+00 -0.00000000000E+00 -0.13867713679E+04  0.13867713679E+04  0.00000000000E+00 0. -1.
         25    2    1    2    0    0  0.58838340568E+02 -0.91038003429E+01 -0.61820886141E+03  0.63352389992E+03  0.12500202375E+03 0.  0.
          2    1    1    2  501    0 -0.61159761825E+02  0.63749442241E+02 -0.73129035553E+03  0.73660714899E+03  0.00000000000E+00 0. -1.
          1    1    1    2  502    0  0.23214212561E+01 -0.54645641898E+02  0.78813639087E+00  0.54700606341E+02  0.00000000000E+00 0. -1.
         22    1    3    3    0    0 -0.15486268465E+02 -0.50564971256E+02 -0.21213124286E+03  0.21862366072E+03  0.00000000000E+00 0.  1.
         22    1    3    3    0    0  0.74324609033E+02  0.41461170913E+02 -0.40607761855E+03  0.41490023921E+03  0.00000000000E+00 0.  1.
</event>
<event>
 7    1  0.5593520E-006  0.8782541E+02  0.7818608E-02  0.1382844E+00
          2   -1    0    0  502    0  0.00000000000E+00  0.00000000000E+00  0.14200711480E+04  0.14200711480E+04  0.00000000000E+00 0. -1.
          1   -1    0    0  501    0 -0.00000000000E+00 -0.00000000000E+00 -0.19553329223E+03  0.19553329223E+03  0.00000000000E+00 0. -1.
         25    2    1    2    0    0  0.59341217898E+02 -0.75001980205E+01  0.46244862953E+03  0.48276538783E+03  0.12500420641E+03 0.  0.
          2    1    1    2  501    0  0.23524201894E+02 -0.39801893700E+02 -0.18004449490E+03  0.18588598377E+03  0.00000000000E+00 0. -1.
          1    1    1    2  502    0 -0.82865419792E+02  0.47302091720E+02  0.94213372118E+03  0.94695306867E+03  0.00000000000E+00 0. -1.
         22    1    3    3    0    0 -0.22827371874E+02  0.34477985434E+02  0.89793254256E+02  0.98856708908E+02  0.00000000000E+00 0. -1.
         22    1    3    3    0    0  0.82168589772E+02 -0.41978183454E+02  0.37265537527E+03  0.38390867892E+03  0.00000000000E+00 0. -1.
</event>
<event>
 7    1  0.5593520E-006  0.1089930E+03  0.7818608E-02  0.1380203E+00
          2   -1    0    0  502    0  0.00000000000E+00  0.00000000000E+00  0.84477548929E+03  0.84477548929E+03  0.00000000000E+00 0. -1.
          1   -1    0    0  501    0 -0.00000000000E+00 -0.00000000000E+00 -0.13731160067E+03  0.13731160067E+03  0.00000000000E+00 0. -1.
         25    2    1    2    0    0  0.12917904851E+03 -0.36300747342E+02  0.43507181524E+03  0.47214104899E+03  0.12499885959E+03 0.  0.
          2    1    1    2  501    0 -0.37688051268E+02 -0.53357525069E+01 -0.10903917210E+03  0.11549199329E+03  0.00000000000E+00 0. -1.
          1    1    1    2  502    0 -0.91490997241E+02  0.41636499849E+02  0.38143124548E+03  0.39445404767E+03  0.00000000000E+00 0. -1.
         22    1    3    3    0    0 -0.88196616272E+01 -0.66517452987E+01 -0.33618962991E+01  0.11547055619E+02  0.00000000000E+00 0.  1.
         22    1    3    3    0    0  0.13799871014E+03 -0.29649002044E+02  0.43843371154E+03  0.46059399337E+03  0.00000000000E+00 0.  1.
</event>
<event>
 7    1  0.5593520E-006  0.7198491E+02  0.7818608E-02  0.1364148E+00
          2   -1    0    0  502    0  0.00000000000E+00  0.00000000000E+00  0.21897645165E+03  0.21897645165E+03  0.00000000000E+00 0. -1.
          1   -1    0    0  501    0 -0.00000000000E+00 -0.00000000000E+00 -0.16998938237E+04  0.16998938237E+04  0.00000000000E+00 0. -1.
         25    2    1    2    0    0 -0.42724331199E+01  0.18540840757E+01 -0.50072856430E+03  0.51611706287E+03  0.12500414460E+03 0.  0.
          2    1    1    2  501    0  0.34371006599E+02 -0.67244471790E+02 -0.11841016028E+04  0.11865073919E+04  0.00000000000E+00 0. -1.
          1    1    1    2  502    0 -0.30098573479E+02  0.65390387714E+02  0.20391279510E+03  0.21624582062E+03  0.00000000000E+00 0. -1.
         22    1    3    3    0    0  0.54223603823E+02 -0.10710441945E+02 -0.34295258967E+03  0.34737788004E+03  0.00000000000E+00 0.  1.
         22    1    3    3    0    0 -0.58496036943E+02  0.12564526021E+02 -0.15777597463E+03  0.16873918283E+03  0.00000000000E+00 0.  1.
</event>
<event>
 7    1  0.5593520E-006  0.9981078E+02  0.7818608E-02  0.1281659E+00
          2   -1    0    0  502    0  0.00000000000E+00  0.00000000000E+00  0.11746845521E+04  0.11746845521E+04  0.00000000000E+00 0. -1.
          1   -1    0    0  501    0 -0.00000000000E+00 -0.00000000000E+00 -0.18564823898E+04  0.18564823898E+04  0.00000000000E+00 0. -1.
         25    2    1    2    0    0  0.78000866988E+01  0.75356268882E+01 -0.18708733386E+03  0.22526543420E+03  0.12500087331E+03 0.  0.
          2    1    1    2  501    0 -0.10466404297E+03 -0.27503531744E+02 -0.16464103181E+04  0.16499630122E+04  0.00000000000E+00 0. -1.
          1    1    1    2  502    0  0.96863956267E+02  0.19967904855E+02  0.11516998143E+04  0.11559384955E+04  0.00000000000E+00 0. -1.
         22    1    3    3    0    0 -0.32002061801E+02 -0.18605812170E+02 -0.53612394574E+01  0.37403891436E+02  0.00000000000E+00 0.  1.
         22    1    3    3    0    0  0.39802148500E+02  0.26141439058E+02 -0.18172609440E+03  0.18786154276E+03  0.00000000000E+00 0.  1.
</event>
<event>
 7    1  0.5593520E-006  0.3430497E+02  0.7818608E-02  0.1580175E+00
          2   -1    0    0  502    0  0.00000000000E+00  0.00000000000E+00  0.20518133113E+04  0.20518133113E+04  0.00000000000E+00 0. -1.
          1   -1    0    0  501    0 -0.00000000000E+00 -0.00000000000E+00 -0.30558661192E+02  0.30558661192E+02  0.00000000000E+00 0. -1.
         25    2    1    2    0    0  0.58631749305E+01  0.18421394710E+02  0.12125282866E+03  0.17521337091E+03  0.12499500903E+03 0.  0.
          2    1    1    2  501    0 -0.28207492008E+02  0.77977794888E+01  0.59240777260E+02  0.66075242419E+02  0.00000000000E+00 0. -1.
          1    1    1    2  502    0  0.22344317077E+02 -0.26219174199E+02  0.18407610442E+04  0.18410833592E+04  0.00000000000E+00 0. -1.
         22    1    3    3    0    0 -0.28105324672E+02  0.53060033721E+02  0.20601629591E+02  0.63479946402E+02  0.00000000000E+00 0.  1.
         22    1    3    3    0    0  0.33968499602E+02 -0.34638639010E+02  0.10065119907E+03  0.11173342451E+03  0.00000000000E+00 0.  1.
</event>
<event>
 7    1  0.5593520E-006  0.1092898E+03  0.7818608E-02  0.1276464E+00
          2   -1    0    0  502    0  0.00000000000E+00  0.00000000000E+00  0.25115292583E+04  0.25115292583E+04  0.00000000000E+00 0. -1.
          1   -1    0    0  501    0 -0.00000000000E+00 -0.00000000000E+00 -0.11358702249E+04  0.11358702249E+04  0.00000000000E+00 0. -1.
         25    2    1    2    0    0 -0.12317921538E+03 -0.10017571870E+03  0.93060209957E+02  0.22245811080E+03  0.12497645643E+03 0.  0.
          2    1    1    2  501    0  0.28403363053E+02  0.10516642568E+03 -0.10674414034E+04  0.10729854975E+04  0.00000000000E+00 0. -1.
          1    1    1    2  502    0  0.94775852331E+02 -0.49907069792E+01  0.23500402269E+04  0.23519558749E+04  0.00000000000E+00 0. -1.
         22    1    3    3    0    0 -0.99894016074E+02 -0.11865214718E+03  0.37695818347E+02  0.15961867434E+03  0.00000000000E+00 0. -1.
         22    1    3    3    0    0 -0.23285199310E+02  0.18476428472E+02  0.55364391611E+02  0.62839436458E+02  0.00000000000E+00 0. -1.
</event>
<event>
 7    1  0.5593520E-006  0.3518881E+02  0.7818608E-02  0.1614308E+00
          2   -1    0    0  502    0  0.00000000000E+00  0.00000000000E+00  0.91602193127E+02  0.91602193127E+02  0.00000000000E+00 0. -1.
          1   -1    0    0  501    0 -0.00000000000E+00 -0.00000000000E+00 -0.70323096911E+03  0.70323096911E+03  0.00000000000E+00 0. -1.
         25    2    1    2    0    0 -0.38752124711E+02  0.32629563131E+02 -0.85535792889E+01  0.13514619366E+03  0.12499965752E+03 0.  0.
          2    1    1    2  501    0  0.33652439369E+02 -0.99801916512E+01 -0.62604480991E+03  0.62702806550E+03  0.00000000000E+00 0. -1.
          1    1    1    2  502    0  0.50996853422E+01 -0.22649371480E+02  0.22969613221E+02  0.32658903082E+02  0.00000000000E+00 0. -1.
         22    1    3    3    0    0 -0.30957409263E+02  0.71173564959E+02  0.26955548576E+02  0.82162273193E+02  0.00000000000E+00 0.  1.
         22    1    3    3    0    0 -0.77947154478E+01 -0.38544001828E+02 -0.35509127865E+02  0.52983920462E+02  0.00000000000E+00 0.  1.
</event>
<event>
 7    1  0.5593520E-006  0.6505148E+02  0.7818608E-02  0.1389765E+00
          2   -1    0    0  502    0  0.00000000000E+00  0.00000000000E+00  0.64432479762E+03  0.64432479762E+03  0.00000000000E+00 0. -1.
          1   -1    0    0  501    0 -0.00000000000E+00 -0.00000000000E+00 -0.76636956023E+03  0.76636956023E+03  0.00000000000E+00 0. -1.
         25    2    1    2    0    0  0.41993099818E+02  0.31109398567E+02  0.48880971119E+01  0.13557230043E+03  0.12499896015E+03 0.  0.
          2    1    1    2  501    0 -0.47686413056E+02  0.34784607469E+02 -0.69787254689E+03  0.70036422997E+03  0.00000000000E+00 0. -1.
          1    1    1    2  502    0  0.56933132377E+01 -0.65894006036E+02  0.57093968717E+03  0.57475782746E+03  0.00000000000E+00 0. -1.
         22    1    3    3    0    0  0.60620927470E+02  0.88294891866E+01 -0.46253049592E+02  0.76760675630E+02  0.00000000000E+00 0.  1.
         22    1    3    3    0    0 -0.18627827652E+02  0.22279909381E+02  0.51141146704E+02  0.58811624797E+02  0.00000000000E+00 0.  1.
</event>
<event>
 7    1  0.5593520E-006  0.6736075E+02  0.7818608E-02  0.1402719E+00
          2   -1    0    0  502    0  0.00000000000E+00  0.00000000000E+00  0.12911262783E+03  0.12911262783E+03  0.00000000000E+00 0. -1.
          1   -1    0    0  501    0 -0.00000000000E+00 -0.00000000000E+00 -0.18420868051E+03  0.18420868051E+03  0.00000000000E+00 0. -1.
         25    2    1    2    0    0 -0.37108659852E+02  0.17534213094E+02 -0.38683669040E+02  0.13713931250E+03  0.12500505397E+03 0.  0.
          2    1    1    2  501    0  0.78518052374E+02  0.12943106817E+02 -0.67018735788E+02  0.10403902878E+03  0.00000000000E+00 0. -1.
          1    1    1    2  502    0 -0.41409392522E+02 -0.30477319912E+02  0.50606352144E+02  0.72142967054E+02  0.00000000000E+00 0. -1.
         22    1    3    3    0    0 -0.12044709422E+02 -0.53000095287E+02 -0.29162983393E+02  0.61681153733E+02  0.00000000000E+00 0. -1.
         22    1    3    3    0    0 -0.25063950429E+02  0.70534308381E+02 -0.95206856478E+01  0.75458158771E+02  0.00000000000E+00 0. -1.
</event>
<event>
 7    1  0.5593520E-006  0.7569328E+02  0.7818608E-02  0.1387700E+00
          2   -1    0    0  502    0  0.00000000000E+00  0.00000000000E+00  0.61152581918E+03  0.61152581918E+03  0.00000000000E+00 0. -1.
          1   -1    0    0  501    0 -0.00000000000E+00 -0.00000000000E+00 -0.47962434286E+03  0.47962434286E+03  0.00000000000E+00 0. -1.
         25    2    1    2    0    0  0.74971667356E+02 -0.93967053992E+02 -0.15592680939E+02  0.17414903982E+03  0.12503678750E+03 0.  0.
          2    1    1    2  501    0 -0.58467197543E+02  0.45102028795E+02 -0.37994103181E+03  0.38705011800E+03  0.00000000000E+00 0. -1.
          1    1    1    2  502    0 -0.16504469813E+02  0.48865025197E+02  0.52743518907E+03  0.52995100423E+03  0.00000000000E+00 0. -1.
         22    1    3    3    0    0 -0.26889979450E+01  0.27326819489E+02  0.70624062551E+01  0.28352484114E+02  0.00000000000E+00 0. -1.
         22    1    3    3    0    0  0.77660665301E+02 -0.12129387348E+03 -0.22655087194E+02  0.14579655570E+03  0.00000000000E+00 0. -1.
</event>
<event>
 7    1  0.5593520E-006  0.5801282E+02  0.7818608E-02  0.1456114E+00
          2   -1    0    0  502    0  0.00000000000E+00  0.00000000000E+00  0.27602495660E+03  0.27602495660E+03  0.00000000000E+00 0. -1.
          1   -1    0    0  501    0 -0.00000000000E+00 -0.00000000000E+00 -0.26270014370E+04  0.26270014370E+04  0.00000000000E+00 0. -1.
         25    2    1    2    0    0 -0.26240543424E+02 -0.94857148909E+01 -0.48619303335E+03  0.50278086961E+03  0.12500556896E+03 0.  0.
          2    1    1    2  501    0  0.35263270277E+02  0.48259062551E+02 -0.21306132419E+04  0.21314514356E+04  0.00000000000E+00 0. -1.
          1    1    1    2  502    0 -0.90227268528E+01 -0.38773347660E+02  0.26582979493E+03  0.26879408840E+03  0.00000000000E+00 0. -1.
         22    1    3    3    0    0 -0.37959636947E+02 -0.35829416825E+02 -0.79734382872E+02  0.95300854976E+02  0.00000000000E+00 0. -1.
         22    1    3    3    0    0  0.11719093523E+02  0.26343701934E+02 -0.40645865047E+03  0.40748001464E+03  0.00000000000E+00 0. -1.
</event>
<event>
 7    1  0.5593520E-006  0.9484734E+02  0.7818608E-02  0.1305486E+00
          2   -1    0    0  502    0  0.00000000000E+00  0.00000000000E+00  0.74077422963E+03  0.74077422963E+03  0.00000000000E+00 0. -1.
          1   -1    0    0  501    0 -0.00000000000E+00 -0.00000000000E+00 -0.55629327039E+03  0.55629327039E+03  0.00000000000E+00 0. -1.
         25    2    1    2    0    0  0.47301190667E+02  0.98182900619E+02 -0.14327851311E+03  0.21917292704E+03  0.12502301794E+03 0.  0.
          2    1    1    2  501    0 -0.82784319876E+02 -0.98219340449E+01 -0.36714812116E+03  0.37649363457E+03  0.00000000000E+00 0. -1.
          1    1    1    2  502    0  0.35483129209E+02 -0.88360966574E+02  0.69490759351E+03  0.70140093840E+03  0.00000000000E+00 0. -1.
         22    1    3    3    0    0 -0.31179365985E+02 -0.84726125167E+01 -0.38861769889E+02  0.50538848275E+02  0.00000000000E+00 0. -1.
         22    1    3    3    0    0  0.78480556652E+02  0.10665551314E+03 -0.10441674322E+03  0.16863407876E+03  0.00000000000E+00 0. -1.
</event>
<event>
 7    1  0.5593520E-006  0.9777174E+02  0.7818608E-02  0.1436739E+00
          2   -1    0    0  502    0  0.00000000000E+00  0.00000000000E+00  0.17153155129E+04  0.17153155129E+04  0.00000000000E+00 0. -1.
          1   -1    0    0  501    0 -0.00000000000E+00 -0.00000000000E+00 -0.14245524632E+04  0.14245524632E+04  0.00000000000E+00 0. -1.
         25    2    1    2    0    0  0.65252589755E+02 -0.81697926763E+02  0.93527037128E+02  0.18789599524E+03  0.12500058658E+03 0.  0.
          2    1    1    2  501    0 -0.78682347056E+02  0.57970080317E+02 -0.13755160404E+04  0.13789836182E+04  0.00000000000E+00 0. -1.
          1    1    1    2  502    0  0.13429757301E+02  0.23727846447E+02  0.15727520529E+04  0.15729883626E+04  0.00000000000E+00 0. -1.
         22    1    3    3    0    0 -0.12241758902E+01 -0.47676870619E+02 -0.20239883281E+02  0.51809607930E+02  0.00000000000E+00 0. -1.
         22    1    3    3    0    0  0.66476765646E+02 -0.34021056144E+02  0.11376692041E+03  0.13608638731E+03  0.00000000000E+00 0. -1.
</event>
<event>
 7    1  0.5593520E-006  0.6891372E+02  0.7818608E-02  0.1383687E+00
          2   -1    0    0  502    0  0.00000000000E+00  0.00000000000E+00  0.27873773331E+04  0.27873773331E+04  0.00000000000E+00 0. -1.
          1   -1    0    0  501    0 -0.00000000000E+00 -0.00000000000E+00 -0.63368334654E+02  0.63368334654E+02  0.00000000000E+00 0. -1.
         25    2    1    2    0    0 -0.71021254908E+02 -0.10257204961E+03  0.69200565285E+03  0.71418687767E+03  0.12500411452E+03 0.  0.
          2    1    1    2  501    0  0.33600758073E+02  0.47911743668E+02 -0.35202584305E+02  0.68291786227E+02  0.00000000000E+00 0. -1.
          1    1    1    2  502    0  0.37420496835E+02  0.54660305946E+02  0.20672059299E+04  0.20682670039E+04  0.00000000000E+00 0. -1.
         22    1    3    3    0    0 -0.10040037124E+03 -0.52471262274E+02  0.36888919060E+03  0.38589208705E+03  0.00000000000E+00 0. -1.
         22    1    3    3    0    0  0.29379116329E+02 -0.50100787340E+02  0.32311646225E+03  0.32829479062E+03  0.00000000000E+00 0. -1.
</event>
<event>
 7    1  0.5593520E-006  0.1191007E+03  0.7818608E-02  0.1295843E+00
          2   -1    0    0  502    0  0.00000000000E+00  0.00000000000E+00  0.32615451493E+04  0.32615451493E+04  0.00000000000E+00 0. -1.
          1   -1    0    0  501    0 -0.00000000000E+00 -0.00000000000E+00 -0.11227530890E+04  0.11227530890E+04  0.00000000000E+00 0. -1.
         25    2    1    2    0    0  0.48254855085E+02  0.83769280144E+02  0.23965057747E+03  0.28705920303E+03  0.12499905372E+03 0.  0.
          2    1    1    2  501    0 -0.62650061929E+02  0.36591806382E+02 -0.10966243121E+04  0.10990217797E+04  0.00000000000E+00 0. -1.
          1    1    1    2  502    0  0.14395206844E+02 -0.12036108653E+03  0.29957657949E+04  0.29982172554E+04  0.00000000000E+00 0. -1.
         22    1    3    3    0    0  0.89201163473E+02  0.68098675091E+02  0.19132318990E+03  0.22180811551E+03  0.00000000000E+00 0.  1.
         22    1    3    3    0    0 -0.40946308388E+02  0.15670605053E+02  0.48327387570E+02  0.65251087521E+02  0.00000000000E+00 0.  1.
</event>
<event>
 7    1  0.5593520E-006  0.1208023E+03  0.7818608E-02  0.1435460E+00
          2   -1    0    0  502    0  0.00000000000E+00  0.00000000000E+00  0.61812224530E+03  0.61812224530E+03  0.00000000000E+00 0. -1.
          1   -1    0    0  501    0 -0.00000000000E+00 -0.00000000000E+00 -0.55314515233E+03  0.55314515233E+03  0.00000000000E+00 0. -1.
         25    2    1    2    0    0 -0.44318218307E+01 -0.12700398209E+03 -0.17731341090E+03  0.25142564978E+03  0.12500063667E+03 0.  0.
          2    1    1    2  501    0  0.20989288684E+02  0.74731293167E+01 -0.33213326031E+03  0.33287970876E+03  0.00000000000E+00 0. -1.
          1    1    1    2  502    0 -0.16557466853E+02  0.11953085277E+03  0.57442376418E+03  0.58696203908E+03  0.00000000000E+00 0. -1.
         22    1    3    3    0    0  0.32712293165E+02 -0.13517151522E+03 -0.15033149921E+03  0.20479500069E+03  0.00000000000E+00 0.  1.
         22    1    3    3    0    0 -0.37144114995E+02  0.81675331297E+01 -0.26981911691E+02  0.46630649092E+02  0.00000000000E+00 0.  1.
</event>
<event>
 7    1  0.5593520E-006  0.7419634E+02  0.7818608E-02  0.1497066E+00
          2   -1    0    0  502    0  0.00000000000E+00  0.00000000000E+00  0.12180176565E+04  0.12180176565E+04  0.00000000000E+00 0. -1.
          1   -1    0    0  501    0 -0.00000000000E+00 -0.00000000000E+00 -0.35104146962E+03  0.35104146962E+03  0.00000000000E+00 0. -1.
         25    2    1    2    0    0 -0.44660397360E+02  0.54203369816E+02  0.55904254899E+03  0.57713629978E+03  0.12500072223E+03 0.  0.
          2    1    1    2  501    0  0.16641687660E+02  0.16271063189E+02 -0.33938224161E+03  0.34017936326E+03  0.00000000000E+00 0. -1.
          1    1    1    2  502    0  0.28018709700E+02 -0.70474433005E+02  0.64731587947E+03  0.65174346304E+03  0.00000000000E+00 0. -1.
         22    1    3    3    0    0  0.35340921296E+02  0.26065819442E+02  0.32979107246E+03  0.33270190732E+03  0.00000000000E+00 0.  1.
         22    1    3    3    0    0 -0.80001318657E+02  0.28137550374E+02  0.22925147653E+03  0.24443439246E+03  0.00000000000E+00 0.  1.
</event>
<event>
 7    1  0.5593520E-006  0.4398200E+02  0.7818608E-02  0.1484297E+00
          2   -1    0    0  502    0  0.00000000000E+00  0.00000000000E+00  0.34926673329E+04  0.34926673329E+04  0.00000000000E+00 0. -1.
          1   -1    0    0  501    0 -0.00000000000E+00 -0.00000000000E+00 -0.31962433028E+03  0.31962433028E+03  0.00000000000E+00 0. -1.
         25    2    1    2    0    0 -0.59158321159E+02  0.74350166655E+01  0.38167770875E+03  0.40602703975E+03  0.12500038887E+03 0.  0.
          2    1    1    2  501    0  0.24841708543E+02 -0.34990844405E+02 -0.30579518679E+03  0.30879146028E+03  0.00000000000E+00 0. -1.
          1    1    1    2  502    0  0.34316612616E+02  0.27555827740E+02  0.30971604806E+04  0.30974731631E+04  0.00000000000E+00 0. -1.
         22    1    3    3    0    0  0.11481701095E+02 -0.24575854485E+02  0.26210992515E+03  0.26350980047E+03  0.00000000000E+00 0.  1.
         22    1    3    3    0    0 -0.70640022254E+02  0.32010871151E+02  0.11956778360E+03  0.14251723927E+03  0.00000000000E+00 0.  1.
</event>
<event>
 7    1  0.5593520E-006  0.4401070E+02  0.7818608E-02  0.1515842E+00
          2   -1    0    0  502    0  0.00000000000E+00  0.00000000000E+00  0.71985328780E+03  0.71985328780E+03  0.00000000000E+00 0. -1.
          1   -1    0    0  501    0 -0.00000000000E+00 -0.00000000000E+00 -0.57456126231E+03  0.57456126231E+03  0.00000000000E+00 0. -1.
         25    2    1    2    0    0 -0.13673223720E+02 -0.48923133394E+02  0.85476216771E+02  0.15972446090E+03  0.12500115899E+03 0.  0.
          2    1    1    2  501    0 -0.23570492740E+02  0.25230361889E+02 -0.53606540441E+03  0.53717618813E+03  0.00000000000E+00 0. -1.
          1    1    1    2  502    0  0.37243716461E+02  0.23692771504E+02  0.59588121312E+03  0.59751390108E+03  0.00000000000E+00 0. -1.
         22    1    3    3    0    0 -0.42645550775E+02 -0.23693545479E+02 -0.15901387345E+02  0.51311608996E+02  0.00000000000E+00 0.  1.
         22    1    3    3    0    0  0.28972327055E+02 -0.25229587915E+02  0.10137760412E+03  0.10841285190E+03  0.00000000000E+00 0.  1.
</event>
<event>
 7    1  0.5593520E-006  0.8892160E+02  0.7818608E-02  0.1372177E+00
          2   -1    0    0  502    0  0.00000000000E+00  0.00000000000E+00  0.12351660577E+04  0.12351660577E+04  0.00000000000E+00 0. -1.
          1   -1    0    0  501    0 -0.00000000000E+00 -0.00000000000E+00 -0.25513290420E+03  0.25513290420E+03  0.00000000000E+00 0. -1.
         25    2    1    2    0    0  0.75715185638E+02  0.31041853564E+02  0.24089067377E+03  0.28346215959E+03  0.12500437273E+03 0.  0.
          2    1    1    2  501    0 -0.87904853010E+02  0.17274702778E+02 -0.22459973746E+03  0.24180719717E+03  0.00000000000E+00 0. -1.
          1    1    1    2  502    0  0.12189667371E+02 -0.48316556341E+02  0.96374221723E+03  0.96502960518E+03  0.00000000000E+00 0. -1.
         22    1    3    3    0    0 -0.28940644238E+02  0.15372171335E+02  0.19634689147E+02  0.38201905167E+02  0.00000000000E+00 0.  1.
         22    1    3    3    0    0  0.10465582988E+03  0.15669682229E+02  0.22125598462E+03  0.24526025442E+03  0.00000000000E+00 0.  1.
</event>
<event>
 7    1  0.5593520E-006  0.1144676E+03  0.7818608E-02  0.1411711E+00
          2   -1    0    0  502    0  0.00000000000E+00  0.00000000000E+00  0.26099401874E+04  0.26099401874E+04  0.00000000000E+00 0. -1.
          1   -1    0    0  501    0 -0.00000000000E+00 -0.00000000000E+00 -0.22078998158E+03  0.22078998158E+03  0.00000000000E+00 0. -1.
         25    2    1    2    0    0 -0.13906588889E+03 -0.49986693347E+01  0.61842001207E+03  0.64609126592E+03  0.12500521761E+03 0.  0.
          2    1    1    2  501    0  0.27406751604E+02  0.66351628966E+01 -0.20440926783E+03  0.20634510946E+03  0.00000000000E+00 0. -1.
          1    1    1    2  502    0  0.11165913729E+03 -0.16364935618E+01  0.19751394616E+04  0.19782937936E+04  0.00000000000E+00 0. -1.
         22    1    3    3    0    0  0.11939033954E+02  0.12218305167E+02  0.11900466091E+02  0.20819428573E+02  0.00000000000E+00 0. -1.
         22    1    3    3    0    0 -0.15100492284E+03 -0.17216974502E+02  0.60651954598E+03  0.62527183735E+03  0.00000000000E+00 0. -1.
</event>
<event>
 7    1  0.5593520E-006  0.5843884E+02  0.7818608E-02  0.1532999E+00
          2   -1    0    0  502    0  0.00000000000E+00  0.00000000000E+00  0.61553086893E+02  0.61553086893E+02  0.00000000000E+00 0. -1.
          1   -1    0    0  501    0 -0.00000000000E+00 -0.00000000000E+00 -0.14465971866E+04  0.14465971866E+04  0.00000000000E+00 0. -1.
         25    2    1    2    0    0 -0.69056909755E+02  0.40264703673E+02 -0.25162035462E+03  0.29210861949E+03  0.12499815827E+03 0.  0.
          2    1    1    2  501    0  0.21074114044E+02 -0.97020751443E+01 -0.11549741211E+04  0.11552071108E+04  0.00000000000E+00 0. -1.
          1    1    1    2  502    0  0.47982795711E+02 -0.30562628529E+02  0.21550375941E+02  0.60834543231E+02  0.00000000000E+00 0. -1.
         22    1    3    3    0    0  0.32349626124E+02 -0.83365654779E+01 -0.37259676470E+02  0.50042782946E+02  0.00000000000E+00 0. -1.
         22    1    3    3    0    0 -0.10140653588E+03  0.48601269151E+02 -0.21436067815E+03  0.24206583654E+03  0.00000000000E+00 0. -1.
</event>
<event>
 7    1  0.5593520E-006  0.1923992E+03  0.7818608E-02  0.1220521E+00
          2   -1    0    0  502    0  0.00000000000E+00  0.00000000000E+00  0.67863067998E+03  0.67863067998E+03  0.00000000000E+00 0. -1.
          1   -1    0    0  501    0 -0.00000000000E+00 -0.00000000000E+00 -0.10533534468E+04  0.10533534468E+04  0.00000000000E+00 0. -1.
         25    2    1    2    0    0  0.39837518175E+02  0.23850583664E+03 -0.60723474888E+03  0.66545557983E+03  0.12500010607E+03 0.  0.
          2    1    1    2  501    0  0.58587147295E+02 -0.74053165665E+02 -0.39721393793E+03  0.40828328114E+03  0.00000000000E+00 0. -1.
          1    1    1    2  502    0 -0.98424665470E+02 -0.16445267097E+03  0.62972591995E+03  0.65824526585E+03  0.00000000000E+00 0. -1.
         22    1    3    3    0    0  0.56118332344E+02  0.15143551068E+03 -0.25173264010E+03  0.29908410725E+03  0.00000000000E+00 0. -1.
         22    1    3    3    0    0 -0.16280814170E+02  0.87070325960E+02 -0.35550210878E+03  0.36637147258E+03  0.00000000000E+00 0. -1.
</event>
<event>
 7    1  0.5593520E-006  0.2161094E+03  0.7818608E-02  0.1169561E+00
          2   -1    0    0  502    0  0.00000000000E+00  0.00000000000E+00  0.21607373455E+04  0.21607373455E+04  0.00000000000E+00 0. -1.
          1   -1    0    0  501    0 -0.00000000000E+00 -0.00000000000E+00 -0.46584661485E+03  0.46584661485E+03  0.00000000000E+00 0. -1.
         25    2    1    2    0    0 -0.84535587827E+02 -0.94201348375E+02  0.44095551201E+03  0.47548734250E+03  0.12500515853E+03 0.  0.
          2    1    1    2  501    0 -0.10058415575E+03 -0.10710719388E+03 -0.42518146348E+03  0.44985375430E+03  0.00000000000E+00 0. -1.
          1    1    1    2  502    0  0.18511974358E+03  0.20130854226E+03  0.16791166821E+04  0.17012428635E+04  0.00000000000E+00 0. -1.
         22    1    3    3    0    0 -0.39639438858E+02 -0.11762967046E+03  0.35035451789E+03  0.37169384268E+03  0.00000000000E+00 0.  1.
         22    1    3    3    0    0 -0.44896148969E+02  0.23428322083E+02  0.90600994128E+02  0.10379349982E+03  0.00000000000E+00 0.  1.
</event>
<event>
 7    1  0.5593520E-006  0.6711203E+02  0.7818608E-02  0.1480115E+00
          2   -1    0    0  502    0  0.00000000000E+00  0.00000000000E+00  0.53055843407E+03  0.53055843407E+03  0.00000000000E+00 0. -1.
          1   -1    0    0  501    0 -0.00000000000E+00 -0.00000000000E+00 -0.27369006199E+03  0.27369006199E+03  0.00000000000E+00 0. -1.
         25    2    1    2    0    0 -0.41928106369E+02 -0.28447816849E+01 -0.72191482057E+01  0.13209048590E+03  0.12501888448E+03 0.  0.
          2    1    1    2  501    0 -0.25129613377E+02  0.14400038516E+02 -0.20051648143E+03  0.20259742818E+03  0.00000000000E+00 0. -1.
          1    1    1    2  502    0  0.67057719746E+02 -0.11555256831E+02  0.46460400172E+03  0.46956058198E+03  0.00000000000E+00 0. -1.
         22    1    3    3    0    0 -0.53479983449E+02  0.14775138671E+02  0.47762768440E+02  0.73209940592E+02  0.00000000000E+00 0. -1.
         22    1    3    3    0    0  0.11551877080E+02 -0.17619920356E+02 -0.54981916645E+02  0.58880545305E+02  0.00000000000E+00 0. -1.
</event>
<event>
 7    1  0.5593520E-006  0.9025006E+02  0.7818608E-02  0.1427529E+00
          2   -1    0    0  502    0  0.00000000000E+00  0.00000000000E+00  0.89034262468E+03  0.89034262468E+03  0.00000000000E+00 0. -1.
          1   -1    0    0  501    0 -0.00000000000E+00 -0.00000000000E+00 -0.20750907413E+03  0.20750907413E+03  0.00000000000E+00 0. -1.
         25    2    1    2    0    0  0.11145041798E+02 -0.99580580287E+02 -0.76561239229E+02  0.17755923879E+03  0.12500062400E+03 0.  0.
          2    1    1    2  501    0  0.17141031940E+02  0.85344891998E+02 -0.56503670445E+02  0.10377972027E+03  0.00000000000E+00 0. -1.
          1    1    1    2  502    0 -0.28286073738E+02  0.14235688289E+02  0.81589846022E+03  0.81651273975E+03  0.00000000000E+00 0. -1.
         22    1    3    3    0    0  0.30400920017E+02 -0.11966847293E+03 -0.83283213167E+02  0.14893237709E+03  0.00000000000E+00 0.  1.
         22    1    3    3    0    0 -0.19255878219E+02  0.20087892644E+02  0.67219739379E+01  0.28626861694E+02  0.00000000000E+00 0.  1.
</event>
<event>
 7    1  0.5593520E-006  0.7463728E+02  0.7818608E-02  0.1397504E+00
          2   -1    0    0  502    0  0.00000000000E+00  0.00000000000E+00  0.66521414736E+02  0.66521414736E+02  0.00000000000E+00 0. -1.
          1   -1    0    0  501    0 -0.00000000000E+00 -0.00000000000E+00 -0.50348088081E+03  0.50348088081E+03  0.00000000000E+00 0. -1.
         25    2    1    2    0    0  0.35959439027E+01  0.42285591585E+02 -0.20149162069E+03  0.24088425267E+03  0.12500139162E+03 0.  0.
          2    1    1    2  501    0 -0.34084939856E+02 -0.79822258367E+02 -0.26056068404E+03  0.27463657099E+03  0.00000000000E+00 0. -1.
          1    1    1    2  502    0  0.30488995953E+02  0.37536666782E+02  0.25092838659E+02  0.54481471891E+02  0.00000000000E+00 0. -1.
         22    1    3    3    0    0  0.27318949063E+02 -0.37403933919E+02 -0.50580367435E+02  0.68583910798E+02  0.00000000000E+00 0.  1.
         22    1    3    3    0    0 -0.23723005161E+02  0.79689525503E+02 -0.15091125326E+03  0.17230034187E+03  0.00000000000E+00 0.  1.
</event>
<event>
 7    1  0.5593520E-006  0.6644264E+02  0.7818608E-02  0.1381679E+00
          2   -1    0    0  502    0  0.00000000000E+00  0.00000000000E+00  0.29609465925E+03  0.29609465925E+03  0.00000000000E+00 0. -1.
          1   -1    0    0  501    0 -0.00000000000E+00 -0.00000000000E+00 -0.13870154849E+03  0.13870154849E+03  0.00000000000E+00 0. -1.
         25    2    1    2    0    0 -0.13445173412E+01  0.20095648654E+01  0.31213508072E+01  0.12506661121E+03  0.12500427325E+03 0.  0.
          2    1    1    2  501    0  0.48605984396E+02  0.45299921777E+02 -0.57364399575E+02  0.87779832368E+02  0.00000000000E+00 0. -1.
          1    1    1    2  502    0 -0.47261467054E+02 -0.47309486642E+02  0.21163615952E+03  0.22194976416E+03  0.00000000000E+00 0. -1.
         22    1    3    3    0    0  0.26219380868E+01 -0.60775706003E+02  0.10476143888E+02  0.61727713308E+02  0.00000000000E+00 0. -1.
         22    1    3    3    0    0 -0.39664554280E+01  0.62785270868E+02 -0.73547930812E+01  0.63338897906E+02  0.00000000000E+00 0. -1.
</event>
<event>
 7    1  0.7263696E-006  0.1406185E+03  0.7818608E-02  0.1293236E+00
          2   -1    0    0  502    0  0.00000000000E+00  0.00000000000E+00  0.17243552885E+04  0.17243552885E+04  0.00000000000E+00 0. -1.
          1   -1    0    0  501    0 -0.00000000000E+00 -0.00000000000E+00 -0.12449094456E+04  0.12449094456E+04  0.00000000000E+00 0. -1.
         25    2    1    2    0    0 -0.40140928111E+02  0.12939210671E+03 -0.17865741527E+03  0.25670375484E+03  0.12499893733E+03 0.  0.
          2    1    1    2  501    0  0.97797807224E+02 -0.10410374794E+03 -0.10216709815E+04  0.10316072877E+04  0.00000000000E+00 0. -1.
          1    1    1    2  502    0 -0.57656879113E+02 -0.25288358773E+02  0.16797742398E+04  0.16809536916E+04  0.00000000000E+00 0. -1.
         22    1    3    3    0    0 -0.58715694901E+02  0.80315643320E+02 -0.17835723861E+03  0.20422889109E+03  0.00000000000E+00 0. -1.
         22    1    3    3    0    0  0.18574766790E+02  0.49076463388E+02 -0.30017665357E+00  0.52474863754E+02  0.00000000000E+00 0. -1.
</event>
<event>
 7    1  0.5593520E-006  0.2250057E+03  0.7818608E-02  0.1299779E+00
          2   -1    0    0  502    0  0.00000000000E+00  0.00000000000E+00  0.42198303224E+03  0.42198303224E+03  0.00000000000E+00 0. -1.
          1   -1    0    0  501    0 -0.00000000000E+00 -0.00000000000E+00 -0.67954007440E+03  0.67954007440E+03  0.00000000000E+00 0. -1.
         25    2    1    2    0    0 -0.42241252576E+02  0.25307443423E+03 -0.12439314120E+03  0.31133473808E+03  0.12499869151E+03 0.  0.
          2    1    1    2  501    0  0.89072984845E+01 -0.35944022069E+02 -0.42405507006E+03  0.42566890318E+03  0.00000000000E+00 0. -1.
          1    1    1    2  502    0  0.33333954091E+02 -0.21713041216E+03  0.29089116911E+03  0.36451946538E+03  0.00000000000E+00 0. -1.
         22    1    3    3    0    0  0.77602319204E+00 -0.13659158431E+02 -0.13690340319E+02  0.19354592197E+02  0.00000000000E+00 0. -1.
         22    1    3    3    0    0 -0.43017275768E+02  0.26673359266E+03 -0.11070280089E+03  0.29198014588E+03  0.00000000000E+00 0. -1.
</event>
<event>
 7    1  0.5593520E-006  0.6268016E+02  0.7818608E-02  0.1456018E+00
          2   -1    0    0  502    0  0.00000000000E+00  0.00000000000E+00  0.64457141475E+03  0.64457141475E+03  0.00000000000E+00 0. -1.
          1   -1    0    0  501    0 -0.00000000000E+00 -0.00000000000E+00 -0.20542328874E+03  0.20542328874E+03  0.00000000000E+00 0. -1.
         25    2    1    2    0    0 -0.48445570187E+02  0.80516926654E+02 -0.64783571915E+02  0.16926789028E+03  0.12499903497E+03 0.  0.
          2    1    1    2  501    0  0.30300874407E+02 -0.48419818796E+02 -0.78526265587E+02  0.97103018641E+02  0.00000000000E+00 0. -1.
          1    1    1    2  502    0  0.18144695780E+02 -0.32097107858E+02  0.58245796351E+03  0.58362379456E+03  0.00000000000E+00 0. -1.
         22    1    3    3    0    0  0.11031772478E+01 -0.26613070028E+02 -0.40952497619E+02  0.48852631021E+02  0.00000000000E+00 0. -1.
         22    1    3    3    0    0 -0.49548747435E+02  0.10712999668E+03 -0.23831074296E+02  0.12041525926E+03  0.00000000000E+00 0. -1.
</event>
<event>
 7    1  0.5593520E-006  0.4802121E+02  0.7818608E-02  0.1551299E+00
          2   -1    0    0  502    0  0.00000000000E+00  0.00000000000E+00  0.19189668549E+04  0.19189668549E+04  0.00000000000E+00 0. -1.
          1   -1    0    0  501    0 -0.00000000000E+00 -0.00000000000E+00 -0.14709737662E+03  0.14709737662E+03  0.00000000000E+00 0. -1.
         25    2    1    2    0    0  0.42887084405E+02 -0.21978063174E+02 -0.43941336358E+02  0.14098891869E+03  0.12499878753E+03 0.  0.
          2    1    1    2  501    0  0.50864622840E+01  0.24549898086E+02 -0.51430551374E+02  0.57216004835E+02  0.00000000000E+00 0. -1.
          1    1    1    2  502    0 -0.47973546689E+02 -0.25718349119E+01  0.18672413660E+04  0.18678593080E+04  0.00000000000E+00 0. -1.
         22    1    3    3    0    0 -0.29903509615E+02 -0.25001674816E+02 -0.54885551458E+02  0.67318105958E+02  0.00000000000E+00 0.  1.
         22    1    3    3    0    0  0.72790594021E+02  0.30236116414E+01  0.10944215099E+02  0.73670812737E+02  0.00000000000E+00 0.  1.
</event>
<event>
 7    1  0.5593520E-006  0.9414055E+02  0.7818608E-02  0.1369496E+00
          2   -1    0    0  502    0  0.00000000000E+00  0.00000000000E+00  0.20251022833E+03  0.20251022833E+03  0.00000000000E+00 0. -1.
          1   -1    0    0  501    0 -0.00000000000E+00 -0.00000000000E+00 -0.14005024051E+04  0.14005024051E+04  0.00000000000E+00 0. -1.
         25    2    1    2    0    0 -0.56228330385E+02  0.39819736593E+02 -0.35505147113E+03  0.38266639969E+03  0.12499915895E+03 0.  0.
          2    1    1    2  501    0  0.14620165017E+02  0.45847920836E+02 -0.10190228809E+04  0.10201585234E+04  0.00000000000E+00 0. -1.
          1    1    1    2  502    0  0.41608165368E+02 -0.85667657429E+02  0.17608217522E+03  0.20018771038E+03  0.00000000000E+00 0. -1.
         22    1    3    3    0    0  0.10622233971E+02 -0.12822302298E+02 -0.23460951466E+03  0.23519963363E+03  0.00000000000E+00 0. -1.
         22    1    3    3    0    0 -0.66850564356E+02  0.52642038891E+02 -0.12044195647E+03  0.14746676606E+03  0.00000000000E+00 0. -1.
</event>
<event>
 7    1  0.5593520E-006  0.5472489E+02  0.7818608E-02  0.1500464E+00
          2   -1    0    0  502    0  0.00000000000E+00  0.00000000000E+00  0.19913937221E+04  0.19913937221E+04  0.00000000000E+00 0. -1.
          1   -1    0    0  501    0 -0.00000000000E+00 -0.00000000000E+00 -0.75522765775E+02  0.75522765775E+02  0.00000000000E+00 0. -1.
         25    2    1    2    0    0  0.50957939181E+02 -0.66321559382E+01  0.49214522165E+02  0.14383199104E+03  0.12499950158E+03 0.  0.
          2    1    1    2  501    0 -0.17364666755E+01  0.30777070118E+02 -0.19275135859E+02  0.36356213003E+02  0.00000000000E+00 0. -1.
          1    1    1    2  502    0 -0.49221472506E+02 -0.24144914180E+02  0.18859315701E+04  0.18867282839E+04  0.00000000000E+00 0. -1.
         22    1    3    3    0    0  0.52183041582E+02  0.29274780507E-01 -0.32736509256E+02  0.61601539949E+02  0.00000000000E+00 0.  1.
         22    1    3    3    0    0 -0.12251024008E+01 -0.66614307188E+01  0.81951031420E+02  0.82230451087E+02  0.00000000000E+00 0.  1.
</event>
<event>
 7    1  0.5593520E-006  0.1291225E+03  0.7818608E-02  0.1251724E+00
          2   -1    0    0  502    0  0.00000000000E+00  0.00000000000E+00  0.18095500451E+04  0.18095500451E+04  0.00000000000E+00 0. -1.
          1   -1    0    0  501    0 -0.00000000000E+00 -0.00000000000E+00 -0.39709656493E+03  0.39709656493E+03  0.00000000000E+00 0. -1.
         25    2    1    2    0    0  0.11332558013E+03 -0.16868211825E+03  0.34355162579E+03  0.41826859324E+03  0.12499820949E+03 0.  0.
          2    1    1    2  501    0 -0.10871172872E+03  0.66509490385E+02 -0.34654752331E+03  0.36923832166E+03  0.00000000000E+00 0. -1.
          1    1    1    2  502    0 -0.46138514130E+01  0.10217262786E+03  0.14154493777E+04  0.14191396951E+04  0.00000000000E+00 0. -1.
         22    1    3    3    0    0 -0.11648704975E+02 -0.72743067928E+02  0.16149249250E+03  0.17750231377E+03  0.00000000000E+00 0.  1.
         22    1    3    3    0    0  0.12497428511E+03 -0.95939050319E+02  0.18205913329E+03  0.24076627947E+03  0.00000000000E+00 0.  1.
</event>
<event>
 7    1  0.5593520E-006  0.5026002E+02  0.7818608E-02  0.1480491E+00
          2   -1    0    0  502    0  0.00000000000E+00  0.00000000000E+00  0.45760243348E+03  0.45760243348E+03  0.00000000000E+00 0. -1.
          1   -1    0    0  501    0 -0.00000000000E+00 -0.00000000000E+00 -0.51217092061E+03  0.51217092061E+03  0.00000000000E+00 0. -1.
         25    2    1    2    0    0  0.16911797991E+02  0.16019492950E+02 -0.14614796844E+02  0.12798124757E+03  0.12499189724E+03 0.  0.
          2    1    1    2  501    0 -0.16188896637E+02  0.35010188664E+02 -0.43839855903E+03  0.44009213836E+03  0.00000000000E+00 0. -1.
          1    1    1    2  502    0 -0.72290135337E+00 -0.51029681614E+02  0.39844486874E+03  0.40169996816E+03  0.00000000000E+00 0. -1.
         22    1    3    3    0    0  0.43030859748E+02  0.61277735714E+02 -0.94863539581E+01  0.75475868304E+02  0.00000000000E+00 0. -1.
         22    1    3    3    0    0 -0.26119061758E+02 -0.45258242764E+02 -0.51284428863E+01  0.52505379264E+02  0.00000000000E+00 0. -1.
</event>
<event>
 7    1  0.5593520E-006  0.9418899E+02  0.7818608E-02  0.1311034E+00
          2   -1    0    0  502    0  0.00000000000E+00  0.00000000000E+00  0.67541256569E+03  0.67541256569E+03  0.00000000000E+00 0. -1.
          1   -1    0    0  501    0 -0.00000000000E+00 -0.00000000000E+00 -0.26779890865E+03  0.26779890865E+03  0.00000000000E+00 0. -1.
         25    2    1    2    0    0  0.40227860523E+02 -0.59361819913E+02  0.45493693209E+03  0.47721600188E+03  0.12500157539E+03 0.  0.
          2    1    1    2  501    0  0.49660147073E+02 -0.62484238060E+02 -0.22136105284E+03  0.23531070084E+03  0.00000000000E+00 0. -1.
          1    1    1    2  502    0 -0.89888007596E+02  0.12184605797E+03  0.17403777780E+03  0.23068477162E+03  0.00000000000E+00 0. -1.
         22    1    3    3    0    0  0.53718036631E+01  0.34489607994E+02  0.20540050549E+03  0.20834528310E+03  0.00000000000E+00 0.  1.
         22    1    3    3    0    0  0.34856056860E+02 -0.93851427908E+02  0.24953642660E+03  0.26887071878E+03  0.00000000000E+00 0.  1.
</event>
<event>
 7    1  0.5593520E-006  0.9559418E+02  0.7818608E-02  0.1401449E+00
          2   -1    0    0  502    0  0.00000000000E+00  0.00000000000E+00  0.26864306333E+03  0.26864306333E+03  0.00000000000E+00 0. -1.
          1   -1    0    0  501    0 -0.00000000000E+00 -0.00000000000E+00 -0.57253834439E+03  0.57253834439E+03  0.00000000000E+00 0. -1.
         25    2    1    2    0    0 -0.56985467299E+02 -0.22508624456E+02 -0.38324197102E+03  0.40774162904E+03  0.12499938416E+03 0.  0.
          2    1    1    2  501    0 -0.36589516721E+02 -0.65426363285E+00 -0.16592054434E+03  0.16990835126E+03  0.00000000000E+00 0. -1.
          1    1    1    2  502    0  0.93574984020E+02  0.23162888089E+02  0.24526723430E+03  0.26353142742E+03  0.00000000000E+00 0. -1.
         22    1    3    3    0    0 -0.11050935261E+02 -0.19398527853E+02 -0.59344742626E+00  0.22333343522E+02  0.00000000000E+00 0.  1.
         22    1    3    3    0    0 -0.45934532038E+02 -0.31100966026E+01 -0.38264852359E+03  0.38540828551E+03  0.00000000000E+00 0.  1.
</event>
<event>
 7    1  0.5593520E-006  0.1210262E+03  0.7818608E-02  0.1373975E+00
          2   -1    0    0  502    0  0.00000000000E+00  0.00000000000E+00  0.23124950830E+03  0.23124950830E+03  0.00000000000E+00 0. -1.
          1   -1    0    0  501    0 -0.00000000000E+00 -0.00000000000E+00 -0.11897950240E+04  0.11897950240E+04  0.00000000000E+00 0. -1.
         25    2    1    2    0    0 -0.73785095660E+02  0.56039242755E+02 -0.86101016784E+02  0.17782365046E+03  0.12499291381E+03 0.  0.
          2    1    1    2  501    0 -0.35566695215E+02  0.60246900313E+01 -0.10361628755E+04  0.10367906207E+04  0.00000000000E+00 0. -1.
          1    1    1    2  502    0  0.10935179087E+03 -0.62063932786E+02  0.16371837651E+03  0.20643026117E+03  0.00000000000E+00 0. -1.
         22    1    3    3    0    0 -0.43877308854E+02  0.39373669919E+01  0.25629290810E+02  0.50966475634E+02  0.00000000000E+00 0.  1.
         22    1    3    3    0    0 -0.29907786806E+02  0.52101875763E+02 -0.11173030759E+03  0.12685717483E+03  0.00000000000E+00 0.  1.
</event>
<event>
 7    1  0.5593520E-006  0.9926596E+02  0.7818608E-02  0.1335197E+00
          2   -1    0    0  502    0  0.00000000000E+00  0.00000000000E+00  0.10913680628E+04  0.10913680628E+04  0.00000000000E+00 0. -1.
          1   -1    0    0  501    0 -0.00000000000E+00 -0.00000000000E+00 -0.67074487962E+03  0.67074487962E+03  0.00000000000E+00 0. -1.
         25    2    1    2    0    0  0.83033620703E+02 -0.63548299114E+01  0.32623474241E+03  0.35915015781E+03  0.12499905066E+03 0.  0.
          2    1    1    2  501    0 -0.13945962223E+01 -0.61074948659E+02 -0.64910190202E+03  0.65197037775E+03  0.00000000000E+00 0. -1.
          1    1    1    2  502    0 -0.81639024481E+02  0.67429778570E+02  0.74349034274E+03  0.75099240682E+03  0.00000000000E+00 0. -1.
         22    1    3    3    0    0  0.10644887705E+03 -0.15227161861E+02  0.31272898142E+03  0.33070023542E+03  0.00000000000E+00 0. -1.
         22    1    3    3    0    0 -0.23415256348E+02  0.88723319498E+01  0.13505760990E+02  0.28449922390E+02  0.00000000000E+00 0. -1.
</event>
<event>
 7    1  0.5593520E-006  0.8051710E+02  0.7818608E-02  0.1362409E+00
          2   -1    0    0  502    0  0.00000000000E+00  0.00000000000E+00  0.41722476576E+03  0.41722476576E+03  0.00000000000E+00 0. -1.
          1   -1    0    0  501    0 -0.00000000000E+00 -0.00000000000E+00 -0.13050783789E+04  0.13050783789E+04  0.00000000000E+00 0. -1.
         25    2    1    2    0    0  0.85886827902E+02 -0.43274195999E+02  0.15021007514E+02  0.15842997211E+03  0.12500088859E+03 0.  0.
          2    1    1    2  501    0 -0.67345595820E+01  0.59304763970E+02 -0.12277045670E+04  0.12291545522E+04  0.00000000000E+00 0. -1.
          1    1    1    2  502    0 -0.79152268320E+02 -0.16030567971E+02  0.32482994642E+03  0.33471862030E+03  0.00000000000E+00 0. -1.
         22    1    3    3    0    0  0.81383471176E+01 -0.34558995616E+02 -0.46781512596E+02  0.58728756096E+02  0.00000000000E+00 0.  1.
         22    1    3    3    0    0  0.77748480784E+02 -0.87152003835E+01  0.61802520111E+02  0.99701216010E+02  0.00000000000E+00 0.  1.
</event>
<event>
 7    1  0.5593520E-006  0.1503760E+03  0.7818608E-02  0.1317972E+00
          2   -1    0    0  502    0  0.00000000000E+00  0.00000000000E+00  0.14951271686E+04  0.14951271686E+04  0.00000000000E+00 0. -1.
          1   -1    0    0  501    0 -0.00000000000E+00 -0.00000000000E+00 -0.78038530504E+02  0.78038530504E+02  0.00000000000E+00 0. -1.
         25    2    1    2    0    0 -0.16757235892E+03 -0.72472791514E+02  0.25556438587E+03  0.33803916132E+03  0.12499807309E+03 0.  0.
          2    1    1    2  501    0  0.24004382175E+02  0.40364752169E+02 -0.15107817336E+02  0.49333251727E+02  0.00000000000E+00 0. -1.
          1    1    1    2  502    0  0.14356797675E+03  0.32108039344E+02  0.11766320696E+04  0.11857932861E+04  0.00000000000E+00 0. -1.
         22    1    3    3    0    0 -0.16686758099E+03 -0.68174845185E+02  0.26905846549E+03  0.32385962539E+03  0.00000000000E+00 0.  1.
         22    1    3    3    0    0 -0.70477792804E+00 -0.42979463290E+01 -0.13494079619E+02  0.14179535935E+02  0.00000000000E+00 0.  1.
</event>
<event>
 7    1  0.5593520E-006  0.8054644E+02  0.7818608E-02  0.1412203E+00
          2   -1    0    0  502    0  0.00000000000E+00  0.00000000000E+00  0.22588275970E+02  0.22588275970E+02  0.00000000000E+00 0. -1.
          1   -1    0    0  501    0 -0.00000000000E+00 -0.00000000000E+00 -0.10169619773E+04  0.10169619773E+04  0.00000000000E+00 0. -1.
         25    2    1    2    0    0 -0.54862803420E+02  0.36414367079E+01 -0.50837229646E+03  0.52640486198E+03  0.12504599013E+03 0.  0.
          2    1    1    2  501    0  0.94585732158E+02  0.32872819824E+00 -0.44852550678E+03  0.45839033478E+03  0.00000000000E+00 0. -1.
          1    1    1    2  502    0 -0.39722928739E+02 -0.39701649061E+01 -0.37475898130E+02  0.54755056548E+02  0.00000000000E+00 0. -1.
         22    1    3    3    0    0 -0.70861908621E+02 -0.41082181524E+02 -0.39640423950E+03  0.40477830577E+03  0.00000000000E+00 0. -1.
         22    1    3    3    0    0  0.15999105201E+02  0.44723618232E+02 -0.11196805696E+03  0.12162655621E+03  0.00000000000E+00 0. -1.
</event>
<event>
 7    1  0.5593520E-006  0.1036061E+03  0.7818608E-02  0.1344339E+00
          2   -1    0    0  502    0  0.00000000000E+00  0.00000000000E+00  0.16990654109E+04  0.16990654109E+04  0.00000000000E+00 0. -1.
          1   -1    0    0  501    0 -0.00000000000E+00 -0.00000000000E+00 -0.44880720499E+03  0.44880720499E+03  0.00000000000E+00 0. -1.
         25    2    1    2    0    0  0.80937424910E+01 -0.10463679636E+03 -0.30586575610E+02  0.16605706925E+03  0.12500017528E+03 0.  0.
          2    1    1    2  501    0  0.45066007399E+02  0.94735416103E+02 -0.34217465574E+03  0.35789557013E+03  0.00000000000E+00 0. -1.
          1    1    1    2  502    0 -0.53159749890E+02  0.99013802556E+01  0.16230194373E+04  0.16239199765E+04  0.00000000000E+00 0. -1.
         22    1    3    3    0    0  0.34025970834E+02 -0.56642393133E+01 -0.51153310756E+02  0.61696932659E+02  0.00000000000E+00 0.  1.
         22    1    3    3    0    0 -0.25932228343E+02 -0.98972557046E+02  0.20566735147E+02  0.10436013659E+03  0.00000000000E+00 0.  1.
</event>
<event>
 7    1  0.5593520E-006  0.8200299E+02  0.7818608E-02  0.1405020E+00
          2   -1    0    0  502    0  0.00000000000E+00  0.00000000000E+00  0.73770623735E+03  0.73770623735E+03  0.00000000000E+00 0. -1.
          1   -1    0    0  501    0 -0.00000000000E+00 -0.00000000000E+00 -0.10794472300E+04  0.10794472300E+04  0.00000000000E+00 0. -1.
         25    2    1    2    0    0  0.33474015989E+02  0.39430180096E+02  0.15012657143E+02  0.13610692968E+03  0.12499787032E+03 0.  0.
          2    1    1    2  501    0  0.41402949509E+02 -0.24731548991E+01 -0.10158427214E+04  0.10166891144E+04  0.00000000000E+00 0. -1.
          1    1    1    2  502    0 -0.74876965497E+02 -0.36957025197E+02  0.65908907155E+03  0.66435742331E+03  0.00000000000E+00 0. -1.
         22    1    3    3    0    0  0.54887217799E+02 -0.95411337588E+01  0.47797612999E+02  0.73404711835E+02  0.00000000000E+00 0. -1.
         22    1    3    3    0    0 -0.21413201811E+02  0.48971313855E+02 -0.32784955856E+02  0.62702217847E+02  0.00000000000E+00 0. -1.
</event>
<event>
 7    1  0.5593520E-006  0.7673755E+02  0.7818608E-02  0.1434870E+00
          2   -1    0    0  502    0  0.00000000000E+00  0.00000000000E+00  0.65125712153E+03  0.65125712153E+03  0.00000000000E+00 0. -1.
          1   -1    0    0  501    0 -0.00000000000E+00 -0.00000000000E+00 -0.26223944055E+03  0.26223944055E+03  0.00000000000E+00 0. -1.
         25    2    1    2    0    0 -0.10074057152E+03  0.70655041549E+01  0.24974741531E+03  0.29697756190E+03  0.12499326668E+03 0.  0.
          2    1    1    2  501    0  0.31141316878E+02  0.16473292609E+02 -0.23372051482E+03  0.23636080478E+03  0.00000000000E+00 0. -1.
          1    1    1    2  502    0  0.69599254643E+02 -0.23538796764E+02  0.37299078049E+03  0.38015819540E+03  0.00000000000E+00 0. -1.
         22    1    3    3    0    0 -0.15249860515E+02  0.48451007286E+02  0.33654300681E+02  0.60931685576E+02  0.00000000000E+00 0.  1.
         22    1    3    3    0    0 -0.85490711007E+02 -0.41385503131E+02  0.21609311463E+03  0.23604587632E+03  0.00000000000E+00 0.  1.
</event>
<event>
 7    1  0.5593520E-006  0.8116526E+02  0.7818608E-02  0.1472063E+00
          2   -1    0    0  502    0  0.00000000000E+00  0.00000000000E+00  0.12437260004E+03  0.12437260004E+03  0.00000000000E+00 0. -1.
          1   -1    0    0  501    0 -0.00000000000E+00 -0.00000000000E+00 -0.36016365131E+03  0.36016365131E+03  0.00000000000E+00 0. -1.
         25    2    1    2    0    0 -0.22467240617E+02 -0.88682715873E+02 -0.29556810165E+03  0.33370076402E+03  0.12500518469E+03 0.  0.
          2    1    1    2  501    0  0.24092688221E+02  0.79093423827E+01 -0.23669258317E+02  0.34687881340E+02  0.00000000000E+00 0. -1.
          1    1    1    2  502    0 -0.16254476036E+01  0.80773373490E+02  0.83446308689E+02  0.11614760600E+03  0.00000000000E+00 0. -1.
         22    1    3    3    0    0 -0.65153903170E+02 -0.14483981385E+02 -0.16007264239E+03  0.17343029625E+03  0.00000000000E+00 0.  1.
         22    1    3    3    0    0  0.42686662553E+02 -0.74198734488E+02 -0.13549545925E+03  0.16027046777E+03  0.00000000000E+00 0.  1.
</event>
<event>
 7    1  0.5593520E-006  0.6479296E+02  0.7818608E-02  0.1428870E+00
          2   -1    0    0  502    0  0.00000000000E+00  0.00000000000E+00  0.24247644743E+03  0.24247644743E+03  0.00000000000E+00 0. -1.
          1   -1    0    0  501    0 -0.00000000000E+00 -0.00000000000E+00 -0.17053415221E+04  0.17053415221E+04  0.00000000000E+00 0. -1.
         25    2    1    2    0    0 -0.29084944563E+02 -0.67072161355E+02 -0.41118413581E+02  0.15052501833E+03  0.12498979309E+03 0.  0.
          2    1    1    2  501    0 -0.27108835487E+02  0.34225163554E+02 -0.16035730622E+04  0.16041673281E+04  0.00000000000E+00 0. -1.
          1    1    1    2  502    0  0.56193780051E+02  0.32846997801E+02  0.18182640107E+03  0.19312562312E+03  0.00000000000E+00 0. -1.
         22    1    3    3    0    0  0.14455418904E+02 -0.72951332761E+02  0.18337496271E+02  0.76597126948E+02  0.00000000000E+00 0. -1.
         22    1    3    3    0    0 -0.43540363468E+02  0.58791714059E+01 -0.59455909852E+02  0.73927891378E+02  0.00000000000E+00 0. -1.
</event>
<event>
 7    1  0.5593520E-006  0.1834446E+03  0.7818608E-02  0.1305374E+00
          2   -1    0    0  502    0  0.00000000000E+00  0.00000000000E+00  0.25709376535E+03  0.25709376535E+03  0.00000000000E+00 0. -1.
          1   -1    0    0  501    0 -0.00000000000E+00 -0.00000000000E+00 -0.10759880782E+04  0.10759880782E+04  0.00000000000E+00 0. -1.
         25    2    1    2    0    0  0.10795114295E+03  0.15217367631E+03 -0.13093991216E+03  0.25996620505E+03  0.12500756035E+03 0.  0.
          2    1    1    2  501    0 -0.13796996536E+03 -0.12118167145E+03 -0.86838984981E+03  0.88759317263E+03  0.00000000000E+00 0. -1.
          1    1    1    2  502    0  0.30018822407E+02 -0.30992004864E+02  0.18043544910E+03  0.18552246590E+03  0.00000000000E+00 0. -1.
         22    1    3    3    0    0  0.80463122082E+02  0.13425973862E+03 -0.37529371069E+02  0.16096100497E+03  0.00000000000E+00 0.  1.
         22    1    3    3    0    0  0.27488020870E+02  0.17913937693E+02 -0.93410541089E+02  0.99005200074E+02  0.00000000000E+00 0.  1.
</event>
<event>
 7    1  0.5593520E-006  0.1164763E+03  0.7818608E-02  0.1313376E+00
          2   -1    0    0  502    0  0.00000000000E+00  0.00000000000E+00  0.74092510082E+03  0.74092510082E+03  0.00000000000E+00 0. -1.
          1   -1    0    0  501    0 -0.00000000000E+00 -0.00000000000E+00 -0.22932164946E+04  0.22932164946E+04  0.00000000000E+00 0. -1.
         25    2    1    2    0    0 -0.92172098662E+02 -0.57332201578E+02  0.69382192277E+02  0.17950375506E+03  0.12500012947E+03 0.  0.
          2    1    1    2  501    0  0.39574255436E+02 -0.49263170913E+02 -0.22319746653E+04  0.22328689815E+04  0.00000000000E+00 0. -1.
          1    1    1    2  502    0  0.52597843226E+02  0.10659537249E+03  0.61030107926E+03  0.62176885890E+03  0.00000000000E+00 0. -1.
         22    1    3    3    0    0 -0.10291663524E+02  0.44119598319E+01 -0.32846285768E+02  0.34702481415E+02  0.00000000000E+00 0. -1.
         22    1    3    3    0    0 -0.81880435138E+02 -0.61744161410E+02  0.10222847804E+03  0.14480127365E+03  0.00000000000E+00 0. -1.
</event>
<event>
 7    1  0.5593520E-006  0.4516589E+02  0.7818608E-02  0.1485317E+00
          2   -1    0    0  502    0  0.00000000000E+00  0.00000000000E+00  0.28213268473E+03  0.28213268473E+03  0.00000000000E+00 0. -1.
          1   -1    0    0  501    0 -0.00000000000E+00 -0.00000000000E+00 -0.46320601849E+02  0.46320601849E+02  0.00000000000E+00 0. -1.
         25    2    1    2    0    0 -0.38655014743E+02  0.15383898678E+02  0.17079477148E+03  0.21570030259E+03  0.12499956827E+03 0.  0.
          2    1    1    2  501    0  0.12250631217E+02 -0.47386599455E+02  0.24391428052E+02  0.54685551434E+02  0.00000000000E+00 0. -1.
          1    1    1    2  502    0  0.26404383526E+02  0.32002700778E+02  0.40625883350E+02  0.58067432563E+02  0.00000000000E+00 0. -1.
         22    1    3    3    0    0 -0.64318753671E+02  0.53953012674E+02  0.12487503767E+03  0.15047127528E+03  0.00000000000E+00 0.  1.
         22    1    3    3    0    0  0.25663738928E+02 -0.38569113997E+02  0.45919733809E+02  0.65229027306E+02  0.00000000000E+00 0.  1.
</event>
<event>
 7    1  0.5593520E-006  0.9314193E+02  0.7818608E-02  0.1369354E+00
          2   -1    0    0  502    0  0.00000000000E+00  0.00000000000E+00  0.78211891334E+03  0.78211891334E+03  0.00000000000E+00 0. -1.
          1   -1    0    0  501    0 -0.00000000000E+00 -0.00000000000E+00 -0.94122821063E+03  0.94122821063E+03  0.00000000000E+00 0. -1.
         25    2    1    2    0    0  0.29288596626E+02  0.12050539166E+03  0.31841257910E+03  0.36385630313E+03  0.12500186995E+03 0.  0.
          2    1    1    2  501    0  0.17080386091E+02 -0.45602148467E+02 -0.91345176044E+03  0.91474882573E+03  0.00000000000E+00 0. -1.
          1    1    1    2  502    0 -0.46368982717E+02 -0.74903243194E+02  0.43592988405E+03  0.44474199510E+03  0.00000000000E+00 0. -1.
         22    1    3    3    0    0  0.22665413577E+02  0.14574352374E+03  0.28951818867E+03  0.32492411000E+03  0.00000000000E+00 0. -1.
         22    1    3    3    0    0  0.66231830482E+01 -0.25238132078E+02  0.28894390423E+02  0.38932193136E+02  0.00000000000E+00 0. -1.
</event>
<event>
 7    1  0.5593520E-006  0.1995174E+03  0.7818608E-02  0.1243045E+00
          2   -1    0    0  502    0  0.00000000000E+00  0.00000000000E+00  0.70119998346E+03  0.70119998346E+03  0.00000000000E+00 0. -1.
          1   -1    0    0  501    0 -0.00000000000E+00 -0.00000000000E+00 -0.50969956633E+03  0.50969956633E+03  0.00000000000E+00 0. -1.
         25    2    1    2    0    0  0.14450251047E+03  0.12332881184E+03  0.26427106604E+03  0.34864678979E+03  0.12499766526E+03 0.  0.
          2    1    1    2  501    0  0.52770449983E+02 -0.49293850380E+02 -0.43621198135E+03  0.44214872696E+03  0.00000000000E+00 0. -1.
          1    1    1    2  502    0 -0.19727296045E+03 -0.74034961461E+02  0.36344133245E+03  0.42010403304E+03  0.00000000000E+00 0. -1.
         22    1    3    3    0    0  0.66919379342E+02  0.13210791739E+03  0.15528493670E+03  0.21457892892E+03  0.00000000000E+00 0. -1.
         22    1    3    3    0    0  0.77583131129E+02 -0.87791055481E+01  0.10898612934E+03  0.13406786087E+03  0.00000000000E+00 0. -1.
</event>
<event>
 7    1  0.5593520E-006  0.1817670E+03  0.7818608E-02  0.1285650E+00
          2   -1    0    0  502    0  0.00000000000E+00  0.00000000000E+00  0.21298644494E+03  0.21298644494E+03  0.00000000000E+00 0. -1.
          1   -1    0    0  501    0 -0.00000000000E+00 -0.00000000000E+00 -0.16433892185E+04  0.16433892185E+04  0.00000000000E+00 0. -1.
         25    2    1    2    0    0  0.14642484744E+03 -0.88853152024E+02  0.18484431882E+02  0.21283637670E+03  0.12499012142E+03 0.  0.
          2    1    1    2  501    0 -0.10278544708E+02 -0.51275322022E+02 -0.14472114946E+04  0.14481560403E+04  0.00000000000E+00 0. -1.
          1    1    1    2  502    0 -0.13614630273E+03  0.14012847405E+03 -0.16757109274E+01  0.19538324645E+03  0.00000000000E+00 0. -1.
         22    1    3    3    0    0  0.12262885065E+03 -0.15754608310E+02  0.44919530805E+02  0.13154393541E+03  0.00000000000E+00 0.  1.
         22    1    3    3    0    0  0.23795996790E+02 -0.73098543714E+02 -0.26435098923E+02  0.81292441293E+02  0.00000000000E+00 0.  1.
</event>
<event>
 7    1  0.5593520E-006  0.6765540E+02  0.7818608E-02  0.1433073E+00
          2   -1    0    0  502    0  0.00000000000E+00  0.00000000000E+00  0.22537710831E+03  0.22537710831E+03  0.00000000000E+00 0. -1.
          1   -1    0    0  501    0 -0.00000000000E+00 -0.00000000000E+00 -0.25537763393E+04  0.25537763393E+04  0.00000000000E+00 0. -1.
         25    2    1    2    0    0  0.80259336080E+02 -0.57861665436E+02 -0.19726066477E+02  0.16063525620E+03  0.12500013793E+03 0.  0.
          2    1    1    2  501    0 -0.39901751536E+02  0.54420419180E+02 -0.24604777331E+04  0.24614029347E+04  0.00000000000E+00 0. -1.
          1    1    1    2  502    0 -0.40357584544E+02  0.34412462555E+01  0.15180456866E+03  0.15711525665E+03  0.00000000000E+00 0. -1.
         22    1    3    3    0    0  0.90570179413E+02 -0.53885796424E+01 -0.45240476800E+02  0.10138389877E+03  0.00000000000E+00 0.  1.
         22    1    3    3    0    0 -0.10310843333E+02 -0.52473085793E+02  0.25514410323E+02  0.59251357428E+02  0.00000000000E+00 0.  1.
</event>
<event>
 7    1  0.5593520E-006  0.8204959E+02  0.7818608E-02  0.1403981E+00
          2   -1    0    0  502    0  0.00000000000E+00  0.00000000000E+00  0.62345732783E+03  0.62345732783E+03  0.00000000000E+00 0. -1.
          1   -1    0    0  501    0 -0.00000000000E+00 -0.00000000000E+00 -0.36545282458E+03  0.36545282458E+03  0.00000000000E+00 0. -1.
         25    2    1    2    0    0  0.15398814393E+01 -0.75802042739E+02  0.14046438547E+03  0.20273991118E+03  0.12499962833E+03 0.  0.
          2    1    1    2  501    0  0.40092896864E+02  0.72142106328E+02 -0.32822873741E+03  0.33844649200E+03  0.00000000000E+00 0. -1.
          1    1    1    2  502    0 -0.41632778303E+02  0.36599364106E+01  0.44576885519E+03  0.44772374923E+03  0.00000000000E+00 0. -1.
         22    1    3    3    0    0  0.20371539552E+02 -0.28694400246E+02  0.14739392948E+03  0.15153659187E+03  0.00000000000E+00 0.  1.
         22    1    3    3    0    0 -0.18831658113E+02 -0.47107642493E+02 -0.69295440092E+01  0.51203319313E+02  0.00000000000E+00 0.  1.
</event>
<event>
 7    1  0.5593520E-006  0.8072537E+02  0.7818608E-02  0.1420101E+00
          2   -1    0    0  502    0  0.00000000000E+00  0.00000000000E+00  0.13304299910E+04  0.13304299910E+04  0.00000000000E+00 0. -1.
          1   -1    0    0  501    0 -0.00000000000E+00 -0.00000000000E+00 -0.46709433659E+03  0.46709433659E+03  0.00000000000E+00 0. -1.
         25    2    1    2    0    0  0.10933175693E+03  0.17174207702E+02 -0.53361464912E+02  0.17527169716E+03  0.12499734159E+03 0.  0.
          2    1    1    2  501    0 -0.34970630712E+02  0.13462001196E+02 -0.35050427691E+03  0.35250165761E+03  0.00000000000E+00 0. -1.
          1    1    1    2  502    0 -0.74361126220E+02 -0.30636208897E+02  0.12672013962E+04  0.12697509728E+04  0.00000000000E+00 0. -1.
         22    1    3    3    0    0 -0.43698318214E+01  0.18913863083E+02  0.28976004927E+02  0.34877478527E+02  0.00000000000E+00 0. -1.
         22    1    3    3    0    0  0.11370158875E+03 -0.17396553813E+01 -0.82337469840E+02  0.14039421863E+03  0.00000000000E+00 0. -1.
</event>
<event>
 7    1  0.5593520E-006  0.1885561E+03  0.7818608E-02  0.1323395E+00
          2   -1    0    0  502    0  0.00000000000E+00  0.00000000000E+00  0.51335838946E+03  0.51335838946E+03  0.00000000000E+00 0. -1.
          1   -1    0    0  501    0 -0.00000000000E+00 -0.00000000000E+00 -0.46221586810E+03  0.46221586810E+03  0.00000000000E+00 0. -1.
         25    2    1    2    0    0 -0.14024469978E+03 -0.13187032158E+03  0.36456141174E+03  0.43080058662E+03  0.12500305986E+03 0.  0.
          2    1    1    2  501    0  0.11102458276E+03  0.15235312221E+03 -0.40487018139E+03  0.44660698114E+03  0.00000000000E+00 0. -1.
          1    1    1    2  502    0  0.29220117026E+02 -0.20482800632E+02  0.91451291009E+02  0.98166689808E+02  0.00000000000E+00 0. -1.
         22    1    3    3    0    0 -0.10691561972E+03 -0.11514619201E+03  0.16524223729E+03  0.22802322746E+03  0.00000000000E+00 0. -1.
         22    1    3    3    0    0 -0.33329080062E+02 -0.16724129567E+02  0.19931917445E+03  0.20277735916E+03  0.00000000000E+00 0. -1.
</event>
<event>
 7    1  0.5593520E-006  0.4901244E+02  0.7818608E-02  0.1500465E+00
          2   -1    0    0  502    0  0.00000000000E+00  0.00000000000E+00  0.26171146358E+02  0.26171146358E+02  0.00000000000E+00 0. -1.
          1   -1    0    0  501    0 -0.00000000000E+00 -0.00000000000E+00 -0.20638453937E+04  0.20638453937E+04  0.00000000000E+00 0. -1.
         25    2    1    2    0    0 -0.66421930806E+02 -0.37809629611E+02 -0.27707685471E+03  0.31342976370E+03  0.12500076950E+03 0.  0.
          2    1    1    2  501    0  0.47753747987E+02  0.88934459659E+01 -0.17295558707E+04  0.17302378517E+04  0.00000000000E+00 0. -1.
          1    1    1    2  502    0  0.18668182819E+02  0.28916183645E+02 -0.31041521937E+02  0.46348924588E+02  0.00000000000E+00 0. -1.
         22    1    3    3    0    0  0.22930296396E+02 -0.16169062919E+02 -0.17000102729E+03  0.17230086004E+03  0.00000000000E+00 0. -1.
         22    1    3    3    0    0 -0.89352227202E+02 -0.21640566692E+02 -0.10707582741E+03  0.14112890366E+03  0.00000000000E+00 0. -1.
</event>
<event>
 7    1  0.5593520E-006  0.1086051E+03  0.7818608E-02  0.1395797E+00
          2   -1    0    0  502    0  0.00000000000E+00  0.00000000000E+00  0.67089035050E+03  0.67089035050E+03  0.00000000000E+00 0. -1.
          1   -1    0    0  501    0 -0.00000000000E+00 -0.00000000000E+00 -0.47069388626E+02  0.47069388626E+02  0.00000000000E+00 0. -1.
         25    2    1    2    0    0  0.11799059481E+03 -0.57019291959E+02  0.26350880251E+03  0.31974358201E+03  0.12500435639E+03 0.  0.
          2    1    1    2  501    0 -0.33627478833E+02 -0.20251913005E+01  0.13250333543E+02  0.36200553469E+02  0.00000000000E+00 0. -1.
          1    1    1    2  502    0 -0.84363115977E+02  0.59044483260E+02  0.34706182582E+03  0.36201560365E+03  0.00000000000E+00 0. -1.
         22    1    3    3    0    0  0.80230947777E+02 -0.52275915097E+02  0.60658821280E+02  0.11335461561E+03  0.00000000000E+00 0. -1.
         22    1    3    3    0    0  0.37759647033E+02 -0.47433768623E+01  0.20284998123E+03  0.20638896640E+03  0.00000000000E+00 0. -1.
</event>
<event>
 7    1  0.5593520E-006  0.9291748E+02  0.7818608E-02  0.1439613E+00
          2   -1    0    0  502    0  0.00000000000E+00  0.00000000000E+00  0.19908247794E+04  0.19908247794E+04  0.00000000000E+00 0. -1.
          1   -1    0    0  501    0 -0.00000000000E+00 -0.00000000000E+00 -0.26241985167E+03  0.26241985167E+03  0.00000000000E+00 0. -1.
         25    2    1    2    0    0  0.10903150934E+03 -0.38499475853E+02  0.17778157275E+03  0.24615471006E+03  0.12496309057E+03 0.  0.
          2    1    1    2  501    0 -0.81313785764E+02  0.42983781044E+02 -0.21885105215E+03  0.23739275519E+03  0.00000000000E+00 0. -1.
          1    1    1    2  502    0 -0.27717723578E+02 -0.44843051912E+01  0.17694744071E+04  0.17696971658E+04  0.00000000000E+00 0. -1.
         22    1    3    3    0    0  0.90616085932E+02 -0.46706310837E+01  0.18583652112E+03  0.20680498641E+03  0.00000000000E+00 0.  1.
         22    1    3    3    0    0  0.18415423411E+02 -0.33828844769E+02 -0.80549483689E+01  0.39349723646E+02  0.00000000000E+00 0.  1.
</event>
<event>
 7    1  0.5593520E-006  0.5682433E+02  0.7818608E-02  0.1432066E+00
          2   -1    0    0  502    0  0.00000000000E+00  0.00000000000E+00  0.81960219198E+02  0.81960219198E+02  0.00000000000E+00 0. -1.
          1   -1    0    0  501    0 -0.00000000000E+00 -0.00000000000E+00 -0.81144660995E+03  0.81144660995E+03  0.00000000000E+00 0. -1.
         25    2    1    2    0    0  0.34480297509E+02  0.80697097570E+02 -0.16836196652E+03  0.22731499758E+03  0.12500177550E+03 0.  0.
          2    1    1    2  501    0  0.98165933698E+01 -0.47590759112E+02 -0.59777576563E+03  0.59974754008E+03  0.00000000000E+00 0. -1.
          1    1    1    2  502    0 -0.44296890879E+02 -0.33106338458E+02  0.36651341397E+02  0.66344291494E+02  0.00000000000E+00 0. -1.
         22    1    3    3    0    0  0.30257749349E+02  0.65046204429E+02 -0.18836759961E+03  0.20156610005E+03  0.00000000000E+00 0. -1.
         22    1    3    3    0    0  0.42225481605E+01  0.15650893141E+02  0.20005633082E+02  0.25748897532E+02  0.00000000000E+00 0. -1.
</event>
<event>
 7    1  0.7306202E-006  0.1627318E+03  0.7818608E-02  0.1295770E+00
          2   -1    0    0  502    0  0.00000000000E+00  0.00000000000E+00  0.15360940262E+04  0.15360940262E+04  0.00000000000E+00 0. -1.
          1   -1    0    0  501    0 -0.00000000000E+00 -0.00000000000E+00 -0.92936992835E+03  0.92936992835E+03  0.00000000000E+00 0. -1.
         25    2    1    2    0    0  0.12392976783E+03 -0.19836519243E+02 -0.24651337675E+03  0.30356022656E+03  0.12501156500E+03 0.  0.
          2    1    1    2  501    0  0.25295895906E+02 -0.46728949342E+02 -0.64881628815E+03  0.65098851974E+03  0.00000000000E+00 0. -1.
          1    1    1    2  502    0 -0.14922566373E+03  0.66565468585E+02  0.15020537628E+04  0.15109152083E+04  0.00000000000E+00 0. -1.
         22    1    3    3    0    0  0.89161126178E+02  0.47670890114E+02 -0.13561182573E+03  0.16915314795E+03  0.00000000000E+00 0. -1.
         22    1    3    3    0    0  0.34768641649E+02 -0.67507409357E+02 -0.11090155102E+03  0.13440707860E+03  0.00000000000E+00 0. -1.
</event>
<event>
 7    1  0.5593520E-006  0.5552176E+02  0.7818608E-02  0.1441094E+00
          2   -1    0    0  502    0  0.00000000000E+00  0.00000000000E+00  0.41255096442E+03  0.41255096442E+03  0.00000000000E+00 0. -1.
          1   -1    0    0  501    0 -0.00000000000E+00 -0.00000000000E+00 -0.10840467318E+03  0.10840467318E+03  0.00000000000E+00 0. -1.
         25    2    1    2    0    0  0.80187827779E+01  0.13581734541E+02  0.72690976746E+02  0.14545528884E+03  0.12499799423E+03 0.  0.
          2    1    1    2  501    0  0.44674886196E+02  0.12801071321E+02 -0.61270879858E+02  0.76901453837E+02  0.00000000000E+00 0. -1.
          1    1    1    2  502    0 -0.52693668974E+02 -0.26382805863E+02  0.29272619435E+03  0.29859889493E+03  0.00000000000E+00 0. -1.
         22    1    3    3    0    0 -0.12676561303E+02 -0.50948487559E+02  0.10636654884E+02  0.53568479707E+02  0.00000000000E+00 0.  1.
         22    1    3    3    0    0  0.20695344081E+02  0.64530222100E+02  0.62054321862E+02  0.91886809133E+02  0.00000000000E+00 0.  1.
</event>
<event>
 7    1  0.5593520E-006  0.3639296E+02  0.7818608E-02  0.1541209E+00
          2   -1    0    0  502    0  0.00000000000E+00  0.00000000000E+00  0.21829851924E+04  0.21829851924E+04  0.00000000000E+00 0. -1.
          1   -1    0    0  501    0 -0.00000000000E+00 -0.00000000000E+00 -0.76606029897E+03  0.76606029897E+03  0.00000000000E+00 0. -1.
         25    2    1    2    0    0  0.17046541761E+02 -0.36937772963E+02  0.27393174002E+03  0.30383678516E+03  0.12499284046E+03 0.  0.
          2    1    1    2  501    0 -0.34940768576E+02  0.50807227189E+01 -0.75051648139E+03  0.75134656444E+03  0.00000000000E+00 0. -1.
          1    1    1    2  502    0  0.17894226815E+02  0.31857050244E+02  0.18935096348E+04  0.18938621418E+04  0.00000000000E+00 0. -1.
         22    1    3    3    0    0 -0.96435754824E+01 -0.80070279268E+02  0.17313048472E+03  0.19099322739E+03  0.00000000000E+00 0.  1.
         22    1    3    3    0    0  0.26690117243E+02  0.43132506305E+02  0.10080125531E+03  0.11284355777E+03  0.00000000000E+00 0.  1.
</event>
<event>
 7    1  0.5593520E-006  0.4562039E+02  0.7818608E-02  0.1554678E+00
          2   -1    0    0  502    0  0.00000000000E+00  0.00000000000E+00  0.14070126052E+03  0.14070126052E+03  0.00000000000E+00 0. -1.
          1   -1    0    0  501    0 -0.00000000000E+00 -0.00000000000E+00 -0.12567827356E+04  0.12567827356E+04  0.00000000000E+00 0. -1.
         25    2    1    2    0    0 -0.40508029430E+02  0.57851795153E+02 -0.23265158213E+03  0.27338718272E+03  0.12500424935E+03 0.  0.
          2    1    1    2  501    0  0.11676285580E+02 -0.23036031776E+02 -0.99934532880E+03  0.99967898878E+03  0.00000000000E+00 0. -1.
          1    1    1    2  502    0  0.28831743850E+02 -0.34815763377E+02  0.11591543582E+03  0.12441782466E+03  0.00000000000E+00 0. -1.
         22    1    3    3    0    0 -0.43249065577E+02  0.95650876745E+02 -0.15846364096E+03  0.19007971328E+03  0.00000000000E+00 0. -1.
         22    1    3    3    0    0  0.27410361467E+01 -0.37799081592E+02 -0.74187941169E+02  0.83307469432E+02  0.00000000000E+00 0. -1.
</event>
<event>
 7    1  0.5593520E-006  0.5396886E+02  0.7818608E-02  0.1458242E+00
          2   -1    0    0  502    0  0.00000000000E+00  0.00000000000E+00  0.30695460800E+04  0.30695460800E+04  0.00000000000E+00 0. -1.
          1   -1    0    0  501    0 -0.00000000000E+00 -0.00000000000E+00 -0.37315231453E+03  0.37315231453E+03  0.00000000000E+00 0. -1.
         25    2    1    2    0    0  0.64829572030E+02  0.66333228781E+02  0.37387445092E+02  0.16008156872E+03  0.12500126776E+03 0.  0.
          2    1    1    2  501    0 -0.28656344854E+02 -0.44730053093E+02 -0.30939206549E+03  0.31391943861E+03  0.00000000000E+00 0. -1.
          1    1    1    2  502    0 -0.36173227176E+02 -0.21603175688E+02  0.29683983858E+04  0.29686973872E+04  0.00000000000E+00 0. -1.
         22    1    3    3    0    0 -0.22575093066E+02 -0.19395063905E+02  0.21301803604E+02  0.36600138901E+02  0.00000000000E+00 0.  1.
         22    1    3    3    0    0  0.87404665096E+02  0.85728292685E+02  0.16085641488E+02  0.12348142982E+03  0.00000000000E+00 0.  1.
</event>
<event>
 7    1  0.5593520E-006  0.1497020E+03  0.7818608E-02  0.1268779E+00
          2   -1    0    0  502    0  0.00000000000E+00  0.00000000000E+00  0.14251379142E+04  0.14251379142E+04  0.00000000000E+00 0. -1.
          1   -1    0    0  501    0 -0.00000000000E+00 -0.00000000000E+00 -0.31798899346E+03  0.31798899346E+03  0.00000000000E+00 0. -1.
         25    2    1    2    0    0 -0.11024458158E+03  0.11982830151E+03  0.41898747953E+03  0.46657009550E+03  0.12499782556E+03 0.  0.
          2    1    1    2  501    0  0.70371098799E+02  0.24784095148E+02 -0.28361826031E+03  0.29326721688E+03  0.00000000000E+00 0. -1.
          1    1    1    2  502    0  0.39873482782E+02 -0.14461239666E+03  0.97177970150E+03  0.98328959526E+03  0.00000000000E+00 0. -1.
         22    1    3    3    0    0 -0.12442125708E+03  0.11209582590E+03  0.27716385633E+03  0.32383008918E+03  0.00000000000E+00 0. -1.
         22    1    3    3    0    0  0.14176675498E+02  0.77324756076E+01  0.14182362320E+03  0.14274000632E+03  0.00000000000E+00 0. -1.
</event>
<event>
 7    1  0.6901765E-006  0.1268340E+03  0.7818608E-02  0.1260719E+00
          2   -1    0    0  502    0  0.00000000000E+00  0.00000000000E+00  0.10225773118E+04  0.10225773118E+04  0.00000000000E+00 0. -1.
          1   -1    0    0  501    0 -0.00000000000E+00 -0.00000000000E+00 -0.15384183437E+04  0.15384183437E+04  0.00000000000E+00 0. -1.
         25    2    1    2    0    0  0.17941996161E+03  0.45439979401E+02 -0.36766699778E+03  0.43018651464E+03  0.12500040707E+03 0.  0.
          2    1    1    2  501    0 -0.91360200078E+02 -0.81773363587E+02 -0.11338904369E+04  0.11405003692E+04  0.00000000000E+00 0. -1.
          1    1    1    2  502    0 -0.88059761533E+02  0.36333384186E+02  0.98571640283E+03  0.99030877165E+03  0.00000000000E+00 0. -1.
         22    1    3    3    0    0  0.12799949253E+03 -0.25239733035E+02 -0.17197418271E+03  0.21586114456E+03  0.00000000000E+00 0. -1.
         22    1    3    3    0    0  0.51420469084E+02  0.70679712436E+02 -0.19569281507E+03  0.21432537008E+03  0.00000000000E+00 0. -1.
</event>
<event>
 7    1  0.5593520E-006  0.1132604E+03  0.7818608E-02  0.1282137E+00
          2   -1    0    0  502    0  0.00000000000E+00  0.00000000000E+00  0.19085110467E+03  0.19085110467E+03  0.00000000000E+00 0. -1.
          1   -1    0    0  501    0 -0.00000000000E+00 -0.00000000000E+00 -0.28655718030E+04  0.28655718030E+04  0.00000000000E+00 0. -1.
         25    2    1    2    0    0  0.18948679945E+03  0.10823268757E+02 -0.18015042683E+03  0.29000372862E+03  0.12500238404E+03 0.  0.
          2    1    1    2  501    0 -0.83580436392E+02 -0.23279784860E+02 -0.26087471948E+04  0.26101895648E+04  0.00000000000E+00 0. -1.
          1    1    1    2  502    0 -0.10590636305E+03  0.12456516102E+02  0.11417692335E+03  0.15622961421E+03  0.00000000000E+00 0. -1.
         22    1    3    3    0    0  0.10242687985E+03 -0.45847736115E+02 -0.48363543033E+02  0.12219784334E+03  0.00000000000E+00 0. -1.
         22    1    3    3    0    0  0.87059919599E+02  0.56671004872E+02 -0.13178688379E+03  0.16780588528E+03  0.00000000000E+00 0. -1.
</event>
<event>
 7    1  0.5593520E-006  0.6291717E+02  0.7818608E-02  0.1511189E+00
          2   -1    0    0  502    0  0.00000000000E+00  0.00000000000E+00  0.21412860889E+03  0.21412860889E+03  0.00000000000E+00 0. -1.
          1   -1    0    0  501    0 -0.00000000000E+00 -0.00000000000E+00 -0.11055076794E+04  0.11055076794E+04  0.00000000000E+00 0. -1.
         25    2    1    2    0    0 -0.39438541924E+02  0.45144948071E+01  0.39610273722E+02  0.13700465580E+03  0.12500209068E+03 0.  0.
          2    1    1    2  501    0  0.63081858092E+02  0.33658751543E+01 -0.10546218980E+04  0.10565121853E+04  0.00000000000E+00 0. -1.
          1    1    1    2  502    0 -0.23643316168E+02 -0.78803699615E+01  0.12363255372E+03  0.12611944723E+03  0.00000000000E+00 0. -1.
         22    1    3    3    0    0 -0.42460304359E+02 -0.62620666040E+01 -0.38764934722E+02  0.57834341774E+02  0.00000000000E+00 0. -1.
         22    1    3    3    0    0  0.30217624355E+01  0.10776561411E+02  0.78375208444E+02  0.79170314025E+02  0.00000000000E+00 0. -1.
</event>
<event>
 7    1  0.5593520E-006  0.8785113E+02  0.7818608E-02  0.1397345E+00
          2   -1    0    0  502    0  0.00000000000E+00  0.00000000000E+00  0.53323818517E+03  0.53323818517E+03  0.00000000000E+00 0. -1.
          1   -1    0    0  501    0 -0.00000000000E+00 -0.00000000000E+00 -0.13522054956E+03  0.13522054956E+03  0.00000000000E+00 0. -1.
         25    2    1    2    0    0  0.26587145189E+02  0.93791491584E+02  0.25269116489E+02  0.16052281783E+03  0.12500130645E+03 0.  0.
          2    1    1    2  501    0 -0.40515128385E+02 -0.71264435448E+01 -0.56452601049E+02  0.69850969864E+02  0.00000000000E+00 0. -1.
          1    1    1    2  502    0  0.13927983196E+02 -0.86665048039E+02  0.42920112017E+03  0.43808494704E+03  0.00000000000E+00 0. -1.
         22    1    3    3    0    0  0.25992667819E+01 -0.25832259563E+02 -0.17419512895E+02  0.31265016415E+02  0.00000000000E+00 0. -1.
         22    1    3    3    0    0  0.23987878407E+02  0.11962375115E+03  0.42688629384E+02  0.12925780142E+03  0.00000000000E+00 0. -1.
</event>
<event>
 7    1  0.5593520E-006  0.6305216E+02  0.7818608E-02  0.1483185E+00
          2   -1    0    0  502    0  0.00000000000E+00  0.00000000000E+00  0.39066144919E+03  0.39066144919E+03  0.00000000000E+00 0. -1.
          1   -1    0    0  501    0 -0.00000000000E+00 -0.00000000000E+00 -0.38974622556E+03  0.38974622556E+03  0.00000000000E+00 0. -1.
         25    2    1    2    0    0  0.38715032957E+01  0.44745184095E+02 -0.85686322775E+02  0.15806293967E+03  0.12499850778E+03 0.  0.
          2    1    1    2  501    0  0.28463392867E+02  0.99979140910E+01 -0.26415515202E+03  0.26587227640E+03  0.00000000000E+00 0. -1.
          1    1    1    2  502    0 -0.32334896163E+02 -0.54743098186E+02  0.35075669842E+03  0.35647245868E+03  0.00000000000E+00 0. -1.
         22    1    3    3    0    0 -0.35885321383E+02 -0.30462820094E+02 -0.38307599411E+02  0.60689470845E+02  0.00000000000E+00 0. -1.
         22    1    3    3    0    0  0.39756824679E+02  0.75208004189E+02 -0.47378723364E+02  0.97373468821E+02  0.00000000000E+00 0. -1.
</event>
<event>
 7    1  0.5593520E-006  0.9415226E+02  0.7818608E-02  0.1473960E+00
          2   -1    0    0  502    0  0.00000000000E+00  0.00000000000E+00  0.16067411489E+03  0.16067411489E+03  0.00000000000E+00 0. -1.
          1   -1    0    0  501    0 -0.00000000000E+00 -0.00000000000E+00 -0.11755763049E+04  0.11755763049E+04  0.00000000000E+00 0. -1.
         25    2    1    2    0    0 -0.61161015555E+02  0.95073732903E+02 -0.30192000409E+03  0.34577836451E+03  0.12500921560E+03 0.  0.
          2    1    1    2  501    0  0.53367817519E+02 -0.74964877052E+02 -0.84838578100E+03  0.85336175807E+03  0.00000000000E+00 0. -1.
          1    1    1    2  502    0  0.77931980360E+01 -0.20108855851E+02  0.13540359512E+03  0.13711029717E+03  0.00000000000E+00 0. -1.
         22    1    3    3    0    0 -0.28253779488E+02  0.11777259546E+03 -0.26498348393E+03  0.29135014510E+03  0.00000000000E+00 0. -1.
         22    1    3    3    0    0 -0.32907236067E+02 -0.22698862554E+02 -0.36936520159E+02  0.54428219411E+02  0.00000000000E+00 0. -1.
</event>
<event>
 7    1  0.5593520E-006  0.1218236E+03  0.7818608E-02  0.1289615E+00
          2   -1    0    0  502    0  0.00000000000E+00  0.00000000000E+00  0.98132381971E+02  0.98132381971E+02  0.00000000000E+00 0. -1.
          1   -1    0    0  501    0 -0.00000000000E+00 -0.00000000000E+00 -0.62179071761E+03  0.62179071761E+03  0.00000000000E+00 0. -1.
         25    2    1    2    0    0  0.33799969510E+02  0.13786983167E+03 -0.24339714518E+03  0.30825003778E+03  0.12500154834E+03 0.  0.
          2    1    1    2  501    0 -0.71657841268E+02 -0.22718115603E+02 -0.28056116520E+03  0.29045744338E+03  0.00000000000E+00 0. -1.
          1    1    1    2  502    0  0.37857871758E+02 -0.11515171606E+03  0.29997474008E+00  0.12121561843E+03  0.00000000000E+00 0. -1.
         22    1    3    3    0    0  0.43086254757E+02  0.15932849333E+03 -0.22135940163E+03  0.27611950099E+03  0.00000000000E+00 0.  1.
         22    1    3    3    0    0 -0.92862852467E+01 -0.21458661661E+02 -0.22037743545E+02  0.32130536791E+02  0.00000000000E+00 0.  1.
</event>
<event>
 7    1  0.5593520E-006  0.5725996E+02  0.7818608E-02  0.1424995E+00
          2   -1    0    0  502    0  0.00000000000E+00  0.00000000000E+00  0.47306143832E+03  0.47306143832E+03  0.00000000000E+00 0. -1.
          1   -1    0    0  501    0 -0.00000000000E+00 -0.00000000000E+00 -0.40952207275E+03  0.40952207275E+03  0.00000000000E+00 0. -1.
         25    2    1    2    0    0  0.72536954161E+02 -0.68246281139E+02  0.21224436747E+03  0.26569055348E+03  0.12499853632E+03 0.  0.
          2    1    1    2  501    0 -0.45464745370E+02  0.22850848134E+02 -0.37808927900E+03  0.38149797801E+03  0.00000000000E+00 0. -1.
          1    1    1    2  502    0 -0.27072208790E+02  0.45395433005E+02  0.22938427710E+03  0.23539497957E+03  0.00000000000E+00 0. -1.
         22    1    3    3    0    0 -0.65898556960E+01  0.26027555263E+02  0.82924077327E+02  0.87162276425E+02  0.00000000000E+00 0.  1.
         22    1    3    3    0    0  0.79126809857E+02 -0.94273836402E+02  0.12932029014E+03  0.17852827706E+03  0.00000000000E+00 0.  1.
</event>
<event>
 7    1  0.5593520E-006  0.9193748E+02  0.7818608E-02  0.1312195E+00
          2   -1    0    0  502    0  0.00000000000E+00  0.00000000000E+00  0.59934895889E+03  0.59934895889E+03  0.00000000000E+00 0. -1.
          1   -1    0    0  501    0 -0.00000000000E+00 -0.00000000000E+00 -0.30893788326E+03  0.30893788326E+03  0.00000000000E+00 0. -1.
         25    2    1    2    0    0 -0.59357052283E+02  0.58829900648E+02  0.23660582791E+03  0.28034447371E+03  0.12500595696E+03 0.  0.
          2    1    1    2  501    0  0.67568703800E+02  0.44516285989E+02 -0.27318227494E+03  0.28491364444E+03  0.00000000000E+00 0. -1.
          1    1    1    2  502    0 -0.82116515167E+01 -0.10334618664E+03  0.32698752266E+03  0.34302872400E+03  0.00000000000E+00 0. -1.
         22    1    3    3    0    0 -0.20577899351E+02 -0.35143513914E+02  0.11410678146E+03  0.12115640341E+03  0.00000000000E+00 0.  1.
         22    1    3    3    0    0 -0.38779152933E+02  0.93973414562E+02  0.12249904644E+03  0.15918807030E+03  0.00000000000E+00 0.  1.
</event>
<event>
 7    1  0.5593520E-006  0.1730331E+03  0.7818608E-02  0.1251336E+00
          2   -1    0    0  502    0  0.00000000000E+00  0.00000000000E+00  0.59913486847E+03  0.59913486847E+03  0.00000000000E+00 0. -1.
          1   -1    0    0  501    0 -0.00000000000E+00 -0.00000000000E+00 -0.35147300351E+03  0.35147300351E+03  0.00000000000E+00 0. -1.
         25    2    1    2    0    0 -0.37579990866E+02 -0.10806409792E+03  0.82903977215E+02  0.18865032883E+03  0.12500308859E+03 0.  0.
          2    1    1    2  501    0  0.27534489084E+02  0.18401975557E+03 -0.26590024686E+03  0.32453714704E+03  0.00000000000E+00 0. -1.
          1    1    1    2  502    0  0.10045501782E+02 -0.75955657654E+02  0.43065813460E+03  0.43742039611E+03  0.00000000000E+00 0. -1.
         22    1    3    3    0    0 -0.49694338269E+01 -0.63540360901E+02 -0.24191457540E+02  0.68171103511E+02  0.00000000000E+00 0.  1.
         22    1    3    3    0    0 -0.32610557039E+02 -0.44523737019E+02  0.10709543475E+03  0.12047922532E+03  0.00000000000E+00 0.  1.
</event>
<event>
 7    1  0.5593520E-006  0.5970882E+02  0.7818608E-02  0.1517232E+00
          2   -1    0    0  502    0  0.00000000000E+00  0.00000000000E+00  0.14503563663E+04  0.14503563663E+04  0.00000000000E+00 0. -1.
          1   -1    0    0  501    0 -0.00000000000E+00 -0.00000000000E+00 -0.22010403217E+03  0.22010403217E+03  0.00000000000E+00 0. -1.
         25    2    1    2    0    0  0.81536735246E+01 -0.50777634626E+02 -0.16153431952E+02  0.13612292946E+03  0.12499467185E+03 0.  0.
          2    1    1    2  501    0 -0.24270773655E+02 -0.68287557494E+01 -0.14221306717E+03  0.14443080985E+03  0.00000000000E+00 0. -1.
          1    1    1    2  502    0  0.16117100130E+02  0.57606390375E+02  0.13886188333E+04  0.13899066592E+04  0.00000000000E+00 0. -1.
         22    1    3    3    0    0  0.52903899954E+02  0.15397287279E+02 -0.31790656073E+01  0.55190629132E+02  0.00000000000E+00 0.  1.
         22    1    3    3    0    0 -0.44750226429E+02 -0.66174921906E+02 -0.12974366345E+02  0.80932300330E+02  0.00000000000E+00 0.  1.
</event>
<event>
 7    1  0.5593520E-006  0.4829540E+02  0.7818608E-02  0.1489017E+00
          2   -1    0    0  502    0  0.00000000000E+00  0.00000000000E+00  0.27189055641E+03  0.27189055641E+03  0.00000000000E+00 0. -1.
          1   -1    0    0  501    0 -0.00000000000E+00 -0.00000000000E+00 -0.25672734913E+03  0.25672734913E+03  0.00000000000E+00 0. -1.
         25    2    1    2    0    0 -0.80031879000E+02 -0.11429615505E+01 -0.19903115385E+02  0.14975781891E+03  0.12499944922E+03 0.  0.
          2    1    1    2  501    0  0.44616609851E+02  0.14384848193E+02 -0.16691364439E+03  0.17337165401E+03  0.00000000000E+00 0. -1.
          1    1    1    2  502    0  0.35415269150E+02 -0.13241886643E+02  0.20197996705E+03  0.20548843262E+03  0.00000000000E+00 0. -1.
         22    1    3    3    0    0 -0.33397710106E+02 -0.35034902095E+02 -0.61795216285E+02  0.78495223809E+02  0.00000000000E+00 0.  1.
         22    1    3    3    0    0 -0.46634168895E+02  0.33891940545E+02  0.41892100900E+02  0.71262595099E+02  0.00000000000E+00 0.  1.
</event>
<event>
 7    1  0.5593520E-006  0.8975755E+02  0.7818608E-02  0.1390064E+00
          2   -1    0    0  502    0  0.00000000000E+00  0.00000000000E+00  0.10563337397E+04  0.10563337397E+04  0.00000000000E+00 0. -1.
          1   -1    0    0  501    0 -0.00000000000E+00 -0.00000000000E+00 -0.10022451839E+04  0.10022451839E+04  0.00000000000E+00 0. -1.
         25    2    1    2    0    0  0.42511745843E+02 -0.84920038779E+02  0.23310995534E+03  0.28103833182E+03  0.12499452450E+03 0.  0.
          2    1    1    2  501    0  0.29574605474E+02  0.30766436074E+02 -0.97527019779E+03  0.97620345706E+03  0.00000000000E+00 0. -1.
          1    1    1    2  502    0 -0.72086351317E+02  0.54153602706E+02  0.79624879822E+03  0.80133713467E+03  0.00000000000E+00 0. -1.
         22    1    3    3    0    0 -0.16742007528E+02  0.21379341756E+02  0.85612586657E+02  0.89815845284E+02  0.00000000000E+00 0. -1.
         22    1    3    3    0    0  0.59253753371E+02 -0.10629938054E+03  0.14749736868E+03  0.19122248654E+03  0.00000000000E+00 0. -1.
</event>
<event>
 7    1  0.5593520E-006  0.5833082E+02  0.7818608E-02  0.1502777E+00
          2   -1    0    0  502    0  0.00000000000E+00  0.00000000000E+00  0.27039790576E+02  0.27039790576E+02  0.00000000000E+00 0. -1.
          1   -1    0    0  501    0 -0.00000000000E+00 -0.00000000000E+00 -0.90458428484E+03  0.90458428484E+03  0.00000000000E+00 0. -1.
         25    2    1    2    0    0 -0.30886369919E+02 -0.11884069913E+02 -0.21707344568E+03  0.25266733776E+03  0.12499881515E+03 0.  0.
          2    1    1    2  501    0  0.59342150721E+02  0.11145672595E+02 -0.64241816124E+03  0.64524941748E+03  0.00000000000E+00 0. -1.
          1    1    1    2  502    0 -0.28455780802E+02  0.73839731808E+00 -0.18052887345E+02  0.33707320171E+02  0.00000000000E+00 0. -1.
         22    1    3    3    0    0  0.28037516691E+01 -0.27063679376E+02 -0.21385125489E+03  0.21557519102E+03  0.00000000000E+00 0. -1.
         22    1    3    3    0    0 -0.33690121589E+02  0.15179609463E+02 -0.32221907810E+01  0.37092146736E+02  0.00000000000E+00 0. -1.
</event>
<event>
 7    1  0.5593520E-006  0.9144131E+02  0.7818608E-02  0.1306679E+00
          2   -1    0    0  502    0  0.00000000000E+00  0.00000000000E+00  0.27087909701E+03  0.27087909701E+03  0.00000000000E+00 0. -1.
          1   -1    0    0  501    0 -0.00000000000E+00 -0.00000000000E+00 -0.21482967494E+03  0.21482967494E+03  0.00000000000E+00 0. -1.
         25    2    1    2    0    0  0.84863160864E+01  0.63328997626E+01  0.52926343059E+02  0.13615009540E+03  0.12499410989E+03 0.  0.
          2    1    1    2  501    0 -0.95607610313E+02  0.21441058588E+02 -0.14528725049E+03  0.17523960539E+03  0.00000000000E+00 0. -1.
          1    1    1    2  502    0  0.87121294226E+02 -0.27773958351E+02  0.14841032949E+03  0.17431907116E+03  0.00000000000E+00 0. -1.
         22    1    3    3    0    0  0.21242252482E+01  0.59618136659E+02  0.56767424851E+02  0.82349104888E+02  0.00000000000E+00 0.  1.
         22    1    3    3    0    0  0.63620908382E+01 -0.53285236896E+02 -0.38410817921E+01  0.53800990514E+02  0.00000000000E+00 0.  1.
</event>
<event>
 7    1  0.5593520E-006  0.2384177E+03  0.7818608E-02  0.1121502E+00
          2   -1    0    0  502    0  0.00000000000E+00  0.00000000000E+00  0.55884691805E+03  0.55884691805E+03  0.00000000000E+00 0. -1.
          1   -1    0    0  501    0 -0.00000000000E+00 -0.00000000000E+00 -0.26176153847E+04  0.26176153847E+04  0.00000000000E+00 0. -1.
         25    2    1    2    0    0  0.61606638771E+02  0.96646378511E+02 -0.10148134856E+04  0.10288866223E+04  0.12500148248E+03 0.  0.
          2    1    1    2  501    0  0.16969888920E+03 -0.16746728436E+03 -0.15597528107E+04  0.15778693972E+04  0.00000000000E+00 0. -1.
          1    1    1    2  502    0 -0.23130552797E+03  0.70820905851E+02  0.51579782966E+03  0.56970628315E+03  0.00000000000E+00 0. -1.
         22    1    3    3    0    0 -0.25244023066E+02  0.70462046176E+02 -0.35004957359E+03  0.35796209942E+03  0.00000000000E+00 0. -1.
         22    1    3    3    0    0  0.86850661836E+02  0.26184332335E+02 -0.66476391200E+03  0.67092452290E+03  0.00000000000E+00 0. -1.
</event>
<event>
 7    1  0.5593520E-006  0.3392112E+03  0.7818608E-02  0.1241661E+00
          2   -1    0    0  502    0  0.00000000000E+00  0.00000000000E+00  0.25668518226E+04  0.25668518226E+04  0.00000000000E+00 0. -1.
          1   -1    0    0  501    0 -0.00000000000E+00 -0.00000000000E+00 -0.20635844240E+03  0.20635844240E+03  0.00000000000E+00 0. -1.
         25    2    1    2    0    0 -0.19666579617E+03  0.31785528713E+03  0.80384384495E+03  0.89526511567E+03  0.12500112529E+03 0.  0.
          2    1    1    2  501    0  0.16557996574E+03 -0.28804070571E+03  0.11753687546E+02  0.33244897710E+03  0.00000000000E+00 0. -1.
          1    1    1    2  502    0  0.31085830431E+02 -0.29814581419E+02  0.15448958477E+04  0.15454961722E+04  0.00000000000E+00 0. -1.
         22    1    3    3    0    0 -0.41503688785E+02  0.17263130369E+03  0.30284284295E+03  0.35105257544E+03  0.00000000000E+00 0. -1.
         22    1    3    3    0    0 -0.15516210739E+03  0.14522398344E+03  0.50100100200E+03  0.54421254023E+03  0.00000000000E+00 0. -1.
</event>
<event>
 7    1  0.5593520E-006  0.5797959E+02  0.7818608E-02  0.1547465E+00
          2   -1    0    0  502    0  0.00000000000E+00  0.00000000000E+00  0.58348421625E+03  0.58348421625E+03  0.00000000000E+00 0. -1.
          1   -1    0    0  501    0 -0.00000000000E+00 -0.00000000000E+00 -0.41872744985E+03  0.41872744985E+03  0.00000000000E+00 0. -1.
         25    2    1    2    0    0  0.49737228264E+02  0.34131669867E+02  0.23521138712E+03  0.27310623259E+03  0.12499541944E+03 0.  0.
          2    1    1    2  501    0 -0.56304590551E+02 -0.13887091763E+02 -0.39732906065E+03  0.40153884080E+03  0.00000000000E+00 0. -1.
          1    1    1    2  502    0  0.65673622877E+01 -0.20244578104E+02  0.32687443992E+03  0.32756659272E+03  0.00000000000E+00 0. -1.
         22    1    3    3    0    0  0.22391816692E+02 -0.40291022379E+02  0.35341737946E+02  0.58084407375E+02  0.00000000000E+00 0.  1.
         22    1    3    3    0    0  0.27345411572E+02  0.74422692246E+02  0.19986964918E+03  0.21502182521E+03  0.00000000000E+00 0.  1.
</event>
<event>
 7    1  0.5593520E-006  0.1839126E+03  0.7818608E-02  0.1341689E+00
          2   -1    0    0  502    0  0.00000000000E+00  0.00000000000E+00  0.13613652909E+03  0.13613652909E+03  0.00000000000E+00 0. -1.
          1   -1    0    0  501    0 -0.00000000000E+00 -0.00000000000E+00 -0.72860697799E+03  0.72860697799E+03  0.00000000000E+00 0. -1.
         25    2    1    2    0    0  0.16916571485E+03  0.64278123230E+02 -0.10817254346E+03  0.24510275077E+03  0.12500137227E+03 0.  0.
          2    1    1    2  501    0  0.14381214850E+02 -0.27649947048E+02 -0.42086559181E+03  0.42201799166E+03  0.00000000000E+00 0. -1.
          1    1    1    2  502    0 -0.18354692970E+03 -0.36628176182E+02 -0.63432313639E+02  0.19762276465E+03  0.00000000000E+00 0. -1.
         22    1    3    3    0    0  0.50849837016E+02 -0.24508274279E+02 -0.74368160131E+02  0.93364793546E+02  0.00000000000E+00 0. -1.
         22    1    3    3    0    0  0.11831587784E+03  0.88786397509E+02 -0.33804383324E+02  0.15173795723E+03  0.00000000000E+00 0. -1.
</event>
<event>
 7    1  0.5593520E-006  0.1929629E+03  0.7818608E-02  0.1230009E+00
          2   -1    0    0  502    0  0.00000000000E+00  0.00000000000E+00  0.23589858957E+04  0.23589858957E+04  0.00000000000E+00 0. -1.
          1   -1    0    0  501    0 -0.00000000000E+00 -0.00000000000E+00 -0.10157628800E+04  0.10157628800E+04  0.00000000000E+00 0. -1.
         25    2    1    2    0    0 -0.18822904256E+03 -0.31846918729E+02 -0.40240271562E+03  0.46259153204E+03  0.12497432251E+03 0.  0.
          2    1    1    2  501    0  0.26055721298E+01  0.85258375242E+02 -0.57611520376E+03  0.58239549068E+03  0.00000000000E+00 0. -1.
          1    1    1    2  502    0  0.18562347043E+03 -0.53411456514E+02  0.23217409350E+04  0.23297617530E+04  0.00000000000E+00 0. -1.
         22    1    3    3    0    0 -0.16335484331E+03  0.68634511698E+01 -0.21779244281E+03  0.27233336178E+03  0.00000000000E+00 0.  1.
         22    1    3    3    0    0 -0.24874199256E+02 -0.38710369899E+02 -0.18461027280E+03  0.19025817026E+03  0.00000000000E+00 0.  1.
</event>
<event>
 7    1  0.5593520E-006  0.8203485E+02  0.7818608E-02  0.1343825E+00
          2   -1    0    0  502    0  0.00000000000E+00  0.00000000000E+00  0.51932794976E+02  0.51932794976E+02  0.00000000000E+00 0. -1.
          1   -1    0    0  501    0 -0.00000000000E+00 -0.00000000000E+00 -0.22404032337E+04  0.22404032337E+04  0.00000000000E+00 0. -1.
         25    2    1    2    0    0 -0.13030410696E+03  0.61895066021E+02 -0.51272344776E+03  0.54710265943E+03  0.12500330630E+03 0.  0.
          2    1    1    2  501    0  0.65544424953E+02 -0.20229869682E+02 -0.16662310333E+04  0.16676424004E+04  0.00000000000E+00 0. -1.
          1    1    1    2  502    0  0.64759682009E+02 -0.41665196339E+02 -0.95159576896E+01  0.77590968873E+02  0.00000000000E+00 0. -1.
         22    1    3    3    0    0 -0.42880524951E+02  0.75745695774E+02 -0.14714593625E+03  0.17096220753E+03  0.00000000000E+00 0.  1.
         22    1    3    3    0    0 -0.87423582011E+02 -0.13850629753E+02 -0.36557751151E+03  0.37614045190E+03  0.00000000000E+00 0.  1.
</event>
<event>
 7    1  0.5593520E-006  0.6745063E+02  0.7818608E-02  0.1463120E+00
          2   -1    0    0  502    0  0.00000000000E+00  0.00000000000E+00  0.95087418823E+02  0.95087418823E+02  0.00000000000E+00 0. -1.
          1   -1    0    0  501    0 -0.00000000000E+00 -0.00000000000E+00 -0.14241424201E+04  0.14241424201E+04  0.00000000000E+00 0. -1.
         25    2    1    2    0    0 -0.69951387686E+02 -0.22073646103E+02 -0.86461479434E+03  0.87667803967E+03  0.12500080062E+03 0.  0.
          2    1    1    2  501    0  0.32684771916E+01  0.32374827385E+02 -0.54015520360E+03  0.54113441617E+03  0.00000000000E+00 0. -1.
          1    1    1    2  502    0  0.66682910495E+02 -0.10301181282E+02  0.75714996616E+02  0.10141738313E+03  0.00000000000E+00 0. -1.
         22    1    3    3    0    0  0.62001931053E+01  0.48191490998E+01  0.43660506207E+00  0.78649358910E+01  0.00000000000E+00 0. -1.
         22    1    3    3    0    0 -0.76151580792E+02 -0.26892795203E+02 -0.86505139940E+03  0.86881310378E+03  0.00000000000E+00 0. -1.
</event>
<event>
 7    1  0.5593520E-006  0.8522488E+02  0.7818608E-02  0.1498619E+00
          2   -1    0    0  502    0  0.00000000000E+00  0.00000000000E+00  0.73932157359E+03  0.73932157359E+03  0.00000000000E+00 0. -1.
          1   -1    0    0  501    0 -0.00000000000E+00 -0.00000000000E+00 -0.10151957292E+03  0.10151957292E+03  0.00000000000E+00 0. -1.
         25    2    1    2    0    0 -0.57629041806E+02 -0.36478322637E+02  0.13194985722E+03  0.19410546549E+03  0.12495756252E+03 0.  0.
          2    1    1    2  501    0  0.75839537503E+02  0.44860049802E+02 -0.42631952765E+02  0.97885355971E+02  0.00000000000E+00 0. -1.
          1    1    1    2  502    0 -0.18210495698E+02 -0.83817271651E+01  0.54848409621E+03  0.54885032504E+03  0.00000000000E+00 0. -1.
         22    1    3    3    0    0 -0.87710660929E+02 -0.15749186113E+02  0.45080801391E+02  0.99867289729E+02  0.00000000000E+00 0. -1.
         22    1    3    3    0    0  0.30081619123E+02 -0.20729136524E+02  0.86869055832E+02  0.94238175763E+02  0.00000000000E+00 0. -1.
</event>
<event>
 7    1  0.5593520E-006  0.6383124E+02  0.7818608E-02  0.1421630E+00
          2   -1    0    0  502    0  0.00000000000E+00  0.00000000000E+00  0.20879633194E+03  0.20879633194E+03  0.00000000000E+00 0. -1.
          1   -1    0    0  501    0 -0.00000000000E+00 -0.00000000000E+00 -0.10138171585E+04  0.10138171585E+04  0.00000000000E+00 0. -1.
         25    2    1    2    0    0 -0.17837453846E+02 -0.57977132126E+02 -0.13974398575E+03  0.19706403839E+03  0.12500532414E+03 0.  0.
          2    1    1    2  501    0  0.46835152040E+02  0.35649800601E+00 -0.83896415954E+03  0.84027050379E+03  0.00000000000E+00 0. -1.
          1    1    1    2  502    0 -0.28997698194E+02  0.57620634120E+02  0.17368731873E+03  0.18527894825E+03  0.00000000000E+00 0. -1.
         22    1    3    3    0    0  0.10825888950E+02  0.37129095491E+02 -0.49862206968E+02  0.63103163845E+02  0.00000000000E+00 0. -1.
         22    1    3    3    0    0 -0.28663342796E+02 -0.95106227616E+02 -0.89881778783E+02  0.13396087455E+03  0.00000000000E+00 0. -1.
</event>
<event>
 7    1  0.5593520E-006  0.5383916E+02  0.7818608E-02  0.1556471E+00
          2   -1    0    0  502    0  0.00000000000E+00  0.00000000000E+00  0.16073870048E+04  0.16073870048E+04  0.00000000000E+00 0. -1.
          1   -1    0    0  501    0 -0.00000000000E+00 -0.00000000000E+00 -0.14999983041E+02  0.14999983041E+02  0.00000000000E+00 0. -1.
         25    2    1    2    0    0 -0.33760008196E+02  0.61922200658E+02  0.99106674465E+03  0.10014052511E+04  0.12500034982E+03 0.  0.
          2    1    1    2  501    0  0.37429990902E+01 -0.21308733370E+02  0.45878252760E+01  0.22116064315E+02  0.00000000000E+00 0. -1.
          1    1    1    2  502    0  0.30017009106E+02 -0.40613467287E+02  0.59673245187E+03  0.59886567248E+03  0.00000000000E+00 0. -1.
         22    1    3    3    0    0 -0.67188010404E+02 -0.63688648758E+01  0.46381349667E+03  0.46869793137E+03  0.00000000000E+00 0. -1.
         22    1    3    3    0    0  0.33428002208E+02  0.68291065534E+02  0.52725324798E+03  0.53270731971E+03  0.00000000000E+00 0. -1.
</event>
<event>
 7    1  0.5593520E-006  0.7839615E+02  0.7818608E-02  0.1382169E+00
          2   -1    0    0  502    0  0.00000000000E+00  0.00000000000E+00  0.12165682295E+04  0.12165682295E+04  0.00000000000E+00 0. -1.
          1   -1    0    0  501    0 -0.00000000000E+00 -0.00000000000E+00 -0.60040997848E+03  0.60040997848E+03  0.00000000000E+00 0. -1.
         25    2    1    2    0    0  0.45461290897E+02  0.65651756682E+02 -0.34463358046E+03  0.37519766715E+03  0.12499641006E+03 0.  0.
          2    1    1    2  501    0  0.29603553046E+02 -0.42847304252E+02 -0.23637585552E+03  0.24204505140E+03  0.00000000000E+00 0. -1.
          1    1    1    2  502    0 -0.75064843943E+02 -0.22804452430E+02  0.11971676869E+04  0.11997354894E+04  0.00000000000E+00 0. -1.
         22    1    3    3    0    0  0.33108154535E+02  0.38670323900E+02 -0.29839439621E+02  0.59007931706E+02  0.00000000000E+00 0. -1.
         22    1    3    3    0    0  0.12353136362E+02  0.26981432782E+02 -0.31479414084E+03  0.31618973544E+03  0.00000000000E+00 0. -1.
</event>
<event>
 7    1  0.5593520E-006  0.5977368E+02  0.7818608E-02  0.1427002E+00
          2   -1    0    0  502    0  0.00000000000E+00  0.00000000000E+00  0.17958437613E+04  0.17958437613E+04  0.00000000000E+00 0. -1.
          1   -1    0    0  501    0 -0.00000000000E+00 -0.00000000000E+00 -0.30884523420E+04  0.30884523420E+04  0.00000000000E+00 0. -1.
         25    2    1    2    0    0 -0.21082175774E+02 -0.22524613048E+02  0.18213125360E+02  0.13003117281E+03  0.12499828654E+03 0.  0.
          2    1    1    2  501    0  0.59627913377E+02 -0.60869778192E+01 -0.30319124559E+04  0.30325048524E+04  0.00000000000E+00 0. -1.
          1    1    1    2  502    0 -0.38545737603E+02  0.28611590867E+02  0.17210907499E+04  0.17217600780E+04  0.00000000000E+00 0. -1.
         22    1    3    3    0    0 -0.17741075394E+02 -0.59654375863E+02 -0.29997135341E+02  0.69088482719E+02  0.00000000000E+00 0.  1.
         22    1    3    3    0    0 -0.33411003797E+01  0.37129762815E+02  0.48210260702E+02  0.60942690090E+02  0.00000000000E+00 0.  1.
</event>
<event>
 7    1  0.5593520E-006  0.1034570E+03  0.7818608E-02  0.1326125E+00
          2   -1    0    0  502    0  0.00000000000E+00  0.00000000000E+00  0.92536084415E+02  0.92536084415E+02  0.00000000000E+00 0. -1.
          1   -1    0    0  501    0 -0.00000000000E+00 -0.00000000000E+00 -0.10394474805E+04  0.10394474805E+04  0.00000000000E+00 0. -1.
         25    2    1    2    0    0 -0.60111542712E+01 -0.10352095699E+03 -0.48732801934E+03  0.51367909505E+03  0.12499956698E+03 0.  0.
          2    1    1    2  501    0  0.67032607661E+02  0.86022012326E+02 -0.51961377837E+03  0.53093468126E+03  0.00000000000E+00 0. -1.
          1    1    1    2  502    0 -0.61021453390E+02  0.17498944666E+02  0.60030401635E+02  0.87369788592E+02  0.00000000000E+00 0. -1.
         22    1    3    3    0    0  0.58304067532E+01  0.24376090575E+02 -0.32379300604E+02  0.40946386193E+02  0.00000000000E+00 0.  1.
         22    1    3    3    0    0 -0.11841561024E+02 -0.12789704757E+03 -0.45494871874E+03  0.47273270886E+03  0.00000000000E+00 0.  1.
</event>
<event>
 7    1  0.5593520E-006  0.5903717E+02  0.7818608E-02  0.1446551E+00
          2   -1    0    0  502    0  0.00000000000E+00  0.00000000000E+00  0.27103945307E+04  0.27103945307E+04  0.00000000000E+00 0. -1.
          1   -1    0    0  501    0 -0.00000000000E+00 -0.00000000000E+00 -0.32718438109E+03  0.32718438109E+03  0.00000000000E+00 0. -1.
         25    2    1    2    0    0  0.68545873497E+02 -0.72509475149E+02  0.45714191132E+02  0.16637425949E+03  0.12503777905E+03 0.  0.
          2    1    1    2  501    0 -0.38994768035E+02  0.42708983315E+02 -0.26354967440E+03  0.26982045895E+03  0.00000000000E+00 0. -1.
          1    1    1    2  502    0 -0.29551105462E+02  0.29800491834E+02  0.26010456329E+04  0.26013841934E+04  0.00000000000E+00 0. -1.
         22    1    3    3    0    0  0.60963108282E+01  0.10158096431E+02 -0.33773004462E+02  0.35790609930E+02  0.00000000000E+00 0. -1.
         22    1    3    3    0    0  0.62449562669E+02 -0.82667571579E+02  0.79487195594E+02  0.13058364956E+03  0.00000000000E+00 0. -1.
</event>
<event>
 7    1  0.5593520E-006  0.6708394E+02  0.7818608E-02  0.1467168E+00
          2   -1    0    0  502    0  0.00000000000E+00  0.00000000000E+00  0.17634539320E+04  0.17634539320E+04  0.00000000000E+00 0. -1.
          1   -1    0    0  501    0 -0.00000000000E+00 -0.00000000000E+00 -0.22803282647E+02  0.22803282647E+02  0.00000000000E+00 0. -1.
         25    2    1    2    0    0  0.19230988697E+02 -0.62669948440E+02  0.10286196461E+04  0.10382584847E+04  0.12499980538E+03 0.  0.
          2    1    1    2  501    0  0.29122095332E+02  0.12712708465E+02 -0.79924598408E+00  0.31785974693E+02  0.00000000000E+00 0. -1.
          1    1    1    2  502    0 -0.48353084029E+02  0.49957239975E+02  0.71283024922E+03  0.71621275523E+03  0.00000000000E+00 0. -1.
         22    1    3    3    0    0  0.22808176892E+02  0.24459739054E+02  0.97743743188E+02  0.10330697508E+03  0.00000000000E+00 0. -1.
         22    1    3    3    0    0 -0.35771881956E+01 -0.87129687494E+02  0.93087590291E+03  0.93495150962E+03  0.00000000000E+00 0. -1.
</event>
<event>
 7    1  0.5593520E-006  0.9967548E+02  0.7818608E-02  0.1282429E+00
          2   -1    0    0  502    0  0.00000000000E+00  0.00000000000E+00  0.23468850612E+04  0.23468850612E+04  0.00000000000E+00 0. -1.
          1   -1    0    0  501    0 -0.00000000000E+00 -0.00000000000E+00 -0.31691163366E+02  0.31691163366E+02  0.00000000000E+00 0. -1.
         25    2    1    2    0    0  0.29402798442E+02 -0.50980944081E+02  0.61159046691E+03  0.62700210971E+03  0.12500066056E+03 0.  0.
          2    1    1    2  501    0  0.86597526284E+02  0.49356548023E+02  0.91510039490E+02  0.13531181663E+03  0.00000000000E+00 0. -1.
          1    1    1    2  502    0 -0.11600032473E+03  0.16243960581E+01  0.16120933914E+04  0.16162622982E+04  0.00000000000E+00 0. -1.
         22    1    3    3    0    0  0.32617307498E+02 -0.71983909776E+02  0.20271800506E+03  0.21757794372E+03  0.00000000000E+00 0. -1.
         22    1    3    3    0    0 -0.32145090565E+01  0.21002965695E+02  0.40887246185E+03  0.40942416599E+03  0.00000000000E+00 0. -1.
</event>
<event>
 7    1  0.5593520E-006  0.1232943E+03  0.7818608E-02  0.1243815E+00
          2   -1    0    0  502    0  0.00000000000E+00  0.00000000000E+00  0.15420270516E+04  0.15420270516E+04  0.00000000000E+00 0. -1.
          1   -1    0    0  501    0 -0.00000000000E+00 -0.00000000000E+00 -0.66259570680E+03  0.66259570680E+03  0.00000000000E+00 0. -1.
         25    2    1    2    0    0  0.19473573225E+03  0.54792887489E+02  0.45634415226E+02  0.24213236400E+03  0.12498526277E+03 0.  0.
          2    1    1    2  501    0 -0.83484989360E+02 -0.87466550763E+02 -0.55542712809E+03  0.56843595555E+03  0.00000000000E+00 0. -1.
          1    1    1    2  502    0 -0.11125074289E+03  0.32673663273E+02  0.13892240577E+04  0.13940544388E+04  0.00000000000E+00 0. -1.
         22    1    3    3    0    0  0.37140317749E+02 -0.34889548622E+02 -0.11070456349E+02  0.52146321148E+02  0.00000000000E+00 0. -1.
         22    1    3    3    0    0  0.15759541450E+03  0.89682436111E+02  0.56704871575E+02  0.18998604286E+03  0.00000000000E+00 0. -1.
</event>
<event>
 7    1  0.5593520E-006  0.6789362E+02  0.7818608E-02  0.1427260E+00
          2   -1    0    0  502    0  0.00000000000E+00  0.00000000000E+00  0.95865744566E+02  0.95865744566E+02  0.00000000000E+00 0. -1.
          1   -1    0    0  501    0 -0.00000000000E+00 -0.00000000000E+00 -0.39658448598E+03  0.39658448598E+03  0.00000000000E+00 0. -1.
         25    2    1    2    0    0 -0.41200761843E+02 -0.22307044201E+02 -0.25088839709E+03  0.28419145125E+03  0.12499874467E+03 0.  0.
          2    1    1    2  501    0 -0.27853441908E+02  0.31675525476E+02 -0.10897711928E+03  0.11685531938E+03  0.00000000000E+00 0. -1.
          1    1    1    2  502    0  0.69054203751E+02 -0.93684812746E+01  0.59146774960E+02  0.91403459919E+02  0.00000000000E+00 0. -1.
         22    1    3    3    0    0  0.36149128747E+02  0.19512028108E+02 -0.48709304588E+02  0.63718718627E+02  0.00000000000E+00 0.  1.
         22    1    3    3    0    0 -0.77349890590E+02 -0.41819072309E+02 -0.20217909250E+03  0.22047273262E+03  0.00000000000E+00 0.  1.
</event>
<event>
 7    1  0.5593520E-006  0.1417452E+03  0.7818608E-02  0.1243792E+00
          2   -1    0    0  502    0  0.00000000000E+00  0.00000000000E+00  0.13373125497E+04  0.13373125497E+04  0.00000000000E+00 0. -1.
          1   -1    0    0  501    0 -0.00000000000E+00 -0.00000000000E+00 -0.76186444931E+03  0.76186444931E+03  0.00000000000E+00 0. -1.
         25    2    1    2    0    0  0.15943512712E+03  0.59596241585E+02  0.32181798125E+03  0.38491935894E+03  0.12499931225E+03 0.  0.
          2    1    1    2  501    0 -0.77659084024E+02 -0.11866891994E+03 -0.72079995462E+03  0.73461950728E+03  0.00000000000E+00 0. -1.
          1    1    1    2  502    0 -0.81776043099E+02  0.59072678359E+02  0.97443007378E+03  0.97963813280E+03  0.00000000000E+00 0. -1.
         22    1    3    3    0    0  0.69047898023E+02 -0.30947532557E+02  0.73016233768E+02  0.10515099803E+03  0.00000000000E+00 0.  1.
         22    1    3    3    0    0  0.90387229100E+02  0.90543774142E+02  0.24880174748E+03  0.27976836091E+03  0.00000000000E+00 0.  1.
</event>
<event>
 7    1  0.5593520E-006  0.2196194E+03  0.7818608E-02  0.1250674E+00
          2   -1    0    0  502    0  0.00000000000E+00  0.00000000000E+00  0.41277161015E+03  0.41277161015E+03  0.00000000000E+00 0. -1.
          1   -1    0    0  501    0 -0.00000000000E+00 -0.00000000000E+00 -0.57811988180E+03  0.57811988180E+03  0.00000000000E+00 0. -1.
         25    2    1    2    0    0 -0.15623860491E+03  0.77746851204E+02  0.14271593559E+03  0.25777495798E+03  0.12500006462E+03 0.  0.
          2    1    1    2  501    0  0.18229278400E+03 -0.13264259949E+03 -0.49103755718E+03  0.54031712989E+03  0.00000000000E+00 0. -1.
          1    1    1    2  502    0 -0.26054179089E+02  0.54895748289E+02  0.18297334993E+03  0.19279940408E+03  0.00000000000E+00 0. -1.
         22    1    3    3    0    0 -0.12884118817E+03  0.11191033710E+03  0.11811897127E+03  0.20754774557E+03  0.00000000000E+00 0.  1.
         22    1    3    3    0    0 -0.27397416740E+02 -0.34163485894E+02  0.24596964318E+02  0.50227212407E+02  0.00000000000E+00 0.  1.
</event>
<event>
 7    1  0.5593520E-006  0.7266286E+02  0.7818608E-02  0.1436273E+00
          2   -1    0    0  502    0  0.00000000000E+00  0.00000000000E+00  0.43904105746E+02  0.43904105746E+02  0.00000000000E+00 0. -1.
          1   -1    0    0  501    0 -0.00000000000E+00 -0.00000000000E+00 -0.71453351150E+03  0.71453351150E+03  0.00000000000E+00 0. -1.
         25    2    1    2    0    0  0.74076003675E+02  0.14131739923E+01 -0.32486527813E+03  0.35588167817E+03  0.12500027418E+03 0.  0.
          2    1    1    2  501    0 -0.10279035246E+02  0.35350988611E+02 -0.32356181799E+03  0.32564950640E+03  0.00000000000E+00 0. -1.
          1    1    1    2  502    0 -0.63796968429E+02 -0.36764162603E+02 -0.22202309638E+02  0.76906432669E+02  0.00000000000E+00 0. -1.
         22    1    3    3    0    0  0.78929852023E+02 -0.50092730976E+02 -0.20308063837E+03  0.22356419418E+03  0.00000000000E+00 0. -1.
         22    1    3    3    0    0 -0.48538483483E+01  0.51505904968E+02 -0.12178463976E+03  0.13231748400E+03  0.00000000000E+00 0. -1.
</event>
<event>
 7    1  0.5593520E-006  0.8108466E+02  0.7818608E-02  0.1427964E+00
          2   -1    0    0  502    0  0.00000000000E+00  0.00000000000E+00  0.38082589040E+04  0.38082589040E+04  0.00000000000E+00 0. -1.
          1   -1    0    0  501    0 -0.00000000000E+00 -0.00000000000E+00 -0.12352887607E+03  0.12352887607E+03  0.00000000000E+00 0. -1.
         25    2    1    2    0    0  0.69531801736E+02  0.87249005068E+02  0.15042313218E+04  0.15135335560E+04  0.12499958205E+03 0.  0.
          2    1    1    2  501    0 -0.18047209850E+02 -0.30139049876E+02 -0.11562485966E+03  0.12084358602E+03  0.00000000000E+00 0. -1.
          1    1    1    2  502    0 -0.51484591886E+02 -0.57109955192E+02  0.22961235658E+04  0.22974106380E+04  0.00000000000E+00 0. -1.
         22    1    3    3    0    0  0.33605503684E+02 -0.78361158957E+01  0.10312675765E+03  0.10874678263E+03  0.00000000000E+00 0.  1.
         22    1    3    3    0    0  0.35926298052E+02  0.95085120964E+02  0.14011045641E+04  0.14047867734E+04  0.00000000000E+00 0.  1.
</event>
<event>
 7    1  0.5593520E-006  0.1311018E+03  0.7818608E-02  0.1338083E+00
          2   -1    0    0  502    0  0.00000000000E+00  0.00000000000E+00  0.15934688168E+03  0.15934688168E+03  0.00000000000E+00 0. -1.
          1   -1    0    0  501    0 -0.00000000000E+00 -0.00000000000E+00 -0.49351820302E+03  0.49351820302E+03  0.00000000000E+00 0. -1.
         25    2    1    2    0    0 -0.93385748419E+02 -0.23178326043E+01 -0.17288366832E+03  0.23288908507E+03  0.12498917080E+03 0.  0.
          2    1    1    2  501    0 -0.44627587774E+02  0.65678518188E+01 -0.25119056548E+03  0.25520865669E+03  0.00000000000E+00 0. -1.
          1    1    1    2  502    0  0.13801333619E+03 -0.42500192145E+01  0.89902912455E+02  0.16476734294E+03  0.00000000000E+00 0. -1.
         22    1    3    3    0    0  0.90501309274E+01  0.35218696605E+02 -0.11591921082E+02  0.38165876051E+02  0.00000000000E+00 0. -1.
         22    1    3    3    0    0 -0.10243587935E+03 -0.37536529210E+02 -0.16129174724E+03  0.19472320902E+03  0.00000000000E+00 0. -1.
</event>
<event>
 7    1  0.5593520E-006  0.6397741E+02  0.7818608E-02  0.1466327E+00
          2   -1    0    0  502    0  0.00000000000E+00  0.00000000000E+00  0.16206271198E+04  0.16206271198E+04  0.00000000000E+00 0. -1.
          1   -1    0    0  501    0 -0.00000000000E+00 -0.00000000000E+00 -0.63171867750E+02  0.63171867750E+02  0.00000000000E+00 0. -1.
         25    2    1    2    0    0  0.48296264221E+02 -0.69585594866E+02  0.56030682042E+02  0.16105498294E+03  0.12499834418E+03 0.  0.
          2    1    1    2  501    0 -0.33669568989E+02  0.39423918339E+02  0.53741327095E+02  0.74672722269E+02  0.00000000000E+00 0. -1.
          1    1    1    2  502    0 -0.14626695231E+02  0.30161676528E+02  0.14476832429E+04  0.14480712823E+04  0.00000000000E+00 0. -1.
         22    1    3    3    0    0  0.37368917374E+02 -0.10625256256E+03  0.44372106302E+02  0.12105753530E+03  0.00000000000E+00 0. -1.
         22    1    3    3    0    0  0.10927346846E+02  0.36666967692E+02  0.11658575740E+02  0.39997447632E+02  0.00000000000E+00 0. -1.
</event>
<event>
 7    1  0.5593520E-006  0.1050238E+03  0.7818608E-02  0.1390891E+00
          2   -1    0    0  502    0  0.00000000000E+00  0.00000000000E+00  0.60977168542E+03  0.60977168542E+03  0.00000000000E+00 0. -1.
          1   -1    0    0  501    0 -0.00000000000E+00 -0.00000000000E+00 -0.26478905335E+03  0.26478905335E+03  0.00000000000E+00 0. -1.
         25    2    1    2    0    0 -0.88209873037E+02  0.10750339091E+03 -0.63595207500E+01  0.18709161778E+03  0.12499947672E+03 0.  0.
          2    1    1    2  501    0  0.26325719690E+02 -0.24892848691E+02 -0.16090108560E+03  0.16492985412E+03  0.00000000000E+00 0. -1.
          1    1    1    2  502    0  0.61884153347E+02 -0.82610542224E+02  0.51224323841E+03  0.52253926687E+03  0.00000000000E+00 0. -1.
         22    1    3    3    0    0 -0.42573984426E+02  0.12155199855E+03  0.23296720010E+02  0.13088227406E+03  0.00000000000E+00 0. -1.
         22    1    3    3    0    0 -0.45635888611E+02 -0.14048607631E+02 -0.29656240760E+02  0.56209343722E+02  0.00000000000E+00 0. -1.
</event>
<event>
 7    1  0.5593520E-006  0.1424500E+03  0.7818608E-02  0.1310164E+00
          2   -1    0    0  502    0  0.00000000000E+00  0.00000000000E+00  0.48640871601E+03  0.48640871601E+03  0.00000000000E+00 0. -1.
          1   -1    0    0  501    0 -0.00000000000E+00 -0.00000000000E+00 -0.33925630467E+03  0.33925630467E+03  0.00000000000E+00 0. -1.
         25    2    1    2    0    0  0.13908576698E+03 -0.49266236200E+02  0.92537461608E+02  0.21438196409E+03  0.12499772846E+03 0.  0.
          2    1    1    2  501    0  0.40054842115E+01  0.53041313879E+02 -0.26013255265E+03  0.26551529114E+03  0.00000000000E+00 0. -1.
          1    1    1    2  502    0 -0.14309125119E+03 -0.37750776791E+01  0.31474750238E+03  0.34576776546E+03  0.00000000000E+00 0. -1.
         22    1    3    3    0    0  0.14237572772E+03 -0.12127510104E+00  0.55734130246E+02  0.15289589865E+03  0.00000000000E+00 0.  1.
         22    1    3    3    0    0 -0.32899607427E+01 -0.49144961099E+02  0.36803331362E+02  0.61486065433E+02  0.00000000000E+00 0.  1.
</event>
<event>
 7    1  0.5593520E-006  0.3336236E+02  0.7818608E-02  0.1598928E+00
          2   -1    0    0  502    0  0.00000000000E+00  0.00000000000E+00  0.31321832865E+03  0.31321832865E+03  0.00000000000E+00 0. -1.
          1   -1    0    0  501    0 -0.00000000000E+00 -0.00000000000E+00 -0.21348042716E+04  0.21348042716E+04  0.00000000000E+00 0. -1.
         25    2    1    2    0    0 -0.34350587261E+02  0.49050551551E+02  0.26728146672E+02  0.14115788665E+03  0.12500094275E+03 0.  0.
          2    1    1    2  501    0  0.16689361292E+02 -0.28839563461E+02 -0.20766697722E+04  0.20769370713E+04  0.00000000000E+00 0. -1.
          1    1    1    2  502    0  0.17661225968E+02 -0.20210988090E+02  0.22835568258E+03  0.22992764233E+03  0.00000000000E+00 0. -1.
         22    1    3    3    0    0 -0.74344013981E+01  0.58915782312E+02 -0.37907102491E+02  0.70450607867E+02  0.00000000000E+00 0. -1.
         22    1    3    3    0    0 -0.26916185863E+02 -0.98652307604E+01  0.64635249162E+02  0.70707278788E+02  0.00000000000E+00 0. -1.
</event>
<event>
 7    1  0.5593520E-006  0.1568037E+03  0.7818608E-02  0.1236041E+00
          2   -1    0    0  502    0  0.00000000000E+00  0.00000000000E+00  0.32032365549E+03  0.32032365549E+03  0.00000000000E+00 0. -1.
          1   -1    0    0  501    0 -0.00000000000E+00 -0.00000000000E+00 -0.99694106234E+03  0.99694106234E+03  0.00000000000E+00 0. -1.
         25    2    1    2    0    0  0.14369113618E+03 -0.14007688800E+03 -0.18608269316E+03  0.30086615386E+03  0.12499998669E+03 0.  0.
          2    1    1    2  501    0 -0.98346538155E+02 -0.78699207939E+01 -0.72707603852E+03  0.73373942446E+03  0.00000000000E+00 0. -1.
          1    1    1    2  502    0 -0.45344598030E+02  0.14794680879E+03  0.23654132483E+03  0.28265913952E+03  0.00000000000E+00 0. -1.
         22    1    3    3    0    0 -0.31980895620E+01  0.19288515199E+02 -0.18260043023E+02  0.26752640367E+02  0.00000000000E+00 0. -1.
         22    1    3    3    0    0  0.14688922575E+03 -0.15936540320E+03 -0.16782265014E+03  0.27411351349E+03  0.00000000000E+00 0. -1.
</event>
<event>
 7    1  0.5593520E-006  0.7536910E+02  0.7818608E-02  0.1370523E+00
          2   -1    0    0  502    0  0.00000000000E+00  0.00000000000E+00  0.34975741529E+03  0.34975741529E+03  0.00000000000E+00 0. -1.
          1   -1    0    0  501    0 -0.00000000000E+00 -0.00000000000E+00 -0.10424740220E+03  0.10424740220E+03  0.00000000000E+00 0. -1.
         25    2    1    2    0    0  0.71438932259E+02  0.37975884387E+02  0.11123781647E+03  0.18586114944E+03  0.12499930488E+03 0.  0.
          2    1    1    2  501    0 -0.23915178024E+02 -0.73942027539E+02 -0.37527400744E+02  0.86299855058E+02  0.00000000000E+00 0. -1.
          1    1    1    2  502    0 -0.47523754236E+02  0.35966143151E+02  0.17179959737E+03  0.18184381300E+03  0.00000000000E+00 0. -1.
         22    1    3    3    0    0  0.18440766612E+02  0.16380339788E+02  0.12466197580E+03  0.12707865917E+03  0.00000000000E+00 0. -1.
         22    1    3    3    0    0  0.52998165648E+02  0.21595544599E+02 -0.13424159334E+02  0.58782490270E+02  0.00000000000E+00 0. -1.
</event>
<event>
 7    1  0.5593520E-006  0.9022305E+02  0.7818608E-02  0.1387865E+00
          2   -1    0    0  502    0  0.00000000000E+00  0.00000000000E+00  0.28191287449E+04  0.28191287449E+04  0.00000000000E+00 0. -1.
          1   -1    0    0  501    0 -0.00000000000E+00 -0.00000000000E+00 -0.34510942941E+03  0.34510942941E+03  0.00000000000E+00 0. -1.
         25    2    1    2    0    0 -0.65010121969E+02  0.24187735968E+02  0.72943378170E+02  0.16048939194E+03  0.12499898391E+03 0.  0.
          2    1    1    2  501    0  0.91348452175E+02  0.10071817962E+02 -0.29415208505E+03  0.30817435060E+03  0.00000000000E+00 0. -1.
          1    1    1    2  502    0 -0.26338330206E+02 -0.34259553930E+02  0.26952280224E+04  0.26955744318E+04  0.00000000000E+00 0. -1.
         22    1    3    3    0    0 -0.75693123854E+02 -0.18990555877E+02  0.83999135068E+02  0.11465576699E+03  0.00000000000E+00 0. -1.
         22    1    3    3    0    0  0.10683001885E+02  0.43178291845E+02 -0.11055756898E+02  0.45833624955E+02  0.00000000000E+00 0. -1.
</event>
<event>
 7    1  0.5593520E-006  0.9460382E+02  0.7818608E-02  0.1399590E+00
          2   -1    0    0  502    0  0.00000000000E+00  0.00000000000E+00  0.16409096189E+04  0.16409096189E+04  0.00000000000E+00 0. -1.
          1   -1    0    0  501    0 -0.00000000000E+00 -0.00000000000E+00 -0.38686401736E+03  0.38686401736E+03  0.00000000000E+00 0. -1.
         25    2    1    2    0    0 -0.87552533634E+02 -0.18046759473E+02 -0.49151659374E+02  0.16134304978E+03  0.12499824967E+03 0.  0.
          2    1    1    2  501    0 -0.52721916997E+01  0.37154065378E+02 -0.27894228093E+03  0.28145517701E+03  0.00000000000E+00 0. -1.
          1    1    1    2  502    0  0.92824725334E+02 -0.19107305904E+02  0.15821395418E+04  0.15849754094E+04  0.00000000000E+00 0. -1.
         22    1    3    3    0    0 -0.23938169945E+01  0.46638279909E+02 -0.13375764786E+02  0.48577470048E+02  0.00000000000E+00 0.  1.
         22    1    3    3    0    0 -0.85158716640E+02 -0.64685039382E+02 -0.35775894589E+02  0.11276557974E+03  0.00000000000E+00 0.  1.
</event>
<event>
 7    1  0.5593520E-006  0.6203914E+02  0.7818608E-02  0.1452915E+00
          2   -1    0    0  502    0  0.00000000000E+00  0.00000000000E+00  0.79375106680E+03  0.79375106680E+03  0.00000000000E+00 0. -1.
          1   -1    0    0  501    0 -0.00000000000E+00 -0.00000000000E+00 -0.57132003286E+03  0.57132003286E+03  0.00000000000E+00 0. -1.
         25    2    1    2    0    0 -0.67840478243E+02 -0.58051562645E+02  0.28723558326E+02  0.15627796027E+03  0.12500177458E+03 0.  0.
          2    1    1    2  501    0  0.29968883462E+02  0.53815534093E+02 -0.50515288601E+03  0.50889457054E+03  0.00000000000E+00 0. -1.
          1    1    1    2  502    0  0.37871594781E+02  0.42360285520E+01  0.69886036162E+03  0.69989856885E+03  0.00000000000E+00 0. -1.
         22    1    3    3    0    0 -0.18145542214E+02 -0.15362842808E+02  0.73285786114E+02  0.77045986837E+02  0.00000000000E+00 0.  1.
         22    1    3    3    0    0 -0.49694936029E+02 -0.42688719837E+02 -0.44562227788E+02  0.79231973431E+02  0.00000000000E+00 0.  1.
</event>
<event>
 7    1  0.5593520E-006  0.7879070E+02  0.7818608E-02  0.1406310E+00
          2   -1    0    0  502    0  0.00000000000E+00  0.00000000000E+00  0.24229395592E+03  0.24229395592E+03  0.00000000000E+00 0. -1.
          1   -1    0    0  501    0 -0.00000000000E+00 -0.00000000000E+00 -0.42517146953E+03  0.42517146953E+03  0.00000000000E+00 0. -1.
         25    2    1    2    0    0 -0.20216695484E+02 -0.35491085956E+02 -0.57405170183E+02  0.14345722948E+03  0.12496515981E+03 0.  0.
          2    1    1    2  501    0  0.40168911914E+02  0.73280055443E+02 -0.31696976146E+03  0.32780075914E+03  0.00000000000E+00 0. -1.
          1    1    1    2  502    0 -0.19952216430E+02 -0.37788969487E+02  0.19149741803E+03  0.19620743683E+03  0.00000000000E+00 0. -1.
         22    1    3    3    0    0  0.19011034310E+02  0.35291895951E+02  0.61527308885E+01  0.40556053096E+02  0.00000000000E+00 0. -1.
         22    1    3    3    0    0 -0.39227729794E+02 -0.70782981907E+02 -0.63557901072E+02  0.10290117638E+03  0.00000000000E+00 0. -1.
</event>
<event>
 7    1  0.5593520E-006  0.2033550E+03  0.7818608E-02  0.1331662E+00
          2   -1    0    0  502    0  0.00000000000E+00  0.00000000000E+00  0.54081833084E+03  0.54081833084E+03  0.00000000000E+00 0. -1.
          1   -1    0    0  501    0 -0.00000000000E+00 -0.00000000000E+00 -0.17695891425E+04  0.17695891425E+04  0.00000000000E+00 0. -1.
         25    2    1    2    0    0  0.14333951454E+03 -0.13958120076E+03 -0.28866581429E+03  0.37280290390E+03  0.12499969915E+03 0.  0.
          2    1    1    2  501    0 -0.12325519163E+03  0.16287641628E+03 -0.14311222333E+04  0.14456249223E+04  0.00000000000E+00 0. -1.
          1    1    1    2  502    0 -0.20084322905E+02 -0.23295215521E+02  0.49101723601E+03  0.49197964709E+03  0.00000000000E+00 0. -1.
         22    1    3    3    0    0  0.65490226771E+02 -0.60249296013E+01 -0.15524075137E+03  0.16859703575E+03  0.00000000000E+00 0.  1.
         22    1    3    3    0    0  0.77849287765E+02 -0.13355627116E+03 -0.13342506292E+03  0.20420586815E+03  0.00000000000E+00 0.  1.
</event>
<event>
 7    1  0.5593520E-006  0.4514803E+02  0.7818608E-02  0.1573090E+00
          2   -1    0    0  502    0  0.00000000000E+00  0.00000000000E+00  0.30310352268E+03  0.30310352268E+03  0.00000000000E+00 0. -1.
          1   -1    0    0  501    0 -0.00000000000E+00 -0.00000000000E+00 -0.18782529015E+04  0.18782529015E+04  0.00000000000E+00 0. -1.
         25    2    1    2    0    0  0.31805675083E+02 -0.56209280057E+02 -0.51792695006E+02  0.14990073602E+03  0.12496664863E+03 0.  0.
          2    1    1    2  501    0 -0.30658307886E+02  0.33001895441E+02 -0.17765888138E+04  0.17771597762E+04  0.00000000000E+00 0. -1.
          1    1    1    2  502    0 -0.11473671970E+01  0.23207384616E+02  0.25323213000E+03  0.25429591191E+03  0.00000000000E+00 0. -1.
         22    1    3    3    0    0  0.67810536386E+02  0.32177239845E+01 -0.94738422776E+01  0.68544702787E+02  0.00000000000E+00 0.  1.
         22    1    3    3    0    0 -0.36004861303E+02 -0.59427004042E+02 -0.42318852728E+02  0.81356033231E+02  0.00000000000E+00 0.  1.
</event>
<event>
 7    1  0.5593520E-006  0.9621237E+02  0.7818608E-02  0.1366677E+00
          2   -1    0    0  502    0  0.00000000000E+00  0.00000000000E+00  0.35406504474E+03  0.35406504474E+03  0.00000000000E+00 0. -1.
          1   -1    0    0  501    0 -0.00000000000E+00 -0.00000000000E+00 -0.99270717813E+03  0.99270717813E+03  0.00000000000E+00 0. -1.
         25    2    1    2    0    0  0.48289061259E+02 -0.98035282631E+02 -0.60269485927E+03  0.62514715404E+03  0.12500048292E+03 0.  0.
          2    1    1    2  501    0 -0.34061635291E+00  0.93103842892E+02 -0.37131572758E+03  0.38281041147E+03  0.00000000000E+00 0. -1.
          1    1    1    2  502    0 -0.47948444906E+02  0.49314397388E+01  0.33536845346E+03  0.33881465736E+03  0.00000000000E+00 0. -1.
         22    1    3    3    0    0  0.74583486344E+02 -0.22862649471E+02 -0.39662829639E+03  0.40422691978E+03  0.00000000000E+00 0. -1.
         22    1    3    3    0    0 -0.26294425085E+02 -0.75172633160E+02 -0.20606656288E+03  0.22092023426E+03  0.00000000000E+00 0. -1.
</event>
<event>
 7    1  0.5593520E-006  0.1060478E+03  0.7818608E-02  0.1271080E+00
          2   -1    0    0  502    0  0.00000000000E+00  0.00000000000E+00  0.48407798689E+03  0.48407798689E+03  0.00000000000E+00 0. -1.
          1   -1    0    0  501    0 -0.00000000000E+00 -0.00000000000E+00 -0.36872301472E+03  0.36872301472E+03  0.00000000000E+00 0. -1.
         25    2    1    2    0    0 -0.26790145809E+02 -0.61232402287E+02  0.23207495109E+03  0.27193818527E+03  0.12499789872E+03 0.  0.
          2    1    1    2  501    0 -0.27041641850E+02 -0.99389373486E+02 -0.30834534585E+03  0.32509437132E+03  0.00000000000E+00 0. -1.
          1    1    1    2  502    0  0.53831787659E+02  0.16062177577E+03  0.19162536693E+03  0.25576844502E+03  0.00000000000E+00 0. -1.
         22    1    3    3    0    0 -0.61919128940E+02 -0.46141700486E+02  0.66196016828E+02  0.10171011600E+03  0.00000000000E+00 0. -1.
         22    1    3    3    0    0  0.35128983131E+02 -0.15090701801E+02  0.16587893427E+03  0.17022806928E+03  0.00000000000E+00 0. -1.
</event>
<event>
 7    1  0.5593520E-006  0.8902409E+02  0.7818608E-02  0.1419552E+00
          2   -1    0    0  502    0  0.00000000000E+00  0.00000000000E+00  0.54312094452E+03  0.54312094452E+03  0.00000000000E+00 0. -1.
          1   -1    0    0  501    0 -0.00000000000E+00 -0.00000000000E+00 -0.47223856836E+03  0.47223856836E+03  0.00000000000E+00 0. -1.
         25    2    1    2    0    0 -0.65345453703E+01 -0.57002479211E+02 -0.64109502735E+02  0.15174496995E+03  0.12499809856E+03 0.  0.
          2    1    1    2  501    0  0.77632247132E+01 -0.33228052351E+02 -0.35941943118E+03  0.36103559191E+03  0.00000000000E+00 0. -1.
          1    1    1    2  502    0 -0.12286793429E+01  0.90230531562E+02  0.49441131008E+03  0.50257895102E+03  0.00000000000E+00 0. -1.
         22    1    3    3    0    0  0.18768428694E+02  0.14721214983E+02 -0.71458656310E+02  0.75334637770E+02  0.00000000000E+00 0. -1.
         22    1    3    3    0    0 -0.25302974064E+02 -0.71723694194E+02  0.73491535757E+01  0.76410332179E+02  0.00000000000E+00 0. -1.
</event>
<event>
 7    1  0.5593520E-006  0.1155807E+03  0.7818608E-02  0.1291126E+00
          2   -1    0    0  502    0  0.00000000000E+00  0.00000000000E+00  0.32852020100E+04  0.32852020100E+04  0.00000000000E+00 0. -1.
          1   -1    0    0  501    0 -0.00000000000E+00 -0.00000000000E+00 -0.25900887840E+03  0.25900887840E+03  0.00000000000E+00 0. -1.
         25    2    1    2    0    0 -0.18685654587E+03  0.40611077653E+02  0.39717080759E+03  0.45818752414E+03  0.12500611389E+03 0.  0.
          2    1    1    2  501    0  0.11043885501E+03 -0.24388775469E+02 -0.21393591659E+03  0.24199200291E+03  0.00000000000E+00 0. -1.
          1    1    1    2  502    0  0.76417690862E+02 -0.16222302184E+02  0.28429582406E+04  0.28440313614E+04  0.00000000000E+00 0. -1.
         22    1    3    3    0    0 -0.75670927101E+02  0.28845928756E+01  0.47643225498E+02  0.89466681062E+02  0.00000000000E+00 0. -1.
         22    1    3    3    0    0 -0.11118561877E+03  0.37726484778E+02  0.34952758209E+03  0.36872084308E+03  0.00000000000E+00 0. -1.
</event>
<event>
 7    1  0.5593520E-006  0.1619784E+03  0.7818608E-02  0.1346784E+00
          2   -1    0    0  502    0  0.00000000000E+00  0.00000000000E+00  0.35979487312E+04  0.35979487312E+04  0.00000000000E+00 0. -1.
          1   -1    0    0  501    0 -0.00000000000E+00 -0.00000000000E+00 -0.21161436387E+03  0.21161436387E+03  0.00000000000E+00 0. -1.
         25    2    1    2    0    0 -0.84623423057E+02 -0.15475034741E+03  0.69556385575E+03  0.72838424795E+03  0.12500296591E+03 0.  0.
          2    1    1    2  501    0  0.33762430893E+02  0.26789474766E+01 -0.19148960827E+03  0.19446168922E+03  0.00000000000E+00 0. -1.
          1    1    1    2  502    0  0.50860992164E+02  0.15207139994E+03  0.28822601199E+04  0.28867171579E+04  0.00000000000E+00 0. -1.
         22    1    3    3    0    0 -0.95132830115E+02 -0.82414390675E+02  0.28778651335E+03  0.31410740905E+03  0.00000000000E+00 0. -1.
         22    1    3    3    0    0  0.10509407057E+02 -0.72335956738E+02  0.40777734240E+03  0.41427683890E+03  0.00000000000E+00 0. -1.
</event>
<event>
 7    1  0.5593520E-006  0.1851455E+03  0.7818608E-02  0.1258629E+00
          2   -1    0    0  502    0  0.00000000000E+00  0.00000000000E+00  0.13855649228E+04  0.13855649228E+04  0.00000000000E+00 0. -1.
          1   -1    0    0  501    0 -0.00000000000E+00 -0.00000000000E+00 -0.47606882206E+03  0.47606882206E+03  0.00000000000E+00 0. -1.
         25    2    1    2    0    0  0.20930051325E+02 -0.12734169071E+03  0.71675258794E+02  0.19343384102E+03  0.12500133954E+03 0.  0.
          2    1    1    2  501    0  0.35821651029E+02 -0.56161466642E+02 -0.40509222552E+03  0.41053259578E+03  0.00000000000E+00 0. -1.
          1    1    1    2  502    0 -0.56751702353E+02  0.18350315735E+03  0.12429130675E+04  0.12576673081E+04  0.00000000000E+00 0. -1.
         22    1    3    3    0    0  0.51230749348E+02 -0.91898037125E+02 -0.31586704201E+01  0.10526070542E+03  0.00000000000E+00 0. -1.
         22    1    3    3    0    0 -0.30300698023E+02 -0.35443653585E+02  0.74833929214E+02  0.88173135601E+02  0.00000000000E+00 0. -1.
</event>
<event>
 7    1  0.5593520E-006  0.9336394E+02  0.7818608E-02  0.1362029E+00
          2   -1    0    0  502    0  0.00000000000E+00  0.00000000000E+00  0.69557163926E+03  0.69557163926E+03  0.00000000000E+00 0. -1.
          1   -1    0    0  501    0 -0.00000000000E+00 -0.00000000000E+00 -0.44588580406E+03  0.44588580406E+03  0.00000000000E+00 0. -1.
         25    2    1    2    0    0  0.79259796289E+01 -0.75403102905E+02 -0.21266398254E+02  0.14773010679E+03  0.12499390256E+03 0.  0.
          2    1    1    2  501    0 -0.50866623198E+02 -0.88883257042E+01 -0.35597621012E+03  0.35970192919E+03  0.00000000000E+00 0. -1.
          1    1    1    2  502    0  0.42940643569E+02  0.84291428609E+02  0.62692844357E+03  0.63402540735E+03  0.00000000000E+00 0. -1.
         22    1    3    3    0    0 -0.22175766607E+02 -0.95470797206E+02 -0.41319914652E+02  0.10636622157E+03  0.00000000000E+00 0. -1.
         22    1    3    3    0    0  0.30101746236E+02  0.20067694301E+02  0.20053516397E+02  0.41363885225E+02  0.00000000000E+00 0. -1.
</event>
<event>
 7    1  0.5593520E-006  0.7687276E+02  0.7818608E-02  0.1381797E+00
          2   -1    0    0  502    0  0.00000000000E+00  0.00000000000E+00  0.21922585501E+03  0.21922585501E+03  0.00000000000E+00 0. -1.
          1   -1    0    0  501    0 -0.00000000000E+00 -0.00000000000E+00 -0.77780091788E+03  0.77780091788E+03  0.00000000000E+00 0. -1.
         25    2    1    2    0    0  0.99807473683E+01  0.12054132371E+03  0.99765140246E+02  0.20051897092E+03  0.12499979380E+03 0.  0.
          2    1    1    2  501    0  0.16785796688E+02 -0.74481509263E+02 -0.71480968618E+03  0.71887561209E+03  0.00000000000E+00 0. -1.
          1    1    1    2  502    0 -0.26766544056E+02 -0.46059814450E+02  0.56469483067E+02  0.77632189881E+02  0.00000000000E+00 0. -1.
         22    1    3    3    0    0 -0.37003857958E+02 -0.69895172672E+01  0.27161094702E+02  0.46431281706E+02  0.00000000000E+00 0. -1.
         22    1    3    3    0    0  0.46984605326E+02  0.12753084098E+03  0.72604045544E+02  0.15408768922E+03  0.00000000000E+00 0. -1.
</event>
<event>
 7    1  0.5593520E-006  0.1665982E+03  0.7818608E-02  0.1223481E+00
          2   -1    0    0  502    0  0.00000000000E+00  0.00000000000E+00  0.27617962887E+04  0.27617962887E+04  0.00000000000E+00 0. -1.
          1   -1    0    0  501    0 -0.00000000000E+00 -0.00000000000E+00 -0.10832904071E+03  0.10832904071E+03  0.00000000000E+00 0. -1.
         25    2    1    2    0    0 -0.12409291780E+03  0.18163457853E+03  0.67761278623E+03  0.72330815816E+03  0.12500172490E+03 0.  0.
          2    1    1    2  501    0 -0.18099310174E+02 -0.10416312899E+03 -0.48272924258E+02  0.11622313748E+03  0.00000000000E+00 0. -1.
          1    1    1    2  502    0  0.14219222798E+03 -0.77471449543E+02  0.20241273861E+04  0.20305940338E+04  0.00000000000E+00 0. -1.
         22    1    3    3    0    0 -0.18135571739E+00 -0.63964488172E+01 -0.25108533443E+01  0.68739967911E+01  0.00000000000E+00 0. -1.
         22    1    3    3    0    0 -0.12391156209E+03  0.18803102735E+03  0.68012363958E+03  0.71643416137E+03  0.00000000000E+00 0. -1.
</event>
<event>
 7    1  0.5593520E-006  0.1019390E+03  0.7818608E-02  0.1405373E+00
          2   -1    0    0  502    0  0.00000000000E+00  0.00000000000E+00  0.12624400152E+03  0.12624400152E+03  0.00000000000E+00 0. -1.
          1   -1    0    0  501    0 -0.00000000000E+00 -0.00000000000E+00 -0.63001912662E+03  0.63001912662E+03  0.00000000000E+00 0. -1.
         25    2    1    2    0    0 -0.37685128816E+02 -0.11380003358E+03 -0.25854854302E+03  0.31119538984E+03  0.12499841992E+03 0.  0.
          2    1    1    2  501    0  0.87219471964E+01  0.97422511090E+02 -0.33517875826E+03  0.34915901538E+03  0.00000000000E+00 0. -1.
          1    1    1    2  502    0  0.28963181619E+02  0.16377522489E+02  0.89952176178E+02  0.95908722917E+02  0.00000000000E+00 0. -1.
         22    1    3    3    0    0  0.21516116931E+02 -0.30810577277E+02 -0.49873106553E+01  0.37909210326E+02  0.00000000000E+00 0.  1.
         22    1    3    3    0    0 -0.59201245746E+02 -0.82989456301E+02 -0.25356123237E+03  0.27328617952E+03  0.00000000000E+00 0.  1.
</event>
<event>
 7    1  0.5593520E-006  0.1602360E+03  0.7818608E-02  0.1241207E+00
          2   -1    0    0  502    0  0.00000000000E+00  0.00000000000E+00  0.53591178186E+03  0.53591178186E+03  0.00000000000E+00 0. -1.
          1   -1    0    0  501    0 -0.00000000000E+00 -0.00000000000E+00 -0.40097305769E+03  0.40097305769E+03  0.00000000000E+00 0. -1.
         25    2    1    2    0    0 -0.13502290061E+02  0.21943441712E+03 -0.20751855024E+03  0.32713465642E+03  0.12497743588E+03 0.  0.
          2    1    1    2  501    0  0.11932847696E+02 -0.12784490564E+03 -0.96953119462E+02  0.16089319477E+03  0.00000000000E+00 0. -1.
          1    1    1    2  502    0  0.15694423655E+01 -0.91589511482E+02  0.43941039387E+03  0.44885698836E+03  0.00000000000E+00 0. -1.
         22    1    3    3    0    0 -0.29258384761E+02  0.12088396111E+03 -0.37354768786E+02  0.12986286568E+03  0.00000000000E+00 0. -1.
         22    1    3    3    0    0  0.15756094700E+02  0.98550456012E+02 -0.17016378146E+03  0.19727179074E+03  0.00000000000E+00 0. -1.
</event>
<event>
 7    1  0.5593520E-006  0.8660106E+02  0.7818608E-02  0.1313760E+00
          2   -1    0    0  502    0  0.00000000000E+00  0.00000000000E+00  0.40068201020E+03  0.40068201020E+03  0.00000000000E+00 0. -1.
          1   -1    0    0  501    0 -0.00000000000E+00 -0.00000000000E+00 -0.13954780736E+04  0.13954780736E+04  0.00000000000E+00 0. -1.
         25    2    1    2    0    0 -0.17422569196E+02 -0.45981546028E+02  0.35373329835E+02  0.13893525598E+03  0.12503553254E+03 0.  0.
          2    1    1    2  501    0 -0.75780273002E+02  0.41917708214E+02 -0.13353234867E+04  0.13381287525E+04  0.00000000000E+00 0. -1.
          1    1    1    2  502    0  0.93202842198E+02  0.40638378138E+01  0.30515409345E+03  0.31909607538E+03  0.00000000000E+00 0. -1.
         22    1    3    3    0    0  0.50531314984E+02  0.29109638129E+01  0.11990466438E+02  0.52015947455E+02  0.00000000000E+00 0.  1.
         22    1    3    3    0    0 -0.67953884179E+02 -0.48892509841E+02  0.23382863397E+02  0.86919308524E+02  0.00000000000E+00 0.  1.
</event>
<event>
 7    1  0.5593520E-006  0.5001591E+02  0.7818608E-02  0.1528520E+00
          2   -1    0    0  502    0  0.00000000000E+00  0.00000000000E+00  0.13531391695E+03  0.13531391695E+03  0.00000000000E+00 0. -1.
          1   -1    0    0  501    0 -0.00000000000E+00 -0.00000000000E+00 -0.86948557680E+03  0.86948557680E+03  0.00000000000E+00 0. -1.
         25    2    1    2    0    0  0.22445466864E+02  0.45832275247E+02  0.55106218247E+02  0.14582937316E+03  0.12500045740E+03 0.  0.
          2    1    1    2  501    0 -0.42522013373E+02 -0.26430703834E+02 -0.81764025775E+03  0.81917171266E+03  0.00000000000E+00 0. -1.
          1    1    1    2  502    0  0.20076546509E+02 -0.19401571413E+02  0.28362379660E+02  0.39798407920E+02  0.00000000000E+00 0. -1.
         22    1    3    3    0    0  0.19887527387E+01 -0.27963437118E+01 -0.38354044935E+02  0.38507238781E+02  0.00000000000E+00 0.  1.
         22    1    3    3    0    0  0.20456714125E+02  0.48628618959E+02  0.93460263182E+02  0.10732213438E+03  0.00000000000E+00 0.  1.
</event>
<event>
 7    1  0.5593520E-006  0.1571077E+03  0.7818608E-02  0.1288126E+00
          2   -1    0    0  502    0  0.00000000000E+00  0.00000000000E+00  0.67659255042E+03  0.67659255042E+03  0.00000000000E+00 0. -1.
          1   -1    0    0  501    0 -0.00000000000E+00 -0.00000000000E+00 -0.26602891246E+04  0.26602891246E+04  0.00000000000E+00 0. -1.
         25    2    1    2    0    0  0.50456157408E+01 -0.17624015560E+03 -0.57963652280E+03  0.61862174680E+03  0.12501326477E+03 0.  0.
          2    1    1    2  501    0  0.46998058099E+02  0.14821362679E+03 -0.20568904476E+04  0.20627589317E+04  0.00000000000E+00 0. -1.
          1    1    1    2  502    0 -0.52043673840E+02  0.28026528804E+02  0.65283039621E+03  0.65550099658E+03  0.00000000000E+00 0. -1.
         22    1    3    3    0    0 -0.37801459033E+01 -0.12984139216E+03 -0.54443371252E+03  0.55971523469E+03  0.00000000000E+00 0.  1.
         22    1    3    3    0    0  0.88257616442E+01 -0.46398763438E+02 -0.35202810284E+02  0.58906512111E+02  0.00000000000E+00 0.  1.
</event>
<event>
 7    1  0.5593520E-006  0.8376045E+02  0.7818608E-02  0.1339178E+00
          2   -1    0    0  502    0  0.00000000000E+00  0.00000000000E+00  0.14823432954E+03  0.14823432954E+03  0.00000000000E+00 0. -1.
          1   -1    0    0  501    0 -0.00000000000E+00 -0.00000000000E+00 -0.21291943512E+04  0.21291943512E+04  0.00000000000E+00 0. -1.
         25    2    1    2    0    0 -0.79887933397E+01 -0.43055141323E+02 -0.68378577449E+03  0.69649465389E+03  0.12499700591E+03 0.  0.
          2    1    1    2  501    0 -0.69435259869E+02  0.83505867897E+01 -0.14254349023E+04  0.14271494835E+04  0.00000000000E+00 0. -1.
          1    1    1    2  502    0  0.77424053208E+02  0.34704554533E+02  0.12826065512E+03  0.15378454335E+03  0.00000000000E+00 0. -1.
         22    1    3    3    0    0 -0.99208452119E+01 -0.41920461363E+02 -0.68924687542E+03  0.69059177777E+03  0.00000000000E+00 0.  1.
         22    1    3    3    0    0  0.19320518721E+01 -0.11346799600E+01  0.54611009314E+01  0.59028761152E+01  0.00000000000E+00 0.  1.
</event>
<event>
 7    1  0.5593520E-006  0.4516823E+02  0.7818608E-02  0.1533150E+00
          2   -1    0    0  502    0  0.00000000000E+00  0.00000000000E+00  0.11969344916E+04  0.11969344916E+04  0.00000000000E+00 0. -1.
          1   -1    0    0  501    0 -0.00000000000E+00 -0.00000000000E+00 -0.56207253323E+03  0.56207253323E+03  0.00000000000E+00 0. -1.
         25    2    1    2    0    0 -0.64179729294E+02 -0.21631629660E+02  0.65477468920E+03  0.67003092836E+03  0.12499834515E+03 0.  0.
          2    1    1    2  501    0  0.21246684369E+02  0.21160793777E+02 -0.55317548652E+03  0.55398765300E+03  0.00000000000E+00 0. -1.
          1    1    1    2  502    0  0.42933044925E+02  0.47083588292E+00  0.53326275574E+03  0.53498844351E+03  0.00000000000E+00 0. -1.
         22    1    3    3    0    0 -0.27235090143E+02  0.11060046161E+02  0.57816513193E+03  0.57891190567E+03  0.00000000000E+00 0. -1.
         22    1    3    3    0    0 -0.36944639151E+02 -0.32691675821E+02  0.76609557275E+02  0.91119022689E+02  0.00000000000E+00 0. -1.
</event>
<event>
 7    1  0.5593520E-006  0.1398886E+03  0.7818608E-02  0.1361609E+00
          2   -1    0    0  502    0  0.00000000000E+00  0.00000000000E+00  0.20987300640E+04  0.20987300640E+04  0.00000000000E+00 0. -1.
          1   -1    0    0  501    0 -0.00000000000E+00 -0.00000000000E+00 -0.15589724277E+04  0.15589724277E+04  0.00000000000E+00 0. -1.
         25    2    1    2    0    0 -0.11752527145E+03  0.16053331792E+02  0.31715066698E+03  0.36094187300E+03  0.12499836491E+03 0.  0.
          2    1    1    2  501    0  0.13179566931E+03 -0.47557070108E+02 -0.15337131896E+04  0.15400999712E+04  0.00000000000E+00 0. -1.
          1    1    1    2  502    0 -0.14270397861E+02  0.31503738316E+02  0.17563201589E+04  0.17566606474E+04  0.00000000000E+00 0. -1.
         22    1    3    3    0    0 -0.66061719979E+02  0.61999407067E+02  0.10944479798E+03  0.14207829225E+03  0.00000000000E+00 0. -1.
         22    1    3    3    0    0 -0.51463551466E+02 -0.45946075276E+02  0.20770586901E+03  0.21886358076E+03  0.00000000000E+00 0. -1.
</event>
<event>
 7    1  0.5593520E-006  0.1197856E+03  0.7818608E-02  0.1357090E+00
          2   -1    0    0  502    0  0.00000000000E+00  0.00000000000E+00  0.20168796249E+04  0.20168796249E+04  0.00000000000E+00 0. -1.
          1   -1    0    0  501    0 -0.00000000000E+00 -0.00000000000E+00 -0.45205191085E+03  0.45205191085E+03  0.00000000000E+00 0. -1.
         25    2    1    2    0    0 -0.10121767897E+02 -0.14723295755E+03 -0.29643210924E+01  0.19342692206E+03  0.12500077202E+03 0.  0.
          2    1    1    2  501    0 -0.25478457002E+02  0.33331557941E+02 -0.35075229514E+03  0.35325248347E+03  0.00000000000E+00 0. -1.
          1    1    1    2  502    0  0.35600224899E+02  0.11390139961E+03  0.19185443302E+04  0.19222521302E+04  0.00000000000E+00 0. -1.
         22    1    3    3    0    0  0.36865942464E+02 -0.52984983626E+02  0.43999330426E+02  0.78118162303E+02  0.00000000000E+00 0.  1.
         22    1    3    3    0    0 -0.46987710361E+02 -0.94247973924E+02 -0.46963651519E+02  0.11530875976E+03  0.00000000000E+00 0.  1.
</event>
<event>
 7    1  0.5593520E-006  0.4754070E+02  0.7818608E-02  0.1561664E+00
          2   -1    0    0  502    0  0.00000000000E+00  0.00000000000E+00  0.91118724799E+03  0.91118724799E+03  0.00000000000E+00 0. -1.
          1   -1    0    0  501    0 -0.00000000000E+00 -0.00000000000E+00 -0.55544738525E+03  0.55544738525E+03  0.00000000000E+00 0. -1.
         25    2    1    2    0    0  0.52894504902E+02 -0.24774619442E+02  0.22988167875E+03  0.26810888740E+03  0.12500071545E+03 0.  0.
          2    1    1    2  501    0 -0.21314495411E+02 -0.10378803737E+02 -0.53522800148E+03  0.53575277960E+03  0.00000000000E+00 0. -1.
          1    1    1    2  502    0 -0.31580009490E+02  0.35153423179E+02  0.66108618547E+03  0.66277296624E+03  0.00000000000E+00 0. -1.
         22    1    3    3    0    0  0.52891444088E+02 -0.63837743528E+02  0.87796542516E+02  0.12075179185E+03  0.00000000000E+00 0. -1.
         22    1    3    3    0    0  0.30608136681E-02  0.39063124086E+02  0.14208513623E+03  0.14735709556E+03  0.00000000000E+00 0. -1.
</event>
<event>
 7    1  0.5593520E-006  0.6950366E+02  0.7818608E-02  0.1466128E+00
          2   -1    0    0  502    0  0.00000000000E+00  0.00000000000E+00  0.12231470833E+03  0.12231470833E+03  0.00000000000E+00 0. -1.
          1   -1    0    0  501    0 -0.00000000000E+00 -0.00000000000E+00 -0.40642971703E+03  0.40642971703E+03  0.00000000000E+00 0. -1.
         25    2    1    2    0    0  0.55474289593E+02 -0.42424124906E+02 -0.21621503283E+03  0.25932744199E+03  0.12499831425E+03 0.  0.
          2    1    1    2  501    0 -0.23745149354E+02 -0.19773307884E+02 -0.15484953207E+03  0.15790248068E+03  0.00000000000E+00 0. -1.
          1    1    1    2  502    0 -0.31729140239E+02  0.62197432790E+02  0.86949556200E+02  0.11151450269E+03  0.00000000000E+00 0. -1.
         22    1    3    3    0    0  0.11326658677E+02  0.19122918300E+01  0.15512002067E+02  0.19302131099E+02  0.00000000000E+00 0. -1.
         22    1    3    3    0    0  0.44147630916E+02 -0.44336416736E+02 -0.23172703490E+03  0.24002531089E+03  0.00000000000E+00 0. -1.
</event>
<event>
 7    1  0.5593520E-006  0.4741561E+02  0.7818608E-02  0.1520580E+00
          2   -1    0    0  502    0  0.00000000000E+00  0.00000000000E+00  0.17781830140E+02  0.17781830140E+02  0.00000000000E+00 0. -1.
          1   -1    0    0  501    0 -0.00000000000E+00 -0.00000000000E+00 -0.24576459234E+04  0.24576459234E+04  0.00000000000E+00 0. -1.
         25    2    1    2    0    0 -0.11499695548E+02  0.31993297050E+02 -0.30264065110E+03  0.32919988536E+03  0.12500154707E+03 0.  0.
          2    1    1    2  501    0 -0.16771605564E+02 -0.44822756908E+02 -0.20844522088E+04  0.20850015292E+04  0.00000000000E+00 0. -1.
          1    1    1    2  502    0  0.28271301112E+02  0.12829459859E+02 -0.52771233439E+02  0.61226338985E+02  0.00000000000E+00 0. -1.
         22    1    3    3    0    0  0.60727241264E+01  0.62000608748E+02 -0.68904876254E+02  0.92891525098E+02  0.00000000000E+00 0.  1.
         22    1    3    3    0    0 -0.17572419674E+02 -0.30007311698E+02 -0.23373577484E+03  0.23630836026E+03  0.00000000000E+00 0.  1.
</event>
<event>
 7    1  0.5593520E-006  0.3433397E+02  0.7818608E-02  0.1633577E+00
          2   -1    0    0  502    0  0.00000000000E+00  0.00000000000E+00  0.13394182566E+04  0.13394182566E+04  0.00000000000E+00 0. -1.
          1   -1    0    0  501    0 -0.00000000000E+00 -0.00000000000E+00 -0.40015401910E+03  0.40015401910E+03  0.00000000000E+00 0. -1.
         25    2    1    2    0    0  0.46075526273E+02 -0.22201999285E+02  0.16191660706E+03  0.21088550037E+03  0.12505928087E+03 0.  0.
          2    1    1    2  501    0 -0.12230813609E+02  0.17394287986E+02 -0.37511503028E+03  0.37571723410E+03  0.00000000000E+00 0. -1.
          1    1    1    2  502    0 -0.33844712664E+02  0.48077112984E+01  0.11524626607E+04  0.11529695412E+04  0.00000000000E+00 0. -1.
         22    1    3    3    0    0  0.18936144875E+02  0.11002948289E+02 -0.16478785910E+02  0.27407897381E+02  0.00000000000E+00 0.  1.
         22    1    3    3    0    0  0.27139381398E+02 -0.33204947573E+02  0.17839539297E+03  0.18347760299E+03  0.00000000000E+00 0.  1.
</event>
<event>
 7    1  0.5593520E-006  0.1064695E+03  0.7818608E-02  0.1322308E+00
          2   -1    0    0  502    0  0.00000000000E+00  0.00000000000E+00  0.15390895696E+03  0.15390895696E+03  0.00000000000E+00 0. -1.
          1   -1    0    0  501    0 -0.00000000000E+00 -0.00000000000E+00 -0.23083596206E+03  0.23083596206E+03  0.00000000000E+00 0. -1.
         25    2    1    2    0    0  0.26789272434E+02 -0.14902672897E+03 -0.40687934599E+01  0.19638804506E+03  0.12500031238E+03 0.  0.
          2    1    1    2  501    0 -0.15295489401E+02  0.61949574261E+02 -0.77515589850E+02  0.10040103793E+03  0.00000000000E+00 0. -1.
          1    1    1    2  502    0 -0.11493783033E+02  0.87077154714E+02  0.46573782074E+01  0.87955836038E+02  0.00000000000E+00 0. -1.
         22    1    3    3    0    0  0.74601469968E+02 -0.64165496888E+02 -0.93374634409E+01  0.98842190060E+02  0.00000000000E+00 0. -1.
         22    1    3    3    0    0 -0.47812197534E+02 -0.84861232086E+02  0.52686699810E+01  0.97545855000E+02  0.00000000000E+00 0. -1.
</event>
<event>
 7    1  0.5593520E-006  0.8482731E+02  0.7818608E-02  0.1386133E+00
          2   -1    0    0  502    0  0.00000000000E+00  0.00000000000E+00  0.72290000303E+03  0.72290000303E+03  0.00000000000E+00 0. -1.
          1   -1    0    0  501    0 -0.00000000000E+00 -0.00000000000E+00 -0.50132908630E+03  0.50132908630E+03  0.00000000000E+00 0. -1.
         25    2    1    2    0    0 -0.54711957848E+02 -0.31726479180E+02 -0.13448618788E+03  0.19419357872E+03  0.12499857388E+03 0.  0.
          2    1    1    2  501    0  0.90636395545E+02  0.20304525163E+01 -0.33008680815E+03  0.34231035604E+03  0.00000000000E+00 0. -1.
          1    1    1    2  502    0 -0.35924437698E+02  0.29696026663E+02  0.68614391276E+03  0.68772515458E+03  0.00000000000E+00 0. -1.
         22    1    3    3    0    0 -0.20494970340E+02  0.20677508021E+02 -0.12800388694E+03  0.13127299120E+03  0.00000000000E+00 0.  1.
         22    1    3    3    0    0 -0.34216987508E+02 -0.52403987201E+02 -0.64823009455E+01  0.62920587522E+02  0.00000000000E+00 0.  1.
</event>
<event>
 7    1  0.5593520E-006  0.6804440E+02  0.7818608E-02  0.1399576E+00
          2   -1    0    0  502    0  0.00000000000E+00  0.00000000000E+00  0.62396972769E+02  0.62396972769E+02  0.00000000000E+00 0. -1.
          1   -1    0    0  501    0 -0.00000000000E+00 -0.00000000000E+00 -0.97323028279E+03  0.97323028279E+03  0.00000000000E+00 0. -1.
         25    2    1    2    0    0 -0.73290332735E+02  0.56591045446E+02 -0.22323481503E+03  0.27208992276E+03  0.12500049651E+03 0.  0.
          2    1    1    2  501    0  0.21612361093E+02 -0.63809542105E+02 -0.70524420363E+03  0.70845475407E+03  0.00000000000E+00 0. -1.
          1    1    1    2  502    0  0.51677971642E+02  0.72184966587E+01  0.17645708631E+02  0.55082578735E+02  0.00000000000E+00 0. -1.
         22    1    3    3    0    0  0.31549904271E+02  0.17531970773E+02 -0.96543128376E+02  0.10306959831E+03  0.00000000000E+00 0.  1.
         22    1    3    3    0    0 -0.10484023701E+03  0.39059074674E+02 -0.12669168665E+03  0.16902032445E+03  0.00000000000E+00 0.  1.
</event>
<event>
 7    1  0.5593520E-006  0.8380962E+02  0.7818608E-02  0.1414535E+00
          2   -1    0    0  502    0  0.00000000000E+00  0.00000000000E+00  0.76209916718E+03  0.76209916718E+03  0.00000000000E+00 0. -1.
          1   -1    0    0  501    0 -0.00000000000E+00 -0.00000000000E+00 -0.11049899357E+04  0.11049899357E+04  0.00000000000E+00 0. -1.
         25    2    1    2    0    0  0.92244221271E+02  0.58893811806E+02  0.17180048832E+02  0.16702375632E+03  0.12499721465E+03 0.  0.
          2    1    1    2  501    0 -0.54781112092E+02 -0.62910876499E+02 -0.10278472548E+04  0.10312268071E+04  0.00000000000E+00 0. -1.
          1    1    1    2  502    0 -0.37463109180E+02  0.40170646935E+01  0.66777643745E+03  0.66883853939E+03  0.00000000000E+00 0. -1.
         22    1    3    3    0    0  0.10211631984E+03  0.51787296634E+02  0.55197356710E+02  0.12710788747E+03  0.00000000000E+00 0.  1.
         22    1    3    3    0    0 -0.98720985652E+01  0.71065151725E+01 -0.38017307878E+02  0.39915868852E+02  0.00000000000E+00 0.  1.
</event>
<event>
 7    1  0.5593520E-006  0.1092555E+03  0.7818608E-02  0.1381352E+00
          2   -1    0    0  502    0  0.00000000000E+00  0.00000000000E+00  0.22867481098E+03  0.22867481098E+03  0.00000000000E+00 0. -1.
          1   -1    0    0  501    0 -0.00000000000E+00 -0.00000000000E+00 -0.89039654638E+03  0.89039654638E+03  0.00000000000E+00 0. -1.
         25    2    1    2    0    0 -0.72721596709E+02  0.35273973430E+02  0.28864732061E+01  0.14888197754E+03  0.12499931072E+03 0.  0.
          2    1    1    2  501    0 -0.31301193087E+02  0.20866251599E+02 -0.79402453083E+03  0.79491516573E+03  0.00000000000E+00 0. -1.
          1    1    1    2  502    0  0.10402278980E+03 -0.56140225029E+02  0.12941632223E+03  0.17527421409E+03  0.00000000000E+00 0. -1.
         22    1    3    3    0    0 -0.44452100323E+02 -0.14087082019E+02  0.54741695345E+02  0.71910279601E+02  0.00000000000E+00 0. -1.
         22    1    3    3    0    0 -0.28269496386E+02  0.49361055449E+02 -0.51855222139E+02  0.76971697942E+02  0.00000000000E+00 0. -1.
</event>
<event>
 7    1  0.5593520E-006  0.8074039E+02  0.7818608E-02  0.1462044E+00
          2   -1    0    0  502    0  0.00000000000E+00  0.00000000000E+00  0.51576667562E+03  0.51576667562E+03  0.00000000000E+00 0. -1.
          1   -1    0    0  501    0 -0.00000000000E+00 -0.00000000000E+00 -0.36420119234E+03  0.36420119234E+03  0.00000000000E+00 0. -1.
         25    2    1    2    0    0 -0.74443408786E+02 -0.62785129405E+02  0.26551025147E+03  0.30920034730E+03  0.12500147021E+03 0.  0.
          2    1    1    2  501    0  0.27249410958E+02  0.28300637557E+01 -0.33540988900E+03  0.33652686861E+03  0.00000000000E+00 0. -1.
          1    1    1    2  502    0  0.47193997828E+02  0.59955065650E+02  0.22146512082E+03  0.23424065203E+03  0.00000000000E+00 0. -1.
         22    1    3    3    0    0 -0.40661287980E+02  0.35375711204E+02  0.10540723324E+03  0.11838693383E+03  0.00000000000E+00 0. -1.
         22    1    3    3    0    0 -0.33782120806E+02 -0.98160840609E+02  0.16010301823E+03  0.19081341347E+03  0.00000000000E+00 0. -1.
</event>
<event>
 7    1  0.5593520E-006  0.9088720E+02  0.7818608E-02  0.1345819E+00
          2   -1    0    0  502    0  0.00000000000E+00  0.00000000000E+00  0.18067711057E+04  0.18067711057E+04  0.00000000000E+00 0. -1.
          1   -1    0    0  501    0 -0.00000000000E+00 -0.00000000000E+00 -0.40518562577E+03  0.40518562577E+03  0.00000000000E+00 0. -1.
         25    2    1    2    0    0  0.54546317012E+02  0.15156724389E+02  0.16468228322E+03  0.21436066591E+03  0.12500085476E+03 0.  0.
          2    1    1    2  501    0 -0.25273561268E+00  0.60861280355E+02 -0.37655200987E+03  0.38143882269E+03  0.00000000000E+00 0. -1.
          1    1    1    2  502    0 -0.54293581399E+02 -0.76018004745E+02  0.16134552065E+04  0.16161572428E+04  0.00000000000E+00 0. -1.
         22    1    3    3    0    0  0.88202459077E+02  0.35191157067E+02  0.13573657602E+03  0.16565780813E+03  0.00000000000E+00 0.  1.
         22    1    3    3    0    0 -0.33656142065E+02 -0.20034432677E+02  0.28945707200E+02  0.48702857788E+02  0.00000000000E+00 0.  1.
</event>
<event>
 7    1  0.5593520E-006  0.6555413E+02  0.7818608E-02  0.1384185E+00
          2   -1    0    0  502    0  0.00000000000E+00  0.00000000000E+00  0.62879993894E+03  0.62879993894E+03  0.00000000000E+00 0. -1.
          1   -1    0    0  501    0 -0.00000000000E+00 -0.00000000000E+00 -0.63216812039E+03  0.63216812039E+03  0.00000000000E+00 0. -1.
         25    2    1    2    0    0 -0.38197250412E+01  0.24427986987E+02  0.16586708793E+03  0.20915945872E+03  0.12499788584E+03 0.  0.
          2    1    1    2  501    0  0.65440815307E+02  0.38526976815E+01 -0.60613990253E+03  0.60967444184E+03  0.00000000000E+00 0. -1.
          1    1    1    2  502    0 -0.61621090266E+02 -0.28280684668E+02  0.43690463314E+03  0.44213415877E+03  0.00000000000E+00 0. -1.
         22    1    3    3    0    0  0.19877111416E+02  0.23502579698E+02  0.17928743292E+03  0.18191056707E+03  0.00000000000E+00 0.  1.
         22    1    3    3    0    0 -0.23696836457E+02  0.92540728878E+00 -0.13420344981E+02  0.27248891650E+02  0.00000000000E+00 0.  1.
</event>
<event>
 7    1  0.5593520E-006  0.1924754E+03  0.7818608E-02  0.1350588E+00
          2   -1    0    0  502    0  0.00000000000E+00  0.00000000000E+00  0.42374183758E+03  0.42374183758E+03  0.00000000000E+00 0. -1.
          1   -1    0    0  501    0 -0.00000000000E+00 -0.00000000000E+00 -0.65942414209E+03  0.65942414209E+03  0.00000000000E+00 0. -1.
         25    2    1    2    0    0 -0.13027817466E+03  0.12957487349E+03 -0.34391257472E+03  0.40946593222E+03  0.12499775986E+03 0.  0.
          2    1    1    2  501    0  0.12814442149E+03 -0.15708250401E+03 -0.24579118923E+03  0.31860510750E+03  0.00000000000E+00 0. -1.
          1    1    1    2  502    0  0.21337531745E+01  0.27507630520E+02  0.35402145943E+03  0.35509493995E+03  0.00000000000E+00 0. -1.
         22    1    3    3    0    0  0.10582066213E+02  0.66844107361E+02 -0.11580180648E+03  0.13412745132E+03  0.00000000000E+00 0.  1.
         22    1    3    3    0    0 -0.14086024088E+03  0.62730766126E+02 -0.22811076824E+03  0.27533848090E+03  0.00000000000E+00 0.  1.
</event>
<event>
 7    1  0.5593520E-006  0.6512302E+02  0.7818608E-02  0.1447148E+00
          2   -1    0    0  502    0  0.00000000000E+00  0.00000000000E+00  0.13282103533E+04  0.13282103533E+04  0.00000000000E+00 0. -1.
          1   -1    0    0  501    0 -0.00000000000E+00 -0.00000000000E+00 -0.23474386410E+02  0.23474386410E+02  0.00000000000E+00 0. -1.
         25    2    1    2    0    0 -0.45450177659E+02 -0.33912597863E+02  0.59695237606E+03  0.61252996825E+03  0.12500015910E+03 0.  0.
          2    1    1    2  501    0 -0.23136196850E+02  0.29991826874E+02  0.11635896107E+02  0.39625589739E+02  0.00000000000E+00 0. -1.
          1    1    1    2  502    0  0.68586374509E+02  0.39207709891E+01  0.69614769469E+03  0.69952918169E+03  0.00000000000E+00 0. -1.
         22    1    3    3    0    0 -0.53561671669E+02  0.35515591136E+02  0.22188862106E+03  0.23100816012E+03  0.00000000000E+00 0.  1.
         22    1    3    3    0    0  0.81114940104E+01 -0.69428188999E+02  0.37506375500E+03  0.38152180813E+03  0.00000000000E+00 0.  1.
</event>
<event>
 7    1  0.5593520E-006  0.6017133E+02  0.7818608E-02  0.1496744E+00
          2   -1    0    0  502    0  0.00000000000E+00  0.00000000000E+00  0.22513772329E+02  0.22513772329E+02  0.00000000000E+00 0. -1.
          1   -1    0    0  501    0 -0.00000000000E+00 -0.00000000000E+00 -0.30476900182E+04  0.30476900182E+04  0.00000000000E+00 0. -1.
         25    2    1    2    0    0  0.19696685010E+01 -0.44131126463E+02 -0.13011186907E+04  0.13078555396E+04  0.12499931731E+03 0.  0.
          2    1    1    2  501    0 -0.26251299443E+02 -0.11754952384E+02 -0.16942873237E+04  0.16945314530E+04  0.00000000000E+00 0. -1.
          1    1    1    2  502    0  0.24281630942E+02  0.55886078848E+02 -0.29770231485E+02  0.67816798014E+02  0.00000000000E+00 0. -1.
         22    1    3    3    0    0  0.61544332934E+02 -0.27260971120E+02 -0.53048232983E+03  0.53473579244E+03  0.00000000000E+00 0. -1.
         22    1    3    3    0    0 -0.59574664434E+02 -0.16870155343E+02 -0.77063636084E+03  0.77311974715E+03  0.00000000000E+00 0. -1.
</event>
<event>
 7    1  0.5593520E-006  0.4775038E+02  0.7818608E-02  0.1474641E+00
          2   -1    0    0  502    0  0.00000000000E+00  0.00000000000E+00  0.85535259028E+02  0.85535259028E+02  0.00000000000E+00 0. -1.
          1   -1    0    0  501    0 -0.00000000000E+00 -0.00000000000E+00 -0.34054756208E+03  0.34054756208E+03  0.00000000000E+00 0. -1.
         25    2    1    2    0    0  0.44700707133E+02 -0.74643201292E+02 -0.10915188227E+03  0.18737426850E+03  0.12500088950E+03 0.  0.
          2    1    1    2  501    0 -0.23026211917E+02  0.35504829948E+02 -0.17842377176E+03  0.18337350330E+03  0.00000000000E+00 0. -1.
          1    1    1    2  502    0 -0.21674495216E+02  0.39138371344E+02  0.32563350980E+02  0.55335049303E+02  0.00000000000E+00 0. -1.
         22    1    3    3    0    0  0.15068607101E+02 -0.23871928764E+02  0.27006412492E+02  0.39067610864E+02  0.00000000000E+00 0. -1.
         22    1    3    3    0    0  0.29632100032E+02 -0.50771272528E+02 -0.13615829477E+03  0.14830665764E+03  0.00000000000E+00 0. -1.
</event>
<event>
 7    1  0.5593520E-006  0.1482782E+03  0.7818608E-02  0.1334216E+00
          2   -1    0    0  502    0  0.00000000000E+00  0.00000000000E+00  0.15721198844E+04  0.15721198844E+04  0.00000000000E+00 0. -1.
          1   -1    0    0  501    0 -0.00000000000E+00 -0.00000000000E+00 -0.72402544210E+02  0.72402544210E+02  0.00000000000E+00 0. -1.
         25    2    1    2    0    0  0.62956872517E+02  0.13860403227E+03  0.56158357989E+03  0.59512704969E+03  0.12500177001E+03 0.  0.
          2    1    1    2  501    0 -0.95674438302E+02 -0.11348211633E+03  0.44708253896E+02  0.15501811777E+03  0.00000000000E+00 0. -1.
          1    1    1    2  502    0  0.32717565785E+02 -0.25121915936E+02  0.89342550638E+03  0.89437726113E+03  0.00000000000E+00 0. -1.
         22    1    3    3    0    0  0.92657133609E+02  0.13925346441E+03  0.47868351236E+03  0.50706486446E+03  0.00000000000E+00 0. -1.
         22    1    3    3    0    0 -0.29700261092E+02 -0.64943213828E+00  0.82900067528E+02  0.88062185228E+02  0.00000000000E+00 0. -1.
</event>
<event>
 7    1  0.5593520E-006  0.6347686E+02  0.7818608E-02  0.1487794E+00
          2   -1    0    0  502    0  0.00000000000E+00  0.00000000000E+00  0.25561655334E+04  0.25561655334E+04  0.00000000000E+00 0. -1.
          1   -1    0    0  501    0 -0.00000000000E+00 -0.00000000000E+00 -0.21810636837E+03  0.21810636837E+03  0.00000000000E+00 0. -1.
         25    2    1    2    0    0  0.59013365088E+02 -0.33345757151E+02  0.28561397793E+03  0.31905302175E+03  0.12499987808E+03 0.  0.
          2    1    1    2  501    0  0.43461127881E+01  0.28686409403E+02 -0.19989161003E+03  0.20198627315E+03  0.00000000000E+00 0. -1.
          1    1    1    2  502    0 -0.63359477876E+02  0.46593477478E+01  0.22523367971E+04  0.22532326069E+04  0.00000000000E+00 0. -1.
         22    1    3    3    0    0  0.56326627664E+02 -0.65937699291E+02  0.26847098454E+03  0.28212964876E+03  0.00000000000E+00 0.  1.
         22    1    3    3    0    0  0.26867374235E+01  0.32591942140E+02  0.17142993395E+02  0.36923372990E+02  0.00000000000E+00 0.  1.
</event>
<event>
 7    1  0.5593520E-006  0.6814131E+02  0.7818608E-02  0.1388056E+00
          2   -1    0    0  502    0  0.00000000000E+00  0.00000000000E+00  0.53445195572E+03  0.53445195572E+03  0.00000000000E+00 0. -1.
          1   -1    0    0  501    0 -0.00000000000E+00 -0.00000000000E+00 -0.40209483502E+03  0.40209483502E+03  0.00000000000E+00 0. -1.
         25    2    1    2    0    0  0.18128909661E+02 -0.11487797167E+03 -0.77678336898E+01  0.17091506987E+03  0.12500406444E+03 0.  0.
          2    1    1    2  501    0  0.10514307737E+02  0.65448311944E+02 -0.30740467186E+03  0.31447045089E+03  0.00000000000E+00 0. -1.
          1    1    1    2  502    0 -0.28643217397E+02  0.49429659726E+02  0.44752962625E+03  0.45116126998E+03  0.00000000000E+00 0. -1.
         22    1    3    3    0    0  0.43520507928E+02 -0.85704056721E+02  0.44476885865E+02  0.10591229072E+03  0.00000000000E+00 0. -1.
         22    1    3    3    0    0 -0.25391598267E+02 -0.29173914949E+02 -0.52244719554E+02  0.65002779151E+02  0.00000000000E+00 0. -1.
</event>
<event>
 7    1  0.5593520E-006  0.6914056E+02  0.7818608E-02  0.1380059E+00
          2   -1    0    0  502    0  0.00000000000E+00  0.00000000000E+00  0.18078700678E+04  0.18078700678E+04  0.00000000000E+00 0. -1.
          1   -1    0    0  501    0 -0.00000000000E+00 -0.00000000000E+00 -0.10342788765E+04  0.10342788765E+04  0.00000000000E+00 0. -1.
         25    2    1    2    0    0  0.76189719297E+02 -0.75834634396E+02  0.93984553855E+02  0.18977264489E+03  0.12499918113E+03 0.  0.
          2    1    1    2  501    0 -0.59377232848E+02  0.91263418459E+01 -0.98475890490E+03  0.98658960398E+03  0.00000000000E+00 0. -1.
          1    1    1    2  502    0 -0.16812486450E+02  0.66708292550E+02  0.16643655424E+04  0.16657866955E+04  0.00000000000E+00 0. -1.
         22    1    3    3    0    0 -0.20407962078E+02 -0.59743690897E+02  0.17495721616E+02  0.65512546837E+02  0.00000000000E+00 0.  1.
         22    1    3    3    0    0  0.96597681376E+02 -0.16090943499E+02  0.76488832239E+02  0.12426009805E+03  0.00000000000E+00 0.  1.
</event>
<event>
 7    1  0.5593520E-006  0.1259239E+03  0.7818608E-02  0.1263698E+00
          2   -1    0    0  502    0  0.00000000000E+00  0.00000000000E+00  0.27228510210E+03  0.27228510210E+03  0.00000000000E+00 0. -1.
          1   -1    0    0  501    0 -0.00000000000E+00 -0.00000000000E+00 -0.66620183951E+03  0.66620183951E+03  0.00000000000E+00 0. -1.
         25    2    1    2    0    0 -0.20809733955E+03  0.34040842574E+02 -0.14939579476E+03  0.28706663595E+03  0.12499947316E+03 0.  0.
          2    1    1    2  501    0  0.89271722340E+02 -0.26742252170E+02 -0.42506405530E+03  0.43515978625E+03  0.00000000000E+00 0. -1.
          1    1    1    2  502    0  0.11882561721E+03 -0.72985904041E+01  0.18054311265E+03  0.21626051940E+03  0.00000000000E+00 0. -1.
         22    1    3    3    0    0 -0.36683523714E+02 -0.25073077680E+02  0.10114129263E+02  0.45570119016E+02  0.00000000000E+00 0.  1.
         22    1    3    3    0    0 -0.17141381584E+03  0.59113920253E+02 -0.15950992402E+03  0.24149651693E+03  0.00000000000E+00 0.  1.
</event>
<event>
 7    1  0.5593520E-006  0.4745819E+02  0.7818608E-02  0.1532536E+00
          2   -1    0    0  502    0  0.00000000000E+00  0.00000000000E+00  0.61655710736E+03  0.61655710736E+03  0.00000000000E+00 0. -1.
          1   -1    0    0  501    0 -0.00000000000E+00 -0.00000000000E+00 -0.32825143545E+02  0.32825143545E+02  0.00000000000E+00 0. -1.
         25    2    1    2    0    0  0.13202898738E+02  0.53380684524E+02  0.43804671309E+03  0.45884025306E+03  0.12500256383E+03 0.  0.
          2    1    1    2  501    0  0.20131817837E+02 -0.20391883864E+02 -0.80891048913E+01  0.29775033751E+02  0.00000000000E+00 0. -1.
          1    1    1    2  502    0 -0.33334716575E+02 -0.32988800661E+02  0.15377435562E+03  0.16076696410E+03  0.00000000000E+00 0. -1.
         22    1    3    3    0    0  0.23570321304E+02 -0.33267620434E+02  0.22413231663E+03  0.22781042552E+03  0.00000000000E+00 0.  1.
         22    1    3    3    0    0 -0.10367422566E+02  0.86648304958E+02  0.21391439645E+03  0.23102982754E+03  0.00000000000E+00 0.  1.
</event>
<event>
 7    1  0.5593520E-006  0.4003246E+02  0.7818608E-02  0.1577813E+00
          2   -1    0    0  502    0  0.00000000000E+00  0.00000000000E+00  0.54705389736E+03  0.54705389736E+03  0.00000000000E+00 0. -1.
          1   -1    0    0  501    0 -0.00000000000E+00 -0.00000000000E+00 -0.23099536770E+03  0.23099536770E+03  0.00000000000E+00 0. -1.
         25    2    1    2    0    0  0.66667089317E+01  0.28048957481E+02  0.23558293781E+03  0.26824130255E+03  0.12499154685E+03 0.  0.
          2    1    1    2  501    0  0.17447658911E+02 -0.36176663424E+02 -0.21223060246E+03  0.21599768610E+03  0.00000000000E+00 0. -1.
          1    1    1    2  502    0 -0.24114367842E+02  0.81277059431E+01  0.29270619431E+03  0.29381027641E+03  0.00000000000E+00 0. -1.
         22    1    3    3    0    0  0.49122172986E+02 -0.33776388186E+01  0.19638794631E+03  0.20246634727E+03  0.00000000000E+00 0.  1.
         22    1    3    3    0    0 -0.42455464055E+02  0.31426596299E+02  0.39194991505E+02  0.65774955280E+02  0.00000000000E+00 0.  1.
</event>
<event>
 7    1  0.5593520E-006  0.9778128E+02  0.7818608E-02  0.1393924E+00
          2   -1    0    0  502    0  0.00000000000E+00  0.00000000000E+00  0.17505590677E+04  0.17505590677E+04  0.00000000000E+00 0. -1.
          1   -1    0    0  501    0 -0.00000000000E+00 -0.00000000000E+00 -0.18498106590E+02  0.18498106590E+02  0.00000000000E+00 0. -1.
         25    2    1    2    0    0 -0.29509460290E+02 -0.70783416900E+02  0.53293758060E+03  0.55274768779E+03  0.12500576462E+03 0.  0.
          2    1    1    2  501    0  0.54657925930E+02  0.99245762474E+02  0.38563072417E+03  0.40193067271E+03  0.00000000000E+00 0. -1.
          1    1    1    2  502    0 -0.25148465640E+02 -0.28462345574E+02  0.81349265635E+03  0.81437881381E+03  0.00000000000E+00 0. -1.
         22    1    3    3    0    0 -0.66555060460E+02 -0.81880118779E+02  0.34096999280E+03  0.35692361356E+03  0.00000000000E+00 0.  1.
         22    1    3    3    0    0  0.37045600170E+02  0.11096701879E+02  0.19196758780E+03  0.19582407423E+03  0.00000000000E+00 0.  1.
</event>
<event>
 7    1  0.5593520E-006  0.8997624E+02  0.7818608E-02  0.1315377E+00
          2   -1    0    0  502    0  0.00000000000E+00  0.00000000000E+00  0.19527541971E+03  0.19527541971E+03  0.00000000000E+00 0. -1.
          1   -1    0    0  501    0 -0.00000000000E+00 -0.00000000000E+00 -0.16036989042E+04  0.16036989042E+04  0.00000000000E+00 0. -1.
         25    2    1    2    0    0 -0.45751741593E+02  0.87089711089E+01 -0.11694551729E+04  0.11770387626E+04  0.12500311727E+03 0.  0.
          2    1    1    2  501    0  0.19354524923E+02  0.77973192451E+02 -0.41566608377E+03  0.42335884256E+03  0.00000000000E+00 0. -1.
          1    1    1    2  502    0  0.26397216671E+02 -0.86682163560E+02  0.17669777216E+03  0.19857671871E+03  0.00000000000E+00 0. -1.
         22    1    3    3    0    0 -0.83006369779E+02  0.18382576341E+02 -0.56514040344E+03  0.57149947694E+03  0.00000000000E+00 0. -1.
         22    1    3    3    0    0  0.37254628186E+02 -0.96736052321E+01 -0.60431476943E+03  0.60553928569E+03  0.00000000000E+00 0. -1.
</event>
<event>
 7    1  0.5593520E-006  0.1970961E+03  0.7818608E-02  0.1371207E+00
          2   -1    0    0  502    0  0.00000000000E+00  0.00000000000E+00  0.91097297498E+02  0.91097297498E+02  0.00000000000E+00 0. -1.
          1   -1    0    0  501    0 -0.00000000000E+00 -0.00000000000E+00 -0.20687894013E+04  0.20687894013E+04  0.00000000000E+00 0. -1.
         25    2    1    2    0    0  0.10810929531E+03 -0.18047766238E+03 -0.28462683122E+03  0.37536360865E+03  0.12500239718E+03 0.  0.
          2    1    1    2  501    0 -0.17623604245E+02  0.14247048739E+02 -0.15425243740E+04  0.15426908356E+04  0.00000000000E+00 0. -1.
          1    1    1    2  502    0 -0.90485691069E+02  0.16623061364E+03 -0.15054089859E+03  0.24183225456E+03  0.00000000000E+00 0. -1.
         22    1    3    3    0    0  0.12682835641E+03 -0.15329581479E+03 -0.18985327719E+03  0.27500782840E+03  0.00000000000E+00 0. -1.
         22    1    3    3    0    0 -0.18719061097E+02 -0.27181847588E+02 -0.94773554035E+02  0.10035578026E+03  0.00000000000E+00 0. -1.
</event>
<event>
 7    1  0.9981214E-006  0.5992508E+02  0.7818608E-02  0.1449432E+00
          2   -1    0    0  502    0  0.00000000000E+00  0.00000000000E+00  0.26097656991E+04  0.26097656991E+04  0.00000000000E+00 0. -1.
          1   -1    0    0  501    0 -0.00000000000E+00 -0.00000000000E+00 -0.17227313414E+04  0.17227313414E+04  0.00000000000E+00 0. -1.
         25    2    1    2    0    0  0.66276466816E+02 -0.54071244804E+02 -0.13709142063E+03  0.20429315679E+03  0.12500146693E+03 0.  0.
          2    1    1    2  501    0 -0.57837418331E+02  0.14484844935E+02 -0.15513073421E+04  0.15524527198E+04  0.00000000000E+00 0. -1.
          1    1    1    2  502    0 -0.84390484848E+01  0.39586399869E+02  0.25754331205E+04  0.25757511639E+04  0.00000000000E+00 0. -1.
         22    1    3    3    0    0  0.97007083436E+02 -0.11220727119E+02 -0.77100636350E+02  0.12442181111E+03  0.00000000000E+00 0. -1.
         22    1    3    3    0    0 -0.30730616620E+02 -0.42850517685E+02 -0.59990784276E+02  0.79871345686E+02  0.00000000000E+00 0. -1.
</event>
<event>
 7    1  0.5593520E-006  0.1079953E+03  0.7818608E-02  0.1399963E+00
          2   -1    0    0  502    0  0.00000000000E+00  0.00000000000E+00  0.19639934067E+04  0.19639934067E+04  0.00000000000E+00 0. -1.
          1   -1    0    0  501    0 -0.00000000000E+00 -0.00000000000E+00 -0.12465702282E+04  0.12465702282E+04  0.00000000000E+00 0. -1.
         25    2    1    2    0    0 -0.33983605173E+02 -0.13415377787E+03  0.30572601956E+03  0.35811430628E+03  0.12500134316E+03 0.  0.
          2    1    1    2  501    0  0.12249403120E+02  0.30400921900E+02 -0.12184341917E+04  0.12188749499E+04  0.00000000000E+00 0. -1.
          1    1    1    2  502    0  0.21734202053E+02  0.10375285597E+03  0.16301313506E+04  0.16335743788E+04  0.00000000000E+00 0. -1.
         22    1    3    3    0    0  0.21684212881E+02 -0.58027792391E+02  0.34382660932E+02  0.70849115385E+02  0.00000000000E+00 0.  1.
         22    1    3    3    0    0 -0.55667818053E+02 -0.76125985481E+02  0.27134335862E+03  0.28726519090E+03  0.00000000000E+00 0.  1.
</event>
<event>
 7    1  0.5593520E-006  0.1265788E+03  0.7818608E-02  0.1336225E+00
          2   -1    0    0  502    0  0.00000000000E+00  0.00000000000E+00  0.45551572944E+03  0.45551572944E+03  0.00000000000E+00 0. -1.
          1   -1    0    0  501    0 -0.00000000000E+00 -0.00000000000E+00 -0.38513930950E+03  0.38513930950E+03  0.00000000000E+00 0. -1.
         25    2    1    2    0    0 -0.11852150362E+03  0.21211336425E+02 -0.30845086746E+03  0.35392621846E+03  0.12499825144E+03 0.  0.
          2    1    1    2  501    0 -0.58102388184E+01 -0.47124740041E+02 -0.31643026873E+02  0.57059452756E+02  0.00000000000E+00 0. -1.
          1    1    1    2  502    0  0.12433174244E+03  0.25913403617E+02  0.41047031427E+03  0.42966936773E+03  0.00000000000E+00 0. -1.
         22    1    3    3    0    0 -0.65949024531E+02  0.60892933197E+02 -0.25084778500E+03  0.26642416255E+03  0.00000000000E+00 0. -1.
         22    1    3    3    0    0 -0.52572479087E+02 -0.39681596772E+02 -0.57603082456E+02  0.87502055908E+02  0.00000000000E+00 0. -1.
</event>
<event>
 7    1  0.5593520E-006  0.8059443E+02  0.7818608E-02  0.1393997E+00
          2   -1    0    0  502    0  0.00000000000E+00  0.00000000000E+00  0.12198244451E+04  0.12198244451E+04  0.00000000000E+00 0. -1.
          1   -1    0    0  501    0 -0.00000000000E+00 -0.00000000000E+00 -0.39846284529E+02  0.39846284529E+02  0.00000000000E+00 0. -1.
         25    2    1    2    0    0  0.28607545730E+02  0.28101834136E+02  0.49469011783E+03  0.51180723165E+03  0.12498089832E+03 0.  0.
          2    1    1    2  501    0 -0.52238084844E+02 -0.67630852701E+02  0.29417065033E+02  0.90377615926E+02  0.00000000000E+00 0. -1.
          1    1    1    2  502    0  0.23630539115E+02  0.39529018565E+02  0.65587097770E+03  0.65748588204E+03  0.00000000000E+00 0. -1.
         22    1    3    3    0    0  0.74535290138E+02  0.25350695310E+02  0.22881212201E+03  0.24197759071E+03  0.00000000000E+00 0.  1.
         22    1    3    3    0    0 -0.45927744409E+02  0.27511388263E+01  0.26587799581E+03  0.26982964094E+03  0.00000000000E+00 0.  1.
</event>
<event>
 7    1  0.6270767E-006  0.8068564E+02  0.7818608E-02  0.1363689E+00
          2   -1    0    0  502    0  0.00000000000E+00  0.00000000000E+00  0.17308435285E+04  0.17308435285E+04  0.00000000000E+00 0. -1.
          1   -1    0    0  501    0 -0.00000000000E+00 -0.00000000000E+00 -0.36105700986E+03  0.36105700986E+03  0.00000000000E+00 0. -1.
         25    2    1    2    0    0  0.57533545655E+02  0.68127274001E+02  0.56130455085E+02  0.16348352788E+03  0.12499920624E+03 0.  0.
          2    1    1    2  501    0 -0.86369474824E-01 -0.81250938219E+02 -0.30146442455E+03  0.31222191097E+03  0.00000000000E+00 0. -1.
          1    1    1    2  502    0 -0.57447176180E+02  0.13123664217E+02  0.16151204881E+04  0.16161950995E+04  0.00000000000E+00 0. -1.
         22    1    3    3    0    0 -0.10122302283E+02  0.30482085282E+01 -0.32623962451E+02  0.34293957263E+02  0.00000000000E+00 0.  1.
         22    1    3    3    0    0  0.67655847938E+02  0.65079065473E+02  0.88754417537E+02  0.12918957061E+03  0.00000000000E+00 0.  1.
</event>
<event>
 7    1  0.5593520E-006  0.1303215E+03  0.7818608E-02  0.1277495E+00
          2   -1    0    0  502    0  0.00000000000E+00  0.00000000000E+00  0.12159963894E+04  0.12159963894E+04  0.00000000000E+00 0. -1.
          1   -1    0    0  501    0 -0.00000000000E+00 -0.00000000000E+00 -0.39851579347E+03  0.39851579347E+03  0.00000000000E+00 0. -1.
         25    2    1    2    0    0 -0.62136794528E+02 -0.16410979300E+02  0.12829657759E+03  0.19030304236E+03  0.12499973854E+03 0.  0.
          2    1    1    2  501    0  0.11113375451E+03  0.78137997745E+02 -0.35341954054E+03  0.37863125824E+03  0.00000000000E+00 0. -1.
          1    1    1    2  502    0 -0.48996959980E+02 -0.61727018445E+02  0.10426035589E+04  0.10455778823E+04  0.00000000000E+00 0. -1.
         22    1    3    3    0    0  0.21400244483E+02  0.18384089387E+02 -0.55327391853E+01  0.28749894077E+02  0.00000000000E+00 0.  1.
         22    1    3    3    0    0 -0.83537039011E+02 -0.34795068687E+02  0.13382931677E+03  0.16155314828E+03  0.00000000000E+00 0.  1.
</event>
<event>
 7    1  0.5593520E-006  0.2218033E+03  0.7818608E-02  0.1254356E+00
          2   -1    0    0  502    0  0.00000000000E+00  0.00000000000E+00  0.16250597284E+04  0.16250597284E+04  0.00000000000E+00 0. -1.
          1   -1    0    0  501    0 -0.00000000000E+00 -0.00000000000E+00 -0.13331579007E+04  0.13331579007E+04  0.00000000000E+00 0. -1.
         25    2    1    2    0    0  0.18847969200E+03  0.46917535898E+02  0.51304309428E+03  0.56264037550E+03  0.12500050433E+03 0.  0.
          2    1    1    2  501    0  0.27807178153E+02  0.50902477045E+02 -0.12947451372E+04  0.12960436998E+04  0.00000000000E+00 0. -1.
          1    1    1    2  502    0 -0.21628687015E+03 -0.97820012944E+02  0.10736038706E+04  0.10995335539E+04  0.00000000000E+00 0. -1.
         22    1    3    3    0    0  0.64975099016E+02 -0.38504744905E+02  0.23213811760E+03  0.24411571952E+03  0.00000000000E+00 0.  1.
         22    1    3    3    0    0  0.12350459298E+03  0.85422280803E+02  0.28090497668E+03  0.31852465598E+03  0.00000000000E+00 0.  1.
</event>
<event>
 7    1  0.5593520E-006  0.8051198E+02  0.7818608E-02  0.1368461E+00
          2   -1    0    0  502    0  0.00000000000E+00  0.00000000000E+00  0.33419875803E+03  0.33419875803E+03  0.00000000000E+00 0. -1.
          1   -1    0    0  501    0 -0.00000000000E+00 -0.00000000000E+00 -0.47149358027E+03  0.47149358027E+03  0.00000000000E+00 0. -1.
         25    2    1    2    0    0 -0.65535036356E+02 -0.38294329761E+02 -0.24716624430E+03  0.28718858378E+03  0.12499933461E+03 0.  0.
          2    1    1    2  501    0  0.87738697513E+02 -0.13935424748E+02 -0.19188726609E+03  0.21145448208E+03  0.00000000000E+00 0. -1.
          1    1    1    2  502    0 -0.22203661158E+02  0.52229754509E+02  0.30175868816E+03  0.30704927243E+03  0.00000000000E+00 0. -1.
         22    1    3    3    0    0 -0.75617978457E+02  0.17307627716E+01 -0.23064264063E+03  0.24272845297E+03  0.00000000000E+00 0.  1.
         22    1    3    3    0    0  0.10082942101E+02 -0.40025092533E+02 -0.16523603669E+02  0.44460130813E+02  0.00000000000E+00 0.  1.
</event>
<event>
 7    1  0.5593520E-006  0.6149089E+02  0.7818608E-02  0.1455204E+00
          2   -1    0    0  502    0  0.00000000000E+00  0.00000000000E+00  0.14189619730E+03  0.14189619730E+03  0.00000000000E+00 0. -1.
          1   -1    0    0  501    0 -0.00000000000E+00 -0.00000000000E+00 -0.62515864984E+03  0.62515864984E+03  0.00000000000E+00 0. -1.
         25    2    1    2    0    0 -0.29652370638E+02 -0.52132584158E+02 -0.29810911230E+03  0.32877309366E+03  0.12500253942E+03 0.  0.
          2    1    1    2  501    0 -0.64051288833E+01  0.63503829814E+02 -0.30552057974E+03  0.31211630319E+03  0.00000000000E+00 0. -1.
          1    1    1    2  502    0  0.36057499521E+02 -0.11371245655E+02  0.12036723950E+03  0.12616545028E+03  0.00000000000E+00 0. -1.
         22    1    3    3    0    0 -0.12726039548E+01  0.41084913764E+02 -0.82841741554E+02  0.92478883014E+02  0.00000000000E+00 0.  1.
         22    1    3    3    0    0 -0.28379766683E+02 -0.93217497922E+02 -0.21526737075E+03  0.23629421065E+03  0.00000000000E+00 0.  1.
</event>
<event>
 7    1  0.5593520E-006  0.6825434E+02  0.7818608E-02  0.1368896E+00
          2   -1    0    0  502    0  0.00000000000E+00  0.00000000000E+00  0.11213143256E+04  0.11213143256E+04  0.00000000000E+00 0. -1.
          1   -1    0    0  501    0 -0.00000000000E+00 -0.00000000000E+00 -0.13446532526E+03  0.13446532526E+03  0.00000000000E+00 0. -1.
         25    2    1    2    0    0 -0.63604905920E+02 -0.68785324691E+02  0.47353433948E+02  0.16322133427E+03  0.12498740458E+03 0.  0.
          2    1    1    2  501    0 -0.46484467900E+01  0.66542698051E+02 -0.60607384059E+02  0.90126542838E+02  0.00000000000E+00 0. -1.
          1    1    1    2  502    0  0.68253352710E+02  0.22426266393E+01  0.10001029505E+04  0.10024317738E+04  0.00000000000E+00 0. -1.
         22    1    3    3    0    0  0.31179214917E+02 -0.40228710177E+02  0.38530517708E+02  0.63836457923E+02  0.00000000000E+00 0. -1.
         22    1    3    3    0    0 -0.94784120836E+02 -0.28556614513E+02  0.88229162396E+01  0.99384876345E+02  0.00000000000E+00 0. -1.
</event>
<event>
 7    1  0.5593520E-006  0.1552010E+03  0.7818608E-02  0.1351327E+00
          2   -1    0    0  502    0  0.00000000000E+00  0.00000000000E+00  0.19283567115E+04  0.19283567115E+04  0.00000000000E+00 0. -1.
          1   -1    0    0  501    0 -0.00000000000E+00 -0.00000000000E+00 -0.17909740132E+03  0.17909740132E+03  0.00000000000E+00 0. -1.
         25    2    1    2    0    0 -0.95306867476E+02 -0.10186368575E+03  0.43578279484E+03  0.47433264781E+03  0.12500082816E+03 0.  0.
          2    1    1    2  501    0  0.82417067071E+02  0.13332753041E+03 -0.12114113864E+03  0.19810093079E+03  0.00000000000E+00 0. -1.
          1    1    1    2  502    0  0.12889800404E+02 -0.31463844654E+02  0.14346176540E+04  0.14350205342E+04  0.00000000000E+00 0. -1.
         22    1    3    3    0    0 -0.10323544033E+03 -0.12275710035E+03  0.33938602896E+03  0.37537945932E+03  0.00000000000E+00 0. -1.
         22    1    3    3    0    0  0.79285728535E+01  0.20893414600E+02  0.96396765875E+02  0.98953188490E+02  0.00000000000E+00 0. -1.
</event>
<event>
 7    1  0.5593520E-006  0.7641251E+02  0.7818608E-02  0.1358472E+00
          2   -1    0    0  502    0  0.00000000000E+00  0.00000000000E+00  0.38457395464E+03  0.38457395464E+03  0.00000000000E+00 0. -1.
          1   -1    0    0  501    0 -0.00000000000E+00 -0.00000000000E+00 -0.58632609404E+02  0.58632609404E+02  0.00000000000E+00 0. -1.
         25    2    1    2    0    0 -0.20213838077E+02 -0.44855707039E+02  0.12225277761E+03  0.18163625347E+03  0.12500141294E+03 0.  0.
          2    1    1    2  501    0 -0.64594751268E+02  0.73008140027E+01  0.49791245098E+02  0.81883770461E+02  0.00000000000E+00 0. -1.
          1    1    1    2  502    0  0.84808589345E+02  0.37554893036E+02  0.15389732252E+03  0.17968654011E+03  0.00000000000E+00 0. -1.
         22    1    3    3    0    0 -0.42225852543E+02 -0.10053589906E+02 -0.87799557538E+01  0.44285267483E+02  0.00000000000E+00 0. -1.
         22    1    3    3    0    0  0.22012014466E+02 -0.34802117133E+02  0.13103273337E+03  0.13735098599E+03  0.00000000000E+00 0. -1.
</event>
<event>
 7    1  0.5593520E-006  0.9109811E+02  0.7818608E-02  0.1332012E+00
          2   -1    0    0  502    0  0.00000000000E+00  0.00000000000E+00  0.71155426768E+03  0.71155426768E+03  0.00000000000E+00 0. -1.
          1   -1    0    0  501    0 -0.00000000000E+00 -0.00000000000E+00 -0.15508694226E+04  0.15508694226E+04  0.00000000000E+00 0. -1.
         25    2    1    2    0    0  0.14821044478E+03 -0.39171535015E+02 -0.48997692842E+03  0.52839638244E+03  0.12499840596E+03 0.  0.
          2    1    1    2  501    0 -0.57473496691E+02  0.37176436399E+02 -0.10375758604E+04  0.10398312153E+04  0.00000000000E+00 0. -1.
          1    1    1    2  502    0 -0.90736948088E+02  0.19950986155E+01  0.68823763391E+03  0.69419609254E+03  0.00000000000E+00 0. -1.
         22    1    3    3    0    0  0.73179643357E+02  0.38051231854E+02 -0.14282714161E+03  0.16493255842E+03  0.00000000000E+00 0. -1.
         22    1    3    3    0    0  0.75030801421E+02 -0.77222766869E+02 -0.34714978681E+03  0.36346382402E+03  0.00000000000E+00 0. -1.
</event>
<event>
 7    1  0.5593520E-006  0.6556593E+02  0.7818608E-02  0.1418457E+00
          2   -1    0    0  502    0  0.00000000000E+00  0.00000000000E+00  0.18337065019E+03  0.18337065019E+03  0.00000000000E+00 0. -1.
          1   -1    0    0  501    0 -0.00000000000E+00 -0.00000000000E+00 -0.25809181176E+03  0.25809181176E+03  0.00000000000E+00 0. -1.
         25    2    1    2    0    0  0.21832788616E+02 -0.10701782825E+03  0.15699433357E+01  0.16600490882E+03  0.12500271520E+03 0.  0.
          2    1    1    2  501    0 -0.10579901274E+02  0.61669452584E+02 -0.16430205863E+03  0.17581303184E+03  0.00000000000E+00 0. -1.
          1    1    1    2  502    0 -0.11252887342E+02  0.45348375669E+02  0.88010953728E+02  0.99644521301E+02  0.00000000000E+00 0. -1.
         22    1    3    3    0    0 -0.41851846288E+02 -0.27768489504E+02 -0.31270822035E+02  0.59165280003E+02  0.00000000000E+00 0.  1.
         22    1    3    3    0    0  0.63684634904E+02 -0.79249338749E+02  0.32840765371E+02  0.10683962881E+03  0.00000000000E+00 0.  1.
</event>
<event>
 7    1  0.5593520E-006  0.1293195E+03  0.7818608E-02  0.1259251E+00
          2   -1    0    0  502    0  0.00000000000E+00  0.00000000000E+00  0.10939331242E+04  0.10939331242E+04  0.00000000000E+00 0. -1.
          1   -1    0    0  501    0 -0.00000000000E+00 -0.00000000000E+00 -0.56352793805E+03  0.56352793805E+03  0.00000000000E+00 0. -1.
         25    2    1    2    0    0  0.13074045953E+03 -0.89655420014E+02  0.11660175408E+03  0.23313578584E+03  0.12500065395E+03 0.  0.
          2    1    1    2  501    0 -0.41792964979E+02  0.12241290665E+03 -0.49447532721E+03  0.51111390204E+03  0.00000000000E+00 0. -1.
          1    1    1    2  502    0 -0.88947494555E+02 -0.32757486640E+02  0.90827875926E+03  0.91321137435E+03  0.00000000000E+00 0. -1.
         22    1    3    3    0    0 -0.21148542366E+02 -0.32339777899E+02  0.31413906200E+02  0.49799152417E+02  0.00000000000E+00 0.  1.
         22    1    3    3    0    0  0.15188900190E+03 -0.57315642115E+02  0.85187847881E+02  0.18333663343E+03  0.00000000000E+00 0.  1.
</event>
<event>
 7    1  0.5593520E-006  0.9082530E+02  0.7818608E-02  0.1463247E+00
          2   -1    0    0  502    0  0.00000000000E+00  0.00000000000E+00  0.36727169777E+02  0.36727169777E+02  0.00000000000E+00 0. -1.
          1   -1    0    0  501    0 -0.00000000000E+00 -0.00000000000E+00 -0.12002551886E+04  0.12002551886E+04  0.00000000000E+00 0. -1.
         25    2    1    2    0    0  0.62469582644E+02 -0.32234845597E+02 -0.47865824766E+03  0.49967945950E+03  0.12499724062E+03 0.  0.
          2    1    1    2  501    0  0.21858604449E+02 -0.10251047846E+02 -0.62506532493E+03  0.62553140848E+03  0.00000000000E+00 0. -1.
          1    1    1    2  502    0 -0.84328187092E+02  0.42485893443E+02 -0.59804446270E+02  0.11177149043E+03  0.00000000000E+00 0. -1.
         22    1    3    3    0    0  0.79727132713E+02 -0.36019969512E+02 -0.17637821399E+03  0.19688353985E+03  0.00000000000E+00 0.  1.
         22    1    3    3    0    0 -0.17257550069E+02  0.37851239148E+01 -0.30228003367E+03  0.30279591965E+03  0.00000000000E+00 0.  1.
</event>
<event>
 7    1  0.5593520E-006  0.4346675E+02  0.7818608E-02  0.1535787E+00
          2   -1    0    0  502    0  0.00000000000E+00  0.00000000000E+00  0.15108906324E+04  0.15108906324E+04  0.00000000000E+00 0. -1.
          1   -1    0    0  501    0 -0.00000000000E+00 -0.00000000000E+00 -0.99389793355E+03  0.99389793355E+03  0.00000000000E+00 0. -1.
         25    2    1    2    0    0 -0.34923253227E+02  0.76487533379E+01 -0.10157627290E+03  0.16498912727E+03  0.12500214342E+03 0.  0.
          2    1    1    2  501    0  0.10893940510E+02  0.28623337376E+02 -0.86002264928E+03  0.86056779550E+03  0.00000000000E+00 0. -1.
          1    1    1    2  502    0  0.24029312717E+02 -0.36272090714E+02  0.14785916210E+04  0.14792316432E+04  0.00000000000E+00 0. -1.
         22    1    3    3    0    0 -0.53868730942E+02  0.53603560593E+01 -0.12414449225E+03  0.13543422221E+03  0.00000000000E+00 0. -1.
         22    1    3    3    0    0  0.18945477715E+02  0.22883972787E+01  0.22568219356E+02  0.29554905056E+02  0.00000000000E+00 0. -1.
</event>
<event>
 7    1  0.5593520E-006  0.1662239E+03  0.7818608E-02  0.1377637E+00
          2   -1    0    0  502    0  0.00000000000E+00  0.00000000000E+00  0.57648608900E+03  0.57648608900E+03  0.00000000000E+00 0. -1.
          1   -1    0    0  501    0 -0.00000000000E+00 -0.00000000000E+00 -0.98461249082E+03  0.98461249082E+03  0.00000000000E+00 0. -1.
         25    2    1    2    0    0  0.15294579841E+03  0.96138885844E+01  0.25925418606E+03  0.32606981649E+03  0.12499579245E+03 0.  0.
          2    1    1    2  501    0  0.22896478929E+02  0.11196048423E+02 -0.92339464479E+03  0.92374632355E+03  0.00000000000E+00 0. -1.
          1    1    1    2  502    0 -0.17584227734E+03 -0.20809937007E+02  0.25601405690E+03  0.31128243977E+03  0.00000000000E+00 0. -1.
         22    1    3    3    0    0  0.54664544593E+02 -0.56783358222E+02  0.94342562118E+02  0.12293527254E+03  0.00000000000E+00 0. -1.
         22    1    3    3    0    0  0.98281253821E+02  0.66397246806E+02  0.16491162394E+03  0.20313454395E+03  0.00000000000E+00 0. -1.
</event>
<event>
 7    1  0.5593520E-006  0.5322607E+02  0.7818608E-02  0.1472854E+00
          2   -1    0    0  502    0  0.00000000000E+00  0.00000000000E+00  0.82931179919E+03  0.82931179919E+03  0.00000000000E+00 0. -1.
          1   -1    0    0  501    0 -0.00000000000E+00 -0.00000000000E+00 -0.21917316856E+03  0.21917316856E+03  0.00000000000E+00 0. -1.
         25    2    1    2    0    0 -0.27126596657E+02  0.22118838115E+02 -0.58693508667E+02  0.14246067666E+03  0.12500008475E+03 0.  0.
          2    1    1    2  501    0  0.22515352668E+02  0.31169198430E+02 -0.11454340275E+03  0.12082487802E+03  0.00000000000E+00 0. -1.
          1    1    1    2  502    0  0.46112439894E+01 -0.53288036545E+02  0.78337554204E+03  0.78519941306E+03  0.00000000000E+00 0. -1.
         22    1    3    3    0    0 -0.42216316348E+02 -0.29392369797E+02 -0.70724146517E+02  0.87453036933E+02  0.00000000000E+00 0. -1.
         22    1    3    3    0    0  0.15089719691E+02  0.51511207912E+02  0.12030637850E+02  0.55007639724E+02  0.00000000000E+00 0. -1.
</event>
<event>
 7    1  0.6280827E-006  0.7050596E+02  0.7818608E-02  0.1375184E+00
          2   -1    0    0  502    0  0.00000000000E+00  0.00000000000E+00  0.38744748740E+03  0.38744748740E+03  0.00000000000E+00 0. -1.
          1   -1    0    0  501    0 -0.00000000000E+00 -0.00000000000E+00 -0.16219933455E+04  0.16219933455E+04  0.00000000000E+00 0. -1.
         25    2    1    2    0    0 -0.11374218876E+02 -0.25714091442E+01 -0.49453151105E+03  0.51021949702E+03  0.12500613872E+03 0.  0.
          2    1    1    2  501    0 -0.39132275576E+02 -0.47195943468E+02 -0.11154575356E+04  0.11171411306E+04  0.00000000000E+00 0. -1.
          1    1    1    2  502    0  0.50506494452E+02  0.49767352612E+02  0.37544318857E+03  0.38208020521E+03  0.00000000000E+00 0. -1.
         22    1    3    3    0    0 -0.62159625732E+01  0.60657716513E+02 -0.27666577811E+03  0.28330539977E+03  0.00000000000E+00 0.  1.
         22    1    3    3    0    0 -0.51582563026E+01 -0.63229125658E+02 -0.21786573294E+03  0.22691409725E+03  0.00000000000E+00 0.  1.
</event>
<event>
 7    1  0.5593520E-006  0.1026600E+03  0.7818608E-02  0.1411773E+00
          2   -1    0    0  502    0  0.00000000000E+00  0.00000000000E+00  0.14789450172E+04  0.14789450172E+04  0.00000000000E+00 0. -1.
          1   -1    0    0  501    0 -0.00000000000E+00 -0.00000000000E+00 -0.49093244024E+02  0.49093244024E+02  0.00000000000E+00 0. -1.
         25    2    1    2    0    0 -0.10810520288E+02  0.74746881775E+02  0.13949056392E+03  0.20195651477E+03  0.12499941100E+03 0.  0.
          2    1    1    2  501    0  0.10004608158E+02  0.29791505726E+02 -0.66261472936E-01  0.31426587285E+02  0.00000000000E+00 0. -1.
          1    1    1    2  502    0  0.80591213056E+00 -0.10453838750E+03  0.12904274707E+04  0.12946551591E+04  0.00000000000E+00 0. -1.
         22    1    3    3    0    0 -0.61386605004E+02  0.47923004281E+02  0.11678371373E+03  0.14036867673E+03  0.00000000000E+00 0. -1.
         22    1    3    3    0    0  0.50576084716E+02  0.26823877494E+02  0.22706850188E+02  0.61587838040E+02  0.00000000000E+00 0. -1.
</event>
<event>
 7    1  0.5593520E-006  0.2109450E+03  0.7818608E-02  0.1231921E+00
          2   -1    0    0  502    0  0.00000000000E+00  0.00000000000E+00  0.60186570448E+03  0.60186570448E+03  0.00000000000E+00 0. -1.
          1   -1    0    0  501    0 -0.00000000000E+00 -0.00000000000E+00 -0.57342743100E+03  0.57342743100E+03  0.00000000000E+00 0. -1.
         25    2    1    2    0    0  0.77464477840E+00  0.16783448115E+03  0.16650254582E+03  0.26742827319E+03  0.12500308156E+03 0.  0.
          2    1    1    2  501    0 -0.91315464719E+00  0.76498478718E+02 -0.48085824390E+03  0.48690605031E+03  0.00000000000E+00 0. -1.
          1    1    1    2  502    0  0.13850986878E+00 -0.24433295986E+03  0.34279397155E+03  0.42095881199E+03  0.00000000000E+00 0. -1.
         22    1    3    3    0    0 -0.24854207480E+02  0.17215038878E+03  0.11152949731E+03  0.20662119145E+03  0.00000000000E+00 0.  1.
         22    1    3    3    0    0  0.25628852259E+02 -0.43159076322E+01  0.54973048511E+02  0.60807081737E+02  0.00000000000E+00 0.  1.
</event>
<event>
 7    1  0.5593520E-006  0.2131828E+03  0.7818608E-02  0.1323843E+00
          2   -1    0    0  502    0  0.00000000000E+00  0.00000000000E+00  0.77558598906E+03  0.77558598906E+03  0.00000000000E+00 0. -1.
          1   -1    0    0  501    0 -0.00000000000E+00 -0.00000000000E+00 -0.32709671095E+04  0.32709671095E+04  0.00000000000E+00 0. -1.
         25    2    1    2    0    0  0.10583465976E+02 -0.18205231229E+03  0.12356161087E+03  0.25327385443E+03  0.12500047797E+03 0.  0.
          2    1    1    2  501    0 -0.13897139704E+02  0.21331365757E+03 -0.32021239939E+04  0.32092513020E+04  0.00000000000E+00 0. -1.
          1    1    1    2  502    0  0.33136737273E+01 -0.31261345277E+02  0.58318126260E+03  0.58402794213E+03  0.00000000000E+00 0. -1.
         22    1    3    3    0    0  0.15822165229E+02 -0.16992699885E+02 -0.22848226367E+02  0.32575055027E+02  0.00000000000E+00 0. -1.
         22    1    3    3    0    0 -0.52386992522E+01 -0.16505961241E+03  0.14640983724E+03  0.22069879940E+03  0.00000000000E+00 0. -1.
</event>
<event>
 7    1  0.5593520E-006  0.7083364E+02  0.7818608E-02  0.1377229E+00
          2   -1    0    0  502    0  0.00000000000E+00  0.00000000000E+00  0.74868540309E+02  0.74868540309E+02  0.00000000000E+00 0. -1.
          1   -1    0    0  501    0 -0.00000000000E+00 -0.00000000000E+00 -0.10633109228E+04  0.10633109228E+04  0.00000000000E+00 0. -1.
         25    2    1    2    0    0 -0.10323955465E+02  0.22022444632E+02 -0.22161072368E+03  0.25559328167E+03  0.12500016264E+03 0.  0.
          2    1    1    2  501    0 -0.59208800382E+02  0.97755444631E+01 -0.79782930892E+03  0.80008302662E+03  0.00000000000E+00 0. -1.
          1    1    1    2  502    0  0.69532755847E+02 -0.31797989095E+02  0.30997650097E+02  0.82503154835E+02  0.00000000000E+00 0. -1.
         22    1    3    3    0    0  0.65561503608E+00 -0.41919617122E+02 -0.16251417052E+03  0.16783485857E+03  0.00000000000E+00 0.  1.
         22    1    3    3    0    0 -0.10979570501E+02  0.63942061753E+02 -0.59096553161E+02  0.87758423101E+02  0.00000000000E+00 0.  1.
</event>
<event>
 7    1  0.5593520E-006  0.8293325E+02  0.7818608E-02  0.1405534E+00
          2   -1    0    0  502    0  0.00000000000E+00  0.00000000000E+00  0.15047454950E+04  0.15047454950E+04  0.00000000000E+00 0. -1.
          1   -1    0    0  501    0 -0.00000000000E+00 -0.00000000000E+00 -0.94265908543E+02  0.94265908543E+02  0.00000000000E+00 0. -1.
         25    2    1    2    0    0  0.10549921948E+03  0.46439108200E+02  0.30324993666E+02  0.17271701619E+03  0.12499954543E+03 0.  0.
          2    1    1    2  501    0 -0.24179011589E+02 -0.32921133601E+02 -0.27463358858E+01  0.40938588151E+02  0.00000000000E+00 0. -1.
          1    1    1    2  502    0 -0.81320207894E+02 -0.13517974599E+02  0.13829009287E+04  0.13853557992E+04  0.00000000000E+00 0. -1.
         22    1    3    3    0    0  0.13056975019E+02  0.43970659021E+02 -0.36504284088E+02  0.58621380128E+02  0.00000000000E+00 0.  1.
         22    1    3    3    0    0  0.92442244464E+02  0.24684491792E+01  0.66829277755E+02  0.11409563606E+03  0.00000000000E+00 0.  1.
</event>
<event>
 7    1  0.5593520E-006  0.1919025E+03  0.7818608E-02  0.1287352E+00
          2   -1    0    0  502    0  0.00000000000E+00  0.00000000000E+00  0.10472671171E+04  0.10472671171E+04  0.00000000000E+00 0. -1.
          1   -1    0    0  501    0 -0.00000000000E+00 -0.00000000000E+00 -0.15441566167E+03  0.15441566167E+03  0.00000000000E+00 0. -1.
         25    2    1    2    0    0  0.65477153365E+02 -0.14654403419E+03 -0.10572030000E+02  0.20371163699E+03  0.12499700659E+03 0.  0.
          2    1    1    2  501    0  0.46998071812E+02 -0.12936741976E+02 -0.21069749375E+02  0.53104730352E+02  0.00000000000E+00 0. -1.
          1    1    1    2  502    0 -0.11247522518E+03  0.15948077617E+03  0.92449323480E+03  0.94486641142E+03  0.00000000000E+00 0. -1.
         22    1    3    3    0    0 -0.31418707748E+02 -0.17532486586E+02  0.17386915593E+02  0.39960331784E+02  0.00000000000E+00 0.  1.
         22    1    3    3    0    0  0.96895861113E+02 -0.12901154761E+03 -0.27958945594E+02  0.16375130520E+03  0.00000000000E+00 0.  1.
</event>
<event>
 7    1  0.5593520E-006  0.6501760E+02  0.7818608E-02  0.1454871E+00
          2   -1    0    0  502    0  0.00000000000E+00  0.00000000000E+00  0.14418890804E+04  0.14418890804E+04  0.00000000000E+00 0. -1.
          1   -1    0    0  501    0 -0.00000000000E+00 -0.00000000000E+00 -0.75332053427E+03  0.75332053427E+03  0.00000000000E+00 0. -1.
         25    2    1    2    0    0 -0.26643811087E+02 -0.12981600569E+02  0.61778367012E+01  0.12861575659E+03  0.12500173020E+03 0.  0.
          2    1    1    2  501    0 -0.31535867215E+02 -0.17038971100E+02 -0.69085709939E+03  0.69178636098E+03  0.00000000000E+00 0. -1.
          1    1    1    2  502    0  0.58179678301E+02  0.30020571669E+02  0.13732478088E+04  0.13748074971E+04  0.00000000000E+00 0. -1.
         22    1    3    3    0    0  0.89879028065E+01 -0.40857199108E+02 -0.44232518410E+02  0.60881925074E+02  0.00000000000E+00 0.  1.
         22    1    3    3    0    0 -0.35631713893E+02  0.27875598539E+02  0.50410355111E+02  0.67733831512E+02  0.00000000000E+00 0.  1.
</event>
<event>
 7    1  0.5593520E-006  0.1826740E+03  0.7818608E-02  0.1184496E+00
          2   -1    0    0  502    0  0.00000000000E+00  0.00000000000E+00  0.92739656684E+03  0.92739656684E+03  0.00000000000E+00 0. -1.
          1   -1    0    0  501    0 -0.00000000000E+00 -0.00000000000E+00 -0.44898607736E+03  0.44898607736E+03  0.00000000000E+00 0. -1.
         25    2    1    2    0    0  0.16299587031E+03 -0.11598721215E+03  0.20641533108E+03  0.31345215122E+03  0.12499710029E+03 0.  0.
          2    1    1    2  501    0 -0.18340156247E+03 -0.29425741934E+02 -0.36483129649E+03  0.40939453136E+03  0.00000000000E+00 0. -1.
          1    1    1    2  502    0  0.20405692164E+02  0.14541295408E+03  0.63682645489E+03  0.65353596162E+03  0.00000000000E+00 0. -1.
         22    1    3    3    0    0  0.18535824401E+02 -0.33897796434E+02 -0.10667188483E+02  0.40080248246E+02  0.00000000000E+00 0.  1.
         22    1    3    3    0    0  0.14446004591E+03 -0.82089415714E+02  0.21708251957E+03  0.27337190298E+03  0.00000000000E+00 0.  1.
</event>
<event>
 7    1  0.5593520E-006  0.1505576E+03  0.7818608E-02  0.1289589E+00
          2   -1    0    0  502    0  0.00000000000E+00  0.00000000000E+00  0.27341498271E+04  0.27341498271E+04  0.00000000000E+00 0. -1.
          1   -1    0    0  501    0 -0.00000000000E+00 -0.00000000000E+00 -0.80558571691E+03  0.80558571691E+03  0.00000000000E+00 0. -1.
         25    2    1    2    0    0  0.76578949964E+02  0.12266484136E+03 -0.86616559532E+02  0.20985260458E+03  0.12499875352E+03 0.  0.
          2    1    1    2  501    0  0.47898672551E+02 -0.37514617902E+02 -0.65380996711E+03  0.65663467962E+03  0.00000000000E+00 0. -1.
          1    1    1    2  502    0 -0.12447762252E+03 -0.85150223458E+02  0.26689906369E+04  0.26732482598E+04  0.00000000000E+00 0. -1.
         22    1    3    3    0    0  0.19420915969E+02  0.12186631344E+03 -0.89770872275E+02  0.15260203091E+03  0.00000000000E+00 0.  1.
         22    1    3    3    0    0  0.57158033995E+02  0.79852791868E+00  0.31543127436E+01  0.57250573673E+02  0.00000000000E+00 0.  1.
</event>
<event>
 7    1  0.5593520E-006  0.9015729E+02  0.7818608E-02  0.1312763E+00
          2   -1    0    0  502    0  0.00000000000E+00  0.00000000000E+00  0.18868928552E+03  0.18868928552E+03  0.00000000000E+00 0. -1.
          1   -1    0    0  501    0 -0.00000000000E+00 -0.00000000000E+00 -0.13591772268E+04  0.13591772268E+04  0.00000000000E+00 0. -1.
         25    2    1    2    0    0 -0.29918973668E+01  0.19908690395E+02 -0.23598162950E+03  0.26780037672E+03  0.12499761959E+03 0.  0.
          2    1    1    2  501    0  0.91456621232E+02 -0.25210541131E+01 -0.10934831879E+04  0.10973040378E+04  0.00000000000E+00 0. -1.
          1    1    1    2  502    0 -0.88464723866E+02 -0.17387636282E+02  0.15897687608E+03  0.18276209780E+03  0.00000000000E+00 0. -1.
         22    1    3    3    0    0  0.59624517381E+02 -0.60008415580E+00 -0.94682696812E+02  0.11189395091E+03  0.00000000000E+00 0. -1.
         22    1    3    3    0    0 -0.62616414748E+02  0.20508774551E+02 -0.14129893269E+03  0.15590642581E+03  0.00000000000E+00 0. -1.
</event>
<event>
 7    1  0.5593520E-006  0.1038020E+03  0.7818608E-02  0.1370201E+00
          2   -1    0    0  502    0  0.00000000000E+00  0.00000000000E+00  0.71413966067E+03  0.71413966067E+03  0.00000000000E+00 0. -1.
          1   -1    0    0  501    0 -0.00000000000E+00 -0.00000000000E+00 -0.87405689450E+02  0.87405689450E+02  0.00000000000E+00 0. -1.
         25    2    1    2    0    0 -0.99880879022E+02  0.85242612208E+02  0.14998794067E+03  0.23530082898E+03  0.12501041894E+03 0.  0.
          2    1    1    2  501    0  0.82599655769E+01 -0.42596096345E+02 -0.27895637421E+02  0.51583146882E+02  0.00000000000E+00 0. -1.
          1    1    1    2  502    0  0.91620913445E+02 -0.42646515863E+02  0.50464166798E+03  0.51466137426E+03  0.00000000000E+00 0. -1.
         22    1    3    3    0    0 -0.34405889807E+02  0.17863760638E+02  0.13463246666E+03  0.14010274899E+03  0.00000000000E+00 0.  1.
         22    1    3    3    0    0 -0.65474989215E+02  0.67378851570E+02  0.15355474011E+02  0.95198079990E+02  0.00000000000E+00 0.  1.
</event>
<event>
 7    1  0.5593520E-006  0.1110563E+03  0.7818608E-02  0.1271997E+00
          2   -1    0    0  502    0  0.00000000000E+00  0.00000000000E+00  0.15620494205E+04  0.15620494205E+04  0.00000000000E+00 0. -1.
          1   -1    0    0  501    0 -0.00000000000E+00 -0.00000000000E+00 -0.11297791738E+04  0.11297791738E+04  0.00000000000E+00 0. -1.
         25    2    1    2    0    0 -0.15097181476E+03  0.52869625129E+02  0.11139179818E+02  0.20330927798E+03  0.12499158000E+03 0.  0.
          2    1    1    2  501    0  0.61595037897E+02 -0.91809319645E+02 -0.10290967119E+04  0.10350183295E+04  0.00000000000E+00 0. -1.
          1    1    1    2  502    0  0.89376776867E+02  0.38939694516E+02  0.14502277788E+04  0.14535009867E+04  0.00000000000E+00 0. -1.
         22    1    3    3    0    0 -0.10829786113E+03 -0.24753751555E+02  0.24408469722E+02  0.11374070659E+03  0.00000000000E+00 0. -1.
         22    1    3    3    0    0 -0.42673953637E+02  0.77623376684E+02 -0.13269289904E+02  0.89568571393E+02  0.00000000000E+00 0. -1.
</event>
<event>
 7    1  0.5593520E-006  0.4791181E+02  0.7818608E-02  0.1494361E+00
          2   -1    0    0  502    0  0.00000000000E+00  0.00000000000E+00  0.42555353879E+03  0.42555353879E+03  0.00000000000E+00 0. -1.
          1   -1    0    0  501    0 -0.00000000000E+00 -0.00000000000E+00 -0.20029753043E+03  0.20029753043E+03  0.00000000000E+00 0. -1.
         25    2    1    2    0    0  0.17728884060E+02 -0.72218311482E+02  0.24010176019E+03  0.28071855199E+03  0.12499700934E+03 0.  0.
          2    1    1    2  501    0 -0.23703976645E+02  0.28048207738E+02 -0.17504114152E+03  0.17885184285E+03  0.00000000000E+00 0. -1.
          1    1    1    2  502    0  0.59750925852E+01  0.44170103745E+02  0.16019538969E+03  0.16628067438E+03  0.00000000000E+00 0. -1.
         22    1    3    3    0    0 -0.17147565034E+02  0.20915390524E+02  0.12815425177E+03  0.13097711554E+03  0.00000000000E+00 0. -1.
         22    1    3    3    0    0  0.34876449094E+02 -0.93133702006E+02  0.11194750842E+03  0.14974143646E+03  0.00000000000E+00 0. -1.
</event>
<event>
 7    1  0.5593520E-006  0.7935277E+02  0.7818608E-02  0.1439286E+00
          2   -1    0    0  502    0  0.00000000000E+00  0.00000000000E+00  0.15829376362E+04  0.15829376362E+04  0.00000000000E+00 0. -1.
          1   -1    0    0  501    0 -0.00000000000E+00 -0.00000000000E+00 -0.14760834403E+03  0.14760834403E+03  0.00000000000E+00 0. -1.
         25    2    1    2    0    0 -0.16613390548E+02  0.10371002676E+03  0.10212874098E+03  0.19257961320E+03  0.12499941316E+03 0.  0.
          2    1    1    2  501    0  0.26531188849E+02 -0.72279174643E+02 -0.87689221761E+02  0.11669439867E+03  0.00000000000E+00 0. -1.
          1    1    1    2  502    0 -0.99177983011E+01 -0.31430852114E+02  0.14208897729E+04  0.14212719683E+04  0.00000000000E+00 0. -1.
         22    1    3    3    0    0  0.59684443149E+01  0.81053507995E+02 -0.43602697172E+01  0.81389836207E+02  0.00000000000E+00 0. -1.
         22    1    3    3    0    0 -0.22581834862E+02  0.22656518762E+02  0.10648901070E+03  0.11118977699E+03  0.00000000000E+00 0. -1.
</event>
<event>
 7    1  0.5593520E-006  0.1047697E+03  0.7818608E-02  0.1424990E+00
          2   -1    0    0  502    0  0.00000000000E+00  0.00000000000E+00  0.12432755600E+04  0.12432755600E+04  0.00000000000E+00 0. -1.
          1   -1    0    0  501    0 -0.00000000000E+00 -0.00000000000E+00 -0.78031990174E+03  0.78031990174E+03  0.00000000000E+00 0. -1.
         25    2    1    2    0    0 -0.68063330186E+02 -0.57621075196E+02  0.66892118519E+03  0.68631559832E+03  0.12498297196E+03 0.  0.
          2    1    1    2  501    0  0.93755438012E+02  0.46974009299E+02 -0.76771427469E+03  0.77484311140E+03  0.00000000000E+00 0. -1.
          1    1    1    2  502    0 -0.25692107826E+02  0.10647065896E+02  0.56174874775E+03  0.56243675201E+03  0.00000000000E+00 0. -1.
         22    1    3    3    0    0 -0.32573772859E+02 -0.92347863328E+02  0.52540614717E+03  0.53445373796E+03  0.00000000000E+00 0.  1.
         22    1    3    3    0    0 -0.35489557327E+02  0.34726788132E+02  0.14351503802E+03  0.15186186036E+03  0.00000000000E+00 0.  1.
</event>
<event>
 7    1  0.5593520E-006  0.5279598E+02  0.7818608E-02  0.1480488E+00
          2   -1    0    0  502    0  0.00000000000E+00  0.00000000000E+00  0.13698255926E+04  0.13698255926E+04  0.00000000000E+00 0. -1.
          1   -1    0    0  501    0 -0.00000000000E+00 -0.00000000000E+00 -0.10808879713E+03  0.10808879713E+03  0.00000000000E+00 0. -1.
         25    2    1    2    0    0 -0.41210399186E+01  0.61336897783E+02  0.66713559608E+03  0.68152239074E+03  0.12499466998E+03 0.  0.
          2    1    1    2  501    0 -0.28501798341E+02 -0.44481409147E+02 -0.93456665428E+02  0.10735500259E+03  0.00000000000E+00 0. -1.
          1    1    1    2  502    0  0.32622838260E+02 -0.16855488636E+02  0.68805786477E+03  0.68903699636E+03  0.00000000000E+00 0. -1.
         22    1    3    3    0    0  0.35094787021E+02  0.23916172287E+02  0.69605088899E+02  0.81538308626E+02  0.00000000000E+00 0. -1.
         22    1    3    3    0    0 -0.39215826940E+02  0.37420725496E+02  0.59753050718E+03  0.59998408211E+03  0.00000000000E+00 0. -1.
</event>
<event>
 7    1  0.5593520E-006  0.1423680E+03  0.7818608E-02  0.1237044E+00
          2   -1    0    0  502    0  0.00000000000E+00  0.00000000000E+00  0.18993749867E+04  0.18993749867E+04  0.00000000000E+00 0. -1.
          1   -1    0    0  501    0 -0.00000000000E+00 -0.00000000000E+00 -0.52897616379E+03  0.52897616379E+03  0.00000000000E+00 0. -1.
         25    2    1    2    0    0 -0.12561657466E+03 -0.11310321855E+03  0.11169723153E+03  0.23806046872E+03  0.12499861342E+03 0.  0.
          2    1    1    2  501    0 -0.17036860123E+02  0.10620048485E+03 -0.45657775665E+03  0.46907573530E+03  0.00000000000E+00 0. -1.
          1    1    1    2  502    0  0.14265343479E+03  0.69027336982E+01  0.17152793480E+04  0.17212149464E+04  0.00000000000E+00 0. -1.
         22    1    3    3    0    0 -0.12872999790E+03 -0.71923854991E+02  0.12640440383E+03  0.19422287863E+03  0.00000000000E+00 0.  1.
         22    1    3    3    0    0  0.31134232325E+01 -0.41179363559E+02 -0.14707172305E+02  0.43837590086E+02  0.00000000000E+00 0.  1.
</event>
<event>
 7    1  0.5593520E-006  0.1129375E+03  0.7818608E-02  0.1330472E+00
          2   -1    0    0  502    0  0.00000000000E+00  0.00000000000E+00  0.83264601865E+03  0.83264601865E+03  0.00000000000E+00 0. -1.
          1   -1    0    0  501    0 -0.00000000000E+00 -0.00000000000E+00 -0.62076532746E+03  0.62076532746E+03  0.00000000000E+00 0. -1.
         25    2    1    2    0    0 -0.75081022226E+02 -0.11165790786E+03  0.13935767310E+03  0.23054305505E+03  0.12499956358E+03 0.  0.
          2    1    1    2  501    0  0.19120516767E+02  0.11099692852E+03 -0.56842765485E+03  0.57947899971E+03  0.00000000000E+00 0. -1.
          1    1    1    2  502    0  0.55960505458E+02  0.66097934680E+00  0.64095067295E+03  0.64338929135E+03  0.00000000000E+00 0. -1.
         22    1    3    3    0    0  0.12274749990E+02  0.19659414797E+02  0.58483485168E+01  0.23903247852E+02  0.00000000000E+00 0. -1.
         22    1    3    3    0    0 -0.87355772216E+02 -0.13131732266E+03  0.13350932458E+03  0.20663980720E+03  0.00000000000E+00 0. -1.
</event>
<event>
 7    1  0.5593520E-006  0.1073443E+03  0.7818608E-02  0.1391740E+00
          2   -1    0    0  502    0  0.00000000000E+00  0.00000000000E+00  0.32940470025E+02  0.32940470025E+02  0.00000000000E+00 0. -1.
          1   -1    0    0  501    0 -0.00000000000E+00 -0.00000000000E+00 -0.10151210243E+04  0.10151210243E+04  0.00000000000E+00 0. -1.
         25    2    1    2    0    0  0.45304453585E+02 -0.70800552633E+02 -0.41469337814E+03  0.44120402195E+03  0.12500071736E+03 0.  0.
          2    1    1    2  501    0  0.28715857887E+02 -0.20370292078E+02 -0.40417643201E+03  0.40570696012E+03  0.00000000000E+00 0. -1.
          1    1    1    2  502    0 -0.74020311472E+02  0.91170844710E+02 -0.16331074410E+03  0.20115051224E+03  0.00000000000E+00 0. -1.
         22    1    3    3    0    0  0.99438540104E+01  0.23191209942E+02 -0.22642683358E+03  0.22782849562E+03  0.00000000000E+00 0. -1.
         22    1    3    3    0    0  0.35360599574E+02 -0.93991762574E+02 -0.18826654456E+03  0.21337552633E+03  0.00000000000E+00 0. -1.
</event>
<event>
 7    1  0.5593520E-006  0.1292663E+03  0.7818608E-02  0.1289476E+00
          2   -1    0    0  502    0  0.00000000000E+00  0.00000000000E+00  0.10194408052E+04  0.10194408052E+04  0.00000000000E+00 0. -1.
          1   -1    0    0  501    0 -0.00000000000E+00 -0.00000000000E+00 -0.49654409766E+03  0.49654409766E+03  0.00000000000E+00 0. -1.
         25    2    1    2    0    0  0.19258105344E+03  0.40402715745E+02  0.58115089150E+02  0.24026055242E+03  0.12501171097E+03 0.  0.
          2    1    1    2  501    0 -0.69809119068E+02 -0.12598276238E+02 -0.39776482154E+03  0.40404069464E+03  0.00000000000E+00 0. -1.
          1    1    1    2  502    0 -0.12277193437E+03 -0.27804439507E+02  0.86254643991E+03  0.87168365577E+03  0.00000000000E+00 0. -1.
         22    1    3    3    0    0  0.13528878734E+03 -0.12970708791E+01  0.90063365654E+02  0.16253045316E+03  0.00000000000E+00 0.  1.
         22    1    3    3    0    0  0.57292266098E+02  0.41699786624E+02 -0.31948276504E+02  0.77730099259E+02  0.00000000000E+00 0.  1.
</event>
<event>
 7    1  0.5593520E-006  0.1353265E+03  0.7818608E-02  0.1244871E+00
          2   -1    0    0  502    0  0.00000000000E+00  0.00000000000E+00  0.10992983747E+04  0.10992983747E+04  0.00000000000E+00 0. -1.
          1   -1    0    0  501    0 -0.00000000000E+00 -0.00000000000E+00 -0.11058158235E+04  0.11058158235E+04  0.00000000000E+00 0. -1.
         25    2    1    2    0    0 -0.10861505427E+03 -0.61871418122E+02 -0.32651140591E+03  0.37129398702E+03  0.12499689683E+03 0.  0.
          2    1    1    2  501    0  0.41396310958E+02  0.14191157371E+03 -0.74711772323E+03  0.76160189186E+03  0.00000000000E+00 0. -1.
          1    1    1    2  502    0  0.67218743314E+02 -0.80040155586E+02  0.10671116803E+04  0.10722183193E+04  0.00000000000E+00 0. -1.
         22    1    3    3    0    0 -0.63142050635E+02 -0.16862732301E+02 -0.29073402233E+03  0.29798916430E+03  0.00000000000E+00 0. -1.
         22    1    3    3    0    0 -0.45473003636E+02 -0.45008685821E+02 -0.35777383577E+02  0.73304822724E+02  0.00000000000E+00 0. -1.
</event>
<event>
 7    1  0.5593520E-006  0.4632416E+02  0.7818608E-02  0.1562637E+00
          2   -1    0    0  502    0  0.00000000000E+00  0.00000000000E+00  0.70935180136E+03  0.70935180136E+03  0.00000000000E+00 0. -1.
          1   -1    0    0  501    0 -0.00000000000E+00 -0.00000000000E+00 -0.22284638832E+03  0.22284638832E+03  0.00000000000E+00 0. -1.
         25    2    1    2    0    0  0.30492584842E+02 -0.51179759462E+02 -0.47787878103E+02  0.14648404901E+03  0.12499891924E+03 0.  0.
          2    1    1    2  501    0 -0.36163353739E+02  0.27673712623E+02 -0.12135642508E+03  0.12961868859E+03  0.00000000000E+00 0. -1.
          1    1    1    2  502    0  0.56707688970E+01  0.23506046838E+02  0.65564971622E+03  0.65609545207E+03  0.00000000000E+00 0. -1.
         22    1    3    3    0    0 -0.31358012363E+02 -0.51931522831E+02 -0.57837796861E+02  0.83817771079E+02  0.00000000000E+00 0.  1.
         22    1    3    3    0    0  0.61850597205E+02  0.75176336903E+00  0.10049918758E+02  0.62666277932E+02  0.00000000000E+00 0.  1.
</event>
<event>
 7    1  0.5593520E-006  0.1177927E+03  0.7818608E-02  0.1363621E+00
          2   -1    0    0  502    0  0.00000000000E+00  0.00000000000E+00  0.10124655341E+04  0.10124655341E+04  0.00000000000E+00 0. -1.
          1   -1    0    0  501    0 -0.00000000000E+00 -0.00000000000E+00 -0.32043455099E+03  0.32043455099E+03  0.00000000000E+00 0. -1.
         25    2    1    2    0    0  0.84500236190E+02 -0.24111079750E+02 -0.39961975029E+02  0.15793584496E+03  0.12500055037E+03 0.  0.
          2    1    1    2  501    0 -0.11870371973E+03  0.45586700591E+02 -0.20276331037E+03  0.23933591536E+03  0.00000000000E+00 0. -1.
          1    1    1    2  502    0  0.34203483541E+02 -0.21475620841E+02  0.93475626856E+03  0.93562832481E+03  0.00000000000E+00 0. -1.
         22    1    3    3    0    0  0.81833150878E+02 -0.56155992285E+02  0.86791750835E+01  0.99626744062E+02  0.00000000000E+00 0. -1.
         22    1    3    3    0    0  0.26670853115E+01  0.32044912535E+02 -0.48641150112E+02  0.58309100899E+02  0.00000000000E+00 0. -1.
</event>
<event>
 7    1  0.5593520E-006  0.1215905E+03  0.7818608E-02  0.1327691E+00
          2   -1    0    0  502    0  0.00000000000E+00  0.00000000000E+00  0.69772931299E+03  0.69772931299E+03  0.00000000000E+00 0. -1.
          1   -1    0    0  501    0 -0.00000000000E+00 -0.00000000000E+00 -0.56631292506E+03  0.56631292506E+03  0.00000000000E+00 0. -1.
         25    2    1    2    0    0 -0.10035561076E+03  0.42986070187E+02  0.23252428372E+03  0.28567798174E+03  0.12500126357E+03 0.  0.
          2    1    1    2  501    0  0.12207796045E+03  0.56550245032E+01 -0.53115377462E+03  0.54503150370E+03  0.00000000000E+00 0. -1.
          1    1    1    2  502    0 -0.21722349689E+02 -0.48641094690E+02  0.43004587884E+03  0.43333275260E+03  0.00000000000E+00 0. -1.
         22    1    3    3    0    0 -0.77886973460E+02  0.61093578350E+02  0.71556204585E+02  0.12214375287E+03  0.00000000000E+00 0. -1.
         22    1    3    3    0    0 -0.22468637305E+02 -0.18107508163E+02  0.16096807913E+03  0.16353422887E+03  0.00000000000E+00 0. -1.
</event>
<event>
 7    1  0.5593520E-006  0.4682716E+02  0.7818608E-02  0.1490865E+00
          2   -1    0    0  502    0  0.00000000000E+00  0.00000000000E+00  0.23310578521E+04  0.23310578521E+04  0.00000000000E+00 0. -1.
          1   -1    0    0  501    0 -0.00000000000E+00 -0.00000000000E+00 -0.17286141087E+04  0.17286141087E+04  0.00000000000E+00 0. -1.
         25    2    1    2    0    0 -0.59170920428E+01 -0.19102617159E+02  0.19072763320E+03  0.22891464231E+03  0.12499984574E+03 0.  0.
          2    1    1    2  501    0 -0.38409705831E+02  0.25835956945E+01 -0.17090400882E+04  0.17094736042E+04  0.00000000000E+00 0. -1.
          1    1    1    2  502    0  0.44326797873E+02  0.16519021464E+02  0.21207561984E+04  0.21212837142E+04  0.00000000000E+00 0. -1.
         22    1    3    3    0    0 -0.60393077399E+02 -0.72215454165E-02  0.56083006203E+02  0.82417397646E+02  0.00000000000E+00 0.  1.
         22    1    3    3    0    0  0.54475985356E+02 -0.19095395613E+02  0.13464462700E+03  0.14649724466E+03  0.00000000000E+00 0.  1.
</event>
<event>
 7    1  0.5593520E-006  0.1128231E+03  0.7818608E-02  0.1445984E+00
          2   -1    0    0  502    0  0.00000000000E+00  0.00000000000E+00  0.82438231797E+03  0.82438231797E+03  0.00000000000E+00 0. -1.
          1   -1    0    0  501    0 -0.00000000000E+00 -0.00000000000E+00 -0.25896916816E+03  0.25896916816E+03  0.00000000000E+00 0. -1.
         25    2    1    2    0    0  0.12292096389E+03 -0.21593835113E+02  0.46144656251E+03  0.49409758951E+03  0.12499456322E+03 0.  0.
          2    1    1    2  501    0 -0.16114929750E+02  0.15055133760E+02 -0.23385373816E+03  0.23489129159E+03  0.00000000000E+00 0. -1.
          1    1    1    2  502    0 -0.10680603414E+03  0.65387013521E+01  0.33782032547E+03  0.35436260503E+03  0.00000000000E+00 0. -1.
         22    1    3    3    0    0  0.11802566591E+03 -0.25951538788E+02  0.20792911328E+03  0.24049543931E+03  0.00000000000E+00 0. -1.
         22    1    3    3    0    0  0.48952979735E+01  0.43577036752E+01  0.25351744923E+03  0.25360215020E+03  0.00000000000E+00 0. -1.
</event>
<event>
 7    1  0.5593520E-006  0.7066199E+02  0.7818608E-02  0.1389381E+00
          2   -1    0    0  502    0  0.00000000000E+00  0.00000000000E+00  0.15241825553E+03  0.15241825553E+03  0.00000000000E+00 0. -1.
          1   -1    0    0  501    0 -0.00000000000E+00 -0.00000000000E+00 -0.94334960061E+03  0.94334960061E+03  0.00000000000E+00 0. -1.
         25    2    1    2    0    0  0.94568620016E+02 -0.79078268727E+01 -0.63814775039E+03  0.65716289644E+03  0.12499905404E+03 0.  0.
          2    1    1    2  501    0 -0.57134552901E+02 -0.31711277393E+02 -0.28668333164E+03  0.29403621357E+03  0.00000000000E+00 0. -1.
          1    1    1    2  502    0 -0.37434067115E+02  0.39619104266E+02  0.13389973695E+03  0.14456874614E+03  0.00000000000E+00 0. -1.
         22    1    3    3    0    0  0.80397051606E+02  0.43251749641E+02 -0.26559867240E+03  0.28085059112E+03  0.00000000000E+00 0. -1.
         22    1    3    3    0    0  0.14171568409E+02 -0.51159576514E+02 -0.37254907799E+03  0.37631230532E+03  0.00000000000E+00 0. -1.
</event>
<event>
 7    1  0.5593520E-006  0.7664354E+02  0.7818608E-02  0.1438428E+00
          2   -1    0    0  502    0  0.00000000000E+00  0.00000000000E+00  0.15240779632E+04  0.15240779632E+04  0.00000000000E+00 0. -1.
          1   -1    0    0  501    0 -0.00000000000E+00 -0.00000000000E+00 -0.73099384271E+02  0.73099384271E+02  0.00000000000E+00 0. -1.
         25    2    1    2    0    0  0.50152560752E+01  0.17075981517E+02  0.11775566096E+02  0.12680570092E+03  0.12499711953E+03 0.  0.
          2    1    1    2  501    0  0.70006465025E+02 -0.32759539556E+02  0.88518444244E+02  0.11751428657E+03  0.00000000000E+00 0. -1.
          1    1    1    2  502    0 -0.75021721100E+02  0.15683558039E+02  0.13506845686E+04  0.13528573600E+04  0.00000000000E+00 0. -1.
         22    1    3    3    0    0 -0.38919874737E+02 -0.30386465237E+02  0.32238709504E+02  0.58969723669E+02  0.00000000000E+00 0.  1.
         22    1    3    3    0    0  0.43935130812E+02  0.47462446754E+02 -0.20463143408E+02  0.67835977250E+02  0.00000000000E+00 0.  1.
</event>
<event>
 7    1  0.5593520E-006  0.4203559E+02  0.7818608E-02  0.1516673E+00
          2   -1    0    0  502    0  0.00000000000E+00  0.00000000000E+00  0.15203633251E+04  0.15203633251E+04  0.00000000000E+00 0. -1.
          1   -1    0    0  501    0 -0.00000000000E+00 -0.00000000000E+00 -0.22569296073E+02  0.22569296073E+02  0.00000000000E+00 0. -1.
         25    2    1    2    0    0  0.18940215182E+01  0.42732447201E+02  0.85020691254E+03  0.86041092373E+03  0.12500205673E+03 0.  0.
          2    1    1    2  501    0  0.31236278083E+02 -0.28780219575E+02  0.96287872012E+01  0.43551344988E+02  0.00000000000E+00 0. -1.
          1    1    1    2  502    0 -0.33130299601E+02 -0.13952227626E+02  0.63795832933E+03  0.63897035249E+03  0.00000000000E+00 0. -1.
         22    1    3    3    0    0  0.88239927043E+01  0.50422558759E+02  0.84835100749E+03  0.84989395173E+03  0.00000000000E+00 0. -1.
         22    1    3    3    0    0 -0.69299711861E+01 -0.76901115576E+01  0.18559050418E+01  0.10516971994E+02  0.00000000000E+00 0. -1.
</event>
<event>
 7    1  0.5593520E-006  0.6363388E+02  0.7818608E-02  0.1387686E+00
          2   -1    0    0  502    0  0.00000000000E+00  0.00000000000E+00  0.66593535633E+03  0.66593535633E+03  0.00000000000E+00 0. -1.
          1   -1    0    0  501    0 -0.00000000000E+00 -0.00000000000E+00 -0.37274677859E+03  0.37274677859E+03  0.00000000000E+00 0. -1.
         25    2    1    2    0    0  0.23775077449E+02  0.84209467562E+02 -0.19439572480E+03  0.24712222594E+03  0.12499283179E+03 0.  0.
          2    1    1    2  501    0  0.30066789452E+02 -0.54782515720E+02 -0.14401418902E+03  0.15698796927E+03  0.00000000000E+00 0. -1.
          1    1    1    2  502    0 -0.53841866900E+02 -0.29426951841E+02  0.63159849156E+03  0.63457193971E+03  0.00000000000E+00 0. -1.
         22    1    3    3    0    0  0.24267830998E+02  0.87174384281E+02 -0.21134833589E+03  0.22990524131E+03  0.00000000000E+00 0. -1.
         22    1    3    3    0    0 -0.49275354957E+00 -0.29649167192E+01  0.16952611089E+02  0.17216984636E+02  0.00000000000E+00 0. -1.
</event>
<event>
 7    1  0.5593520E-006  0.2310507E+03  0.7818608E-02  0.1349236E+00
          2   -1    0    0  502    0  0.00000000000E+00  0.00000000000E+00  0.25251307336E+03  0.25251307336E+03  0.00000000000E+00 0. -1.
          1   -1    0    0  501    0 -0.00000000000E+00 -0.00000000000E+00 -0.15204467517E+04  0.15204467517E+04  0.00000000000E+00 0. -1.
         25    2    1    2    0    0  0.42351322180E+02 -0.24502385198E+03 -0.99011983419E+03  0.10284907313E+04  0.12500230325E+03 0.  0.
          2    1    1    2  501    0  0.10019471425E+02  0.20980844143E+02 -0.45405097640E+03  0.45464587846E+03  0.00000000000E+00 0. -1.
          1    1    1    2  502    0 -0.52370793604E+02  0.22404300783E+03  0.17623713221E+03  0.28982321534E+03  0.00000000000E+00 0. -1.
         22    1    3    3    0    0 -0.67654904631E+01 -0.21767950773E+02 -0.15854117613E+02  0.27766321098E+02  0.00000000000E+00 0.  1.
         22    1    3    3    0    0  0.49116812643E+02 -0.22325590120E+03 -0.97426571657E+03  0.10007244102E+04  0.00000000000E+00 0.  1.
</event>
<event>
 7    1  0.5593520E-006  0.4291644E+02  0.7818608E-02  0.1558367E+00
          2   -1    0    0  502    0  0.00000000000E+00  0.00000000000E+00  0.17094013236E+04  0.17094013236E+04  0.00000000000E+00 0. -1.
          1   -1    0    0  501    0 -0.00000000000E+00 -0.00000000000E+00 -0.80413591136E+03  0.80413591136E+03  0.00000000000E+00 0. -1.
         25    2    1    2    0    0 -0.18075423020E+02  0.43549084892E+01  0.21715849700E+03  0.25125444822E+03  0.12500119515E+03 0.  0.
          2    1    1    2  501    0  0.42428000145E+02  0.68725607080E+01 -0.78637915756E+03  0.78755288504E+03  0.00000000000E+00 0. -1.
          1    1    1    2  502    0 -0.24352577125E+02 -0.11227469197E+02  0.14744860728E+04  0.14747299017E+04  0.00000000000E+00 0. -1.
         22    1    3    3    0    0 -0.37670508322E+02  0.29626980293E+02  0.20690321211E+02  0.52200714079E+02  0.00000000000E+00 0.  1.
         22    1    3    3    0    0  0.19595085302E+02 -0.25272071804E+02  0.19646817578E+03  0.19905373415E+03  0.00000000000E+00 0.  1.
</event>
<event>
 7    1  0.5593520E-006  0.7193508E+02  0.7818608E-02  0.1470306E+00
          2   -1    0    0  502    0  0.00000000000E+00  0.00000000000E+00  0.12610863815E+04  0.12610863815E+04  0.00000000000E+00 0. -1.
          1   -1    0    0  501    0 -0.00000000000E+00 -0.00000000000E+00 -0.73601761893E+03  0.73601761893E+03  0.00000000000E+00 0. -1.
         25    2    1    2    0    0 -0.67268722342E+02 -0.24601228690E+02  0.96744341909E+01  0.14439056576E+03  0.12499895738E+03 0.  0.
          2    1    1    2  501    0  0.71975936282E+02 -0.39869796224E+01 -0.66653865255E+03  0.67042539239E+03  0.00000000000E+00 0. -1.
          1    1    1    2  502    0 -0.47072139396E+01  0.28588208313E+02  0.11819329809E+04  0.11822880423E+04  0.00000000000E+00 0. -1.
         22    1    3    3    0    0  0.10263446312E+02 -0.49871216075E+02 -0.23845727250E+02  0.56223618090E+02  0.00000000000E+00 0. -1.
         22    1    3    3    0    0 -0.77532168654E+02  0.25269987385E+02  0.33520161441E+02  0.88166947671E+02  0.00000000000E+00 0. -1.
</event>
<event>
 7    1  0.5593520E-006  0.1677562E+03  0.7818608E-02  0.1311191E+00
          2   -1    0    0  502    0  0.00000000000E+00  0.00000000000E+00  0.15069302685E+04  0.15069302685E+04  0.00000000000E+00 0. -1.
          1   -1    0    0  501    0 -0.00000000000E+00 -0.00000000000E+00 -0.14655955465E+04  0.14655955465E+04  0.00000000000E+00 0. -1.
         25    2    1    2    0    0 -0.40518678347E+01 -0.19324831484E+03 -0.37683205111E+02  0.23325236361E+03  0.12500124945E+03 0.  0.
          2    1    1    2  501    0  0.36584754085E+02  0.16252151881E+03 -0.13245537886E+04  0.13349885494E+04  0.00000000000E+00 0. -1.
          1    1    1    2  502    0 -0.32532886250E+02  0.30726796024E+02  0.14035717157E+04  0.14042849019E+04  0.00000000000E+00 0. -1.
         22    1    3    3    0    0  0.17892469587E+02 -0.19028024267E+03 -0.61462088564E+02  0.20075930750E+03  0.00000000000E+00 0.  1.
         22    1    3    3    0    0 -0.21944337421E+02 -0.29680721706E+01  0.23778883453E+02  0.32493056112E+02  0.00000000000E+00 0.  1.
</event>
<event>
 7    1  0.5593520E-006  0.6079305E+02  0.7818608E-02  0.1440503E+00
          2   -1    0    0  502    0  0.00000000000E+00  0.00000000000E+00  0.86993558536E+03  0.86993558536E+03  0.00000000000E+00 0. -1.
          1   -1    0    0  501    0 -0.00000000000E+00 -0.00000000000E+00 -0.52809456056E+03  0.52809456056E+03  0.00000000000E+00 0. -1.
         25    2    1    2    0    0 -0.25056775919E+02 -0.21400295794E+02  0.43603831838E+03  0.45479688043E+03  0.12499989071E+03 0.  0.
          2    1    1    2  501    0 -0.42567810654E+02  0.23150170428E+01 -0.51492077176E+03  0.51668247406E+03  0.00000000000E+00 0. -1.
          1    1    1    2  502    0  0.67624586573E+02  0.19085278751E+02  0.42072347819E+03  0.42655079143E+03  0.00000000000E+00 0. -1.
         22    1    3    3    0    0 -0.35344549301E+02 -0.13349382431E+02  0.43962852196E+03  0.44124900056E+03  0.00000000000E+00 0.  1.
         22    1    3    3    0    0  0.10287773382E+02 -0.80509133626E+01 -0.35902035834E+01  0.13547879867E+02  0.00000000000E+00 0.  1.
</event>
<event>
 7    1  0.5593520E-006  0.1099233E+03  0.7818608E-02  0.1340145E+00
          2   -1    0    0  502    0  0.00000000000E+00  0.00000000000E+00  0.14619499967E+04  0.14619499967E+04  0.00000000000E+00 0. -1.
          1   -1    0    0  501    0 -0.00000000000E+00 -0.00000000000E+00 -0.41797425599E+03  0.41797425599E+03  0.00000000000E+00 0. -1.
         25    2    1    2    0    0 -0.12024910956E+03  0.57911879842E+02 -0.14522643468E+03  0.23351424107E+03  0.12499819710E+03 0.  0.
          2    1    1    2  501    0  0.10650244147E+02 -0.51761142871E+02 -0.22339183780E+03  0.22955730616E+03  0.00000000000E+00 0. -1.
          1    1    1    2  502    0  0.10959886541E+03 -0.61507369706E+01  0.14125940132E+04  0.14168527054E+04  0.00000000000E+00 0. -1.
         22    1    3    3    0    0 -0.28518522748E+02 -0.11855959862E+02  0.16429554837E+02  0.34982855746E+02  0.00000000000E+00 0.  1.
         22    1    3    3    0    0 -0.91730586809E+02  0.69767839704E+02 -0.16165598952E+03  0.19853138533E+03  0.00000000000E+00 0.  1.
</event>
<event>
 7    1  0.5593520E-006  0.7674170E+02  0.7818608E-02  0.1441348E+00
          2   -1    0    0  502    0  0.00000000000E+00  0.00000000000E+00  0.27505731216E+03  0.27505731216E+03  0.00000000000E+00 0. -1.
          1   -1    0    0  501    0 -0.00000000000E+00 -0.00000000000E+00 -0.22386925755E+03  0.22386925755E+03  0.00000000000E+00 0. -1.
         25    2    1    2    0    0  0.29874685650E+02 -0.49022179269E+02 -0.35445606336E+02  0.14203609803E+03  0.12498876442E+03 0.  0.
          2    1    1    2  501    0 -0.17551223399E+02 -0.28603270391E+02 -0.12589652111E+03  0.13029246543E+03  0.00000000000E+00 0. -1.
          1    1    1    2  502    0 -0.12323462250E+02  0.77625449660E+02  0.21253018205E+03  0.22659800625E+03  0.00000000000E+00 0. -1.
         22    1    3    3    0    0  0.82416203024E+01 -0.34433121545E+02  0.45118513416E+02  0.57351934731E+02  0.00000000000E+00 0. -1.
         22    1    3    3    0    0  0.21633065347E+02 -0.14589057724E+02 -0.80564119753E+02  0.84684163296E+02  0.00000000000E+00 0. -1.
</event>
<event>
 7    1  0.5593520E-006  0.7004933E+02  0.7818608E-02  0.1487637E+00
          2   -1    0    0  502    0  0.00000000000E+00  0.00000000000E+00  0.21006842747E+04  0.21006842747E+04  0.00000000000E+00 0. -1.
          1   -1    0    0  501    0 -0.00000000000E+00 -0.00000000000E+00 -0.82361658014E+03  0.82361658014E+03  0.00000000000E+00 0. -1.
         25    2    1    2    0    0 -0.95037675152E+02  0.23167252247E+01  0.10151238410E+03  0.18699567018E+03  0.12500035850E+03 0.  0.
          2    1    1    2  501    0  0.25770057257E+02  0.53537684747E+01 -0.78003227583E+03  0.78047620721E+03  0.00000000000E+00 0. -1.
          1    1    1    2  502    0  0.69267617895E+02 -0.76704936994E+01  0.19555875863E+04  0.19568289774E+04  0.00000000000E+00 0. -1.
         22    1    3    3    0    0  0.57945578107E+01  0.10855252585E+02  0.83266476998E+02  0.84170776405E+02  0.00000000000E+00 0. -1.
         22    1    3    3    0    0 -0.10083223296E+03 -0.85385273599E+01  0.18245907105E+02  0.10282489377E+03  0.00000000000E+00 0. -1.
</event>
<event>
 7    1  0.5593520E-006  0.7072115E+02  0.7818608E-02  0.1442678E+00
          2   -1    0    0  502    0  0.00000000000E+00  0.00000000000E+00  0.70117557254E+02  0.70117557254E+02  0.00000000000E+00 0. -1.
          1   -1    0    0  501    0 -0.00000000000E+00 -0.00000000000E+00 -0.15096587705E+04  0.15096587705E+04  0.00000000000E+00 0. -1.
         25    2    1    2    0    0  0.60493580181E+02  0.46792565041E+02 -0.98796033438E+03  0.99876914369E+03  0.12500065076E+03 0.  0.
          2    1    1    2  501    0 -0.31396051839E+02  0.17730520577E+02 -0.49608780300E+03  0.49739641305E+03  0.00000000000E+00 0. -1.
          1    1    1    2  502    0 -0.29097528342E+02 -0.64523085618E+02  0.44506924136E+02  0.83610771013E+02  0.00000000000E+00 0. -1.
         22    1    3    3    0    0  0.45653252506E+02  0.22524453381E+02 -0.94984955047E+03  0.95121277273E+03  0.00000000000E+00 0.  1.
         22    1    3    3    0    0  0.14840327675E+02  0.24268111660E+02 -0.38110783905E+02  0.47556370960E+02  0.00000000000E+00 0.  1.
</event>
<event>
 7    1  0.5593520E-006  0.5910642E+02  0.7818608E-02  0.1406427E+00
          2   -1    0    0  502    0  0.00000000000E+00  0.00000000000E+00  0.26994153079E+03  0.26994153079E+03  0.00000000000E+00 0. -1.
          1   -1    0    0  501    0 -0.00000000000E+00 -0.00000000000E+00 -0.81591519730E+03  0.81591519730E+03  0.00000000000E+00 0. -1.
         25    2    1    2    0    0 -0.49190797078E+02  0.83546296762E+02  0.14099738300E+02  0.15882222982E+03  0.12500391932E+03 0.  0.
          2    1    1    2  501    0  0.52371478213E+02 -0.26723446885E+02 -0.73794315752E+03  0.74028171535E+03  0.00000000000E+00 0. -1.
          1    1    1    2  502    0 -0.31806811354E+01 -0.56822849877E+02  0.17786975270E+03  0.18675278292E+03  0.00000000000E+00 0. -1.
         22    1    3    3    0    0 -0.80022321081E+02  0.88682440383E+02  0.30838462005E+02  0.12336595090E+03  0.00000000000E+00 0.  1.
         22    1    3    3    0    0  0.30831524003E+02 -0.51361436211E+01 -0.16738723705E+02  0.35456278921E+02  0.00000000000E+00 0.  1.
</event>
<event>
 7    1  0.5593520E-006  0.3703754E+02  0.7818608E-02  0.1548831E+00
          2   -1    0    0  502    0  0.00000000000E+00  0.00000000000E+00  0.20474419578E+02  0.20474419578E+02  0.00000000000E+00 0. -1.
          1   -1    0    0  501    0 -0.00000000000E+00 -0.00000000000E+00 -0.30456858612E+04  0.30456858612E+04  0.00000000000E+00 0. -1.
         25    2    1    2    0    0 -0.18883682659E+02 -0.27126837835E+02 -0.15286952644E+04  0.15341527278E+04  0.12499168787E+03 0.  0.
          2    1    1    2  501    0  0.38571572142E+02  0.61132242151E+00 -0.14984301264E+04  0.14989266105E+04  0.00000000000E+00 0. -1.
          1    1    1    2  502    0 -0.19687889483E+02  0.26515515413E+02  0.19139492474E+01  0.33080942424E+02  0.00000000000E+00 0. -1.
         22    1    3    3    0    0  0.17921300192E+02  0.41601920484E+02 -0.35626814936E+03  0.35913630704E+03  0.00000000000E+00 0. -1.
         22    1    3    3    0    0 -0.36804982851E+02 -0.68728758319E+02 -0.11724271151E+04  0.11750164208E+04  0.00000000000E+00 0. -1.
</event>
<event>
 7    1  0.5593520E-006  0.7832779E+02  0.7818608E-02  0.1362744E+00
          2   -1    0    0  502    0  0.00000000000E+00  0.00000000000E+00  0.27417347947E+04  0.27417347947E+04  0.00000000000E+00 0. -1.
          1   -1    0    0  501    0 -0.00000000000E+00 -0.00000000000E+00 -0.55046179532E+03  0.55046179532E+03  0.00000000000E+00 0. -1.
         25    2    1    2    0    0 -0.32645236900E+02 -0.89307412386E+01  0.23473851754E+03  0.26809638424E+03  0.12501211941E+03 0.  0.
          2    1    1    2  501    0 -0.76125223470E+01 -0.60706998832E+02 -0.53137755093E+03  0.53488820499E+03  0.00000000000E+00 0. -1.
          1    1    1    2  502    0  0.40257759247E+02  0.69637740070E+02  0.24879120328E+04  0.24892120008E+04  0.00000000000E+00 0. -1.
         22    1    3    3    0    0  0.74841915301E+00  0.21089529733E+02  0.21974433650E+03  0.22075529851E+03  0.00000000000E+00 0.  1.
         22    1    3    3    0    0 -0.33393656053E+02 -0.30020270971E+02  0.14994181036E+02  0.47341085737E+02  0.00000000000E+00 0.  1.
</event>
<event>
 7    1  0.5593520E-006  0.1006430E+03  0.7818608E-02  0.1404650E+00
          2   -1    0    0  502    0  0.00000000000E+00  0.00000000000E+00  0.71462653590E+02  0.71462653590E+02  0.00000000000E+00 0. -1.
          1   -1    0    0  501    0 -0.00000000000E+00 -0.00000000000E+00 -0.13928511605E+04  0.13928511605E+04  0.00000000000E+00 0. -1.
         25    2    1    2    0    0 -0.52566426890E+02  0.10328746099E+03 -0.16182570470E+03  0.23504663098E+03  0.12501132429E+03 0.  0.
          2    1    1    2  501    0  0.68151418192E+02 -0.73189702775E+02 -0.11835351542E+04  0.11877528403E+04  0.00000000000E+00 0. -1.
          1    1    1    2  502    0 -0.15584991302E+02 -0.30097758215E+02  0.23972351958E+02  0.41514342845E+02  0.00000000000E+00 0. -1.
         22    1    3    3    0    0 -0.54415875864E+02  0.12019283696E+03 -0.17079493946E+03  0.21582010320E+03  0.00000000000E+00 0. -1.
         22    1    3    3    0    0  0.18494489744E+01 -0.16905375971E+02  0.89692347606E+01  0.19226527779E+02  0.00000000000E+00 0. -1.
</event>
<event>
 7    1  0.5593520E-006  0.2376012E+03  0.7818608E-02  0.1185905E+00
          2   -1    0    0  502    0  0.00000000000E+00  0.00000000000E+00  0.15653163857E+04  0.15653163857E+04  0.00000000000E+00 0. -1.
          1   -1    0    0  501    0 -0.00000000000E+00 -0.00000000000E+00 -0.17038916296E+04  0.17038916296E+04  0.00000000000E+00 0. -1.
         25    2    1    2    0    0  0.22002122381E+03 -0.20786487100E+03  0.60253784433E+03  0.68577864446E+03  0.12499340716E+03 0.  0.
          2    1    1    2  501    0 -0.10891750341E+03  0.21045077789E+03 -0.16504258180E+04  0.16673505729E+04  0.00000000000E+00 0. -1.
          1    1    1    2  502    0 -0.11110372040E+03 -0.25859068948E+01  0.90931272973E+03  0.91607879795E+03  0.00000000000E+00 0. -1.
         22    1    3    3    0    0  0.13891508660E+03 -0.49572504067E+02  0.31229300442E+03  0.34537190832E+03  0.00000000000E+00 0.  1.
         22    1    3    3    0    0  0.81106137215E+02 -0.15829236693E+03  0.29024483990E+03  0.34040673614E+03  0.00000000000E+00 0.  1.
</event>
<event>
 7    1  0.5593520E-006  0.1331852E+03  0.7818608E-02  0.1301214E+00
          2   -1    0    0  502    0  0.00000000000E+00  0.00000000000E+00  0.24392808296E+03  0.24392808296E+03  0.00000000000E+00 0. -1.
          1   -1    0    0  501    0 -0.00000000000E+00 -0.00000000000E+00 -0.15492564554E+04  0.15492564554E+04  0.00000000000E+00 0. -1.
         25    2    1    2    0    0  0.46588542592E+02  0.95054468941E+02 -0.14605180787E+03  0.21945156000E+03  0.12498804838E+03 0.  0.
          2    1    1    2  501    0 -0.44573879745E+02  0.42719217130E+02 -0.13428125465E+04  0.13442311175E+04  0.00000000000E+00 0. -1.
          1    1    1    2  502    0 -0.20146628473E+01 -0.13777368607E+03  0.18353598196E+03  0.22950186081E+03  0.00000000000E+00 0. -1.
         22    1    3    3    0    0  0.57941012076E+02  0.80573207213E+02 -0.32515754650E+02  0.10443407922E+03  0.00000000000E+00 0. -1.
         22    1    3    3    0    0 -0.11352469484E+02  0.14481261727E+02 -0.11353605322E+03  0.11501748078E+03  0.00000000000E+00 0. -1.
</event>
<event>
 7    1  0.5593520E-006  0.8706601E+02  0.7818608E-02  0.1333054E+00
          2   -1    0    0  502    0  0.00000000000E+00  0.00000000000E+00  0.16149296123E+03  0.16149296123E+03  0.00000000000E+00 0. -1.
          1   -1    0    0  501    0 -0.00000000000E+00 -0.00000000000E+00 -0.18731244305E+04  0.18731244305E+04  0.00000000000E+00 0. -1.
         25    2    1    2    0    0 -0.29761277078E+01  0.94245780514E+02 -0.50398004501E+03  0.52774341041E+03  0.12500438787E+03 0.  0.
          2    1    1    2  501    0 -0.61656259657E+02 -0.35142218867E+02 -0.13434278580E+04  0.13453010367E+04  0.00000000000E+00 0. -1.
          1    1    1    2  502    0  0.64632387364E+02 -0.59103561647E+02  0.13577643366E+03  0.16157294462E+03  0.00000000000E+00 0. -1.
         22    1    3    3    0    0 -0.23784978198E+02 -0.23058081158E+02 -0.65967547482E+02  0.73818138796E+02  0.00000000000E+00 0. -1.
         22    1    3    3    0    0  0.20808850490E+02  0.11730386167E+03 -0.43801249753E+03  0.45392527162E+03  0.00000000000E+00 0. -1.
</event>
<event>
 7    1  0.5593520E-006  0.9587537E+02  0.7818608E-02  0.1361459E+00
          2   -1    0    0  502    0  0.00000000000E+00  0.00000000000E+00  0.22399093280E+03  0.22399093280E+03  0.00000000000E+00 0. -1.
          1   -1    0    0  501    0 -0.00000000000E+00 -0.00000000000E+00 -0.90333962104E+03  0.90333962104E+03  0.00000000000E+00 0. -1.
         25    2    1    2    0    0 -0.48165221459E+02 -0.13472734908E+03 -0.34142431123E+03  0.39072799833E+03  0.12500584479E+03 0.  0.
          2    1    1    2  501    0  0.27074077291E+02  0.42659112843E+02 -0.52479293242E+03  0.52721952494E+03  0.00000000000E+00 0. -1.
          1    1    1    2  502    0  0.21091144167E+02  0.92068236234E+02  0.18686855541E+03  0.20938303056E+03  0.00000000000E+00 0. -1.
         22    1    3    3    0    0 -0.62630506653E+02 -0.13201124501E+03 -0.19553055511E+03  0.24409372617E+03  0.00000000000E+00 0. -1.
         22    1    3    3    0    0  0.14465285195E+02 -0.27161040663E+01 -0.14589375612E+03  0.14663427216E+03  0.00000000000E+00 0. -1.
</event>
<event>
 7    1  0.5593520E-006  0.8185793E+02  0.7818608E-02  0.1328970E+00
          2   -1    0    0  502    0  0.00000000000E+00  0.00000000000E+00  0.61688738229E+03  0.61688738229E+03  0.00000000000E+00 0. -1.
          1   -1    0    0  501    0 -0.00000000000E+00 -0.00000000000E+00 -0.15677601483E+03  0.15677601483E+03  0.00000000000E+00 0. -1.
         25    2    1    2    0    0  0.19016487595E+02 -0.20165144157E+02  0.79466661097E+02  0.15069718360E+03  0.12500572418E+03 0.  0.
          2    1    1    2  501    0 -0.91416519169E+02 -0.94967563485E+01 -0.10010135716E+03  0.13589499646E+03  0.00000000000E+00 0. -1.
          1    1    1    2  502    0  0.72400031574E+02  0.29661900506E+02  0.48074606351E+03  0.48707121707E+03  0.00000000000E+00 0. -1.
         22    1    3    3    0    0  0.36588636827E+02 -0.13182955644E+02  0.10894339420E+03  0.11567705825E+03  0.00000000000E+00 0.  1.
         22    1    3    3    0    0 -0.17572149233E+02 -0.69821885134E+01 -0.29476733103E+02  0.35020125350E+02  0.00000000000E+00 0.  1.
</event>
<event>
 7    1  0.5593520E-006  0.8567384E+02  0.7818608E-02  0.1421685E+00
          2   -1    0    0  502    0  0.00000000000E+00  0.00000000000E+00  0.52593863295E+03  0.52593863295E+03  0.00000000000E+00 0. -1.
          1   -1    0    0  501    0 -0.00000000000E+00 -0.00000000000E+00 -0.13793907548E+04  0.13793907548E+04  0.00000000000E+00 0. -1.
         25    2    1    2    0    0  0.36625565608E+02  0.10392433010E+03  0.30597630536E+03  0.34840901103E+03  0.12500256429E+03 0.  0.
          2    1    1    2  501    0 -0.22383115762E+01 -0.34808848508E+02 -0.13504444075E+04  0.13508948011E+04  0.00000000000E+00 0. -1.
          1    1    1    2  502    0 -0.34387254032E+02 -0.69115481595E+02  0.19101598034E+03  0.20602557555E+03  0.00000000000E+00 0. -1.
         22    1    3    3    0    0  0.22152824653E+01  0.75656284708E+02  0.29212637640E+03  0.30177243194E+03  0.00000000000E+00 0.  1.
         22    1    3    3    0    0  0.34410283142E+02  0.28268045395E+02  0.13849928958E+02  0.46636579083E+02  0.00000000000E+00 0.  1.
</event>
<event>
 7    1  0.5593520E-006  0.5215438E+02  0.7818608E-02  0.1526776E+00
          2   -1    0    0  502    0  0.00000000000E+00  0.00000000000E+00  0.38252564192E+03  0.38252564192E+03  0.00000000000E+00 0. -1.
          1   -1    0    0  501    0 -0.00000000000E+00 -0.00000000000E+00 -0.20590465631E+03  0.20590465631E+03  0.00000000000E+00 0. -1.
         25    2    1    2    0    0  0.33734679128E+02 -0.48518893799E+02  0.24033617452E+03  0.27727051691E+03  0.12500140453E+03 0.  0.
          2    1    1    2  501    0 -0.26959419900E+02 -0.26090294065E+01 -0.18101086063E+03  0.18302608836E+03  0.00000000000E+00 0. -1.
          1    1    1    2  502    0 -0.67752592276E+01  0.51127923206E+02  0.11729567172E+03  0.12813369297E+03  0.00000000000E+00 0. -1.
         22    1    3    3    0    0 -0.17850992931E+02 -0.14364141941E+02  0.20448712984E+03  0.20576679225E+03  0.00000000000E+00 0. -1.
         22    1    3    3    0    0  0.51585672059E+02 -0.34154751858E+02  0.35849044681E+02  0.71503724663E+02  0.00000000000E+00 0. -1.
</event>
<event>
 7    1  0.5593520E-006  0.5900700E+02  0.7818608E-02  0.1403177E+00
          2   -1    0    0  502    0  0.00000000000E+00  0.00000000000E+00  0.58752552435E+03  0.58752552435E+03  0.00000000000E+00 0. -1.
          1   -1    0    0  501    0 -0.00000000000E+00 -0.00000000000E+00 -0.62865446745E+03  0.62865446745E+03  0.00000000000E+00 0. -1.
         25    2    1    2    0    0 -0.87968784518E+01 -0.24565313708E+02  0.31598010957E+03  0.34080700049E+03  0.12500056893E+03 0.  0.
          2    1    1    2  501    0  0.34252056323E+02 -0.47403358287E+02 -0.60918797717E+03  0.61198878524E+03  0.00000000000E+00 0. -1.
          1    1    1    2  502    0 -0.25455177871E+02  0.71968671995E+02  0.25207892450E+03  0.26338420607E+03  0.00000000000E+00 0. -1.
         22    1    3    3    0    0  0.29002410484E+02 -0.34157180570E+02  0.29114519597E+03  0.29457321320E+03  0.00000000000E+00 0. -1.
         22    1    3    3    0    0 -0.37799288936E+02  0.95918668616E+01  0.24834913599E+02  0.46233787292E+02  0.00000000000E+00 0. -1.
</event>
<event>
 7    1  0.5593520E-006  0.1480255E+03  0.7818608E-02  0.1238287E+00
          2   -1    0    0  502    0  0.00000000000E+00  0.00000000000E+00  0.45089491222E+04  0.45089491222E+04  0.00000000000E+00 0. -1.
          1   -1    0    0  501    0 -0.00000000000E+00 -0.00000000000E+00 -0.15716715399E+03  0.15716715399E+03  0.00000000000E+00 0. -1.
         25    2    1    2    0    0 -0.62703077088E+02  0.74809870983E+02  0.32227025452E+03  0.35917752802E+03  0.12498874755E+03 0.  0.
          2    1    1    2  501    0  0.64944381977E+02  0.78839359311E+02 -0.11829201678E+03  0.15628953439E+03  0.00000000000E+00 0. -1.
          1    1    1    2  502    0 -0.22413048892E+01 -0.15364923029E+03  0.41478037304E+04  0.41506492138E+04  0.00000000000E+00 0. -1.
         22    1    3    3    0    0 -0.19735126226E+02  0.53823511637E+01  0.24787933441E+03  0.24872195186E+03  0.00000000000E+00 0. -1.
         22    1    3    3    0    0 -0.42967950862E+02  0.69427519819E+02  0.74390920108E+02  0.11045557616E+03  0.00000000000E+00 0. -1.
</event>
<event>
 7    1  0.5593520E-006  0.1291303E+03  0.7818608E-02  0.1375009E+00
          2   -1    0    0  502    0  0.00000000000E+00  0.00000000000E+00  0.13786062438E+03  0.13786062438E+03  0.00000000000E+00 0. -1.
          1   -1    0    0  501    0 -0.00000000000E+00 -0.00000000000E+00 -0.35469585748E+03  0.35469585748E+03  0.00000000000E+00 0. -1.
         25    2    1    2    0    0 -0.48611417414E+02  0.11658809304E+03 -0.21080460662E+02  0.17895835548E+03  0.12500341528E+03 0.  0.
          2    1    1    2  501    0  0.17597544394E+02 -0.12931403576E+03 -0.23077403732E+03  0.26511968941E+03  0.00000000000E+00 0. -1.
          1    1    1    2  502    0  0.31013873020E+02  0.12725942711E+02  0.35019264889E+02  0.48478436969E+02  0.00000000000E+00 0. -1.
         22    1    3    3    0    0 -0.13037667810E+02 -0.11325147133E+02 -0.41201610496E+02  0.44674516752E+02  0.00000000000E+00 0.  1.
         22    1    3    3    0    0 -0.35573749604E+02  0.12791324018E+03  0.20121149834E+02  0.13428383873E+03  0.00000000000E+00 0.  1.
</event>
<event>
 7    1  0.5593520E-006  0.5303569E+02  0.7818608E-02  0.1445199E+00
          2   -1    0    0  502    0  0.00000000000E+00  0.00000000000E+00  0.11526761770E+03  0.11526761770E+03  0.00000000000E+00 0. -1.
          1   -1    0    0  501    0 -0.00000000000E+00 -0.00000000000E+00 -0.63344543444E+03  0.63344543444E+03  0.00000000000E+00 0. -1.
         25    2    1    2    0    0 -0.34707732566E+02 -0.62783628462E+02 -0.51498537893E+02  0.15304606323E+03  0.12499834944E+03 0.  0.
          2    1    1    2  501    0  0.49815287945E+02  0.18079553138E+02 -0.52101389129E+03  0.52370211769E+03  0.00000000000E+00 0. -1.
          1    1    1    2  502    0 -0.15107555379E+02  0.44704075324E+02  0.54334612447E+02  0.71964871221E+02  0.00000000000E+00 0. -1.
         22    1    3    3    0    0  0.16777737034E+02  0.62434613892E+01 -0.63613824868E+02  0.66084733369E+02  0.00000000000E+00 0.  1.
         22    1    3    3    0    0 -0.51485469600E+02 -0.69027089852E+02  0.12115286975E+02  0.86961329865E+02  0.00000000000E+00 0.  1.
</event>
<event>
 7    1  0.5593520E-006  0.1692577E+03  0.7818608E-02  0.1183349E+00
          2   -1    0    0  502    0  0.00000000000E+00  0.00000000000E+00  0.61970478902E+03  0.61970478902E+03  0.00000000000E+00 0. -1.
          1   -1    0    0  501    0 -0.00000000000E+00 -0.00000000000E+00 -0.42899454271E+03  0.42899454271E+03  0.00000000000E+00 0. -1.
         25    2    1    2    0    0 -0.44590505142E+02  0.86910208671E+02 -0.68692153992E+02  0.17287478562E+03  0.12500152784E+03 0.  0.
          2    1    1    2  501    0  0.19055036033E+03 -0.15370540770E+03 -0.24508725274E+03  0.34641384735E+03  0.00000000000E+00 0. -1.
          1    1    1    2  502    0 -0.14595985519E+03  0.66795199025E+02  0.50448965304E+03  0.52941069876E+03  0.00000000000E+00 0. -1.
         22    1    3    3    0    0  0.18403042556E+02 -0.23058454271E+02 -0.25465317379E+02  0.38972383529E+02  0.00000000000E+00 0. -1.
         22    1    3    3    0    0 -0.62993547698E+02  0.10996866294E+03 -0.43226836613E+02  0.13390240209E+03  0.00000000000E+00 0. -1.
</event>
<event>
 7    1  0.5593520E-006  0.4068343E+02  0.7818608E-02  0.1507345E+00
          2   -1    0    0  502    0  0.00000000000E+00  0.00000000000E+00  0.12378385169E+04  0.12378385169E+04  0.00000000000E+00 0. -1.
          1   -1    0    0  501    0 -0.00000000000E+00 -0.00000000000E+00 -0.47246923024E+03  0.47246923024E+03  0.00000000000E+00 0. -1.
         25    2    1    2    0    0 -0.27499140772E+02  0.74225195478E+02  0.32388877365E+03  0.35608256344E+03  0.12500108759E+03 0.  0.
          2    1    1    2  501    0  0.14956934291E+02 -0.36623868123E+02 -0.45507630049E+03  0.45679257532E+03  0.00000000000E+00 0. -1.
          1    1    1    2  502    0  0.12542206481E+02 -0.37601327355E+02  0.89655681352E+03  0.89743260841E+03  0.00000000000E+00 0. -1.
         22    1    3    3    0    0 -0.72365021769E+02  0.31238598632E+02  0.12556984185E+03  0.14825765277E+03  0.00000000000E+00 0. -1.
         22    1    3    3    0    0  0.44865880997E+02  0.42986596846E+02  0.19831893180E+03  0.20782491067E+03  0.00000000000E+00 0. -1.
</event>
<event>
 7    1  0.5593520E-006  0.1464501E+03  0.7818608E-02  0.1238190E+00
          2   -1    0    0  502    0  0.00000000000E+00  0.00000000000E+00  0.77382898210E+03  0.77382898210E+03  0.00000000000E+00 0. -1.
          1   -1    0    0  501    0 -0.00000000000E+00 -0.00000000000E+00 -0.15079111627E+04  0.15079111627E+04  0.00000000000E+00 0. -1.
         25    2    1    2    0    0 -0.28620440253E+02  0.24049766393E+03  0.72593742087E+02  0.28205347529E+03  0.12500422224E+03 0.  0.
          2    1    1    2  501    0  0.76123901020E+01 -0.10306463756E+03 -0.13931402611E+04  0.13969681654E+04  0.00000000000E+00 0. -1.
          1    1    1    2  502    0  0.21008050151E+02 -0.13743302637E+03  0.58646433845E+03  0.60271850409E+03  0.00000000000E+00 0. -1.
         22    1    3    3    0    0  0.36104073201E+02  0.10587238740E+03 -0.83241161157E+01  0.11216843328E+03  0.00000000000E+00 0.  1.
         22    1    3    3    0    0 -0.64724513454E+02  0.13462527653E+03  0.80917858203E+02  0.16988504201E+03  0.00000000000E+00 0.  1.
</event>
<event>
 7    1  0.5593520E-006  0.7117242E+02  0.7818608E-02  0.1471725E+00
          2   -1    0    0  502    0  0.00000000000E+00  0.00000000000E+00  0.11016419471E+03  0.11016419471E+03  0.00000000000E+00 0. -1.
          1   -1    0    0  501    0 -0.00000000000E+00 -0.00000000000E+00 -0.14035626107E+04  0.14035626107E+04  0.00000000000E+00 0. -1.
         25    2    1    2    0    0 -0.41986742990E+02 -0.65829487000E+02 -0.66920109158E+02  0.16189524788E+03  0.12504144246E+03 0.  0.
          2    1    1    2  501    0  0.57771988119E+02  0.41516344406E+02 -0.12847656301E+04  0.12867338239E+04  0.00000000000E+00 0. -1.
          1    1    1    2  502    0 -0.15785245130E+02  0.24313142594E+02  0.58287323243E+02  0.65097733581E+02  0.00000000000E+00 0. -1.
         22    1    3    3    0    0 -0.13522796729E+02  0.23082930094E+02  0.20726839425E+02  0.33842127085E+02  0.00000000000E+00 0.  1.
         22    1    3    3    0    0 -0.28463946261E+02 -0.88912417094E+02 -0.87646948584E+02  0.12805312080E+03  0.00000000000E+00 0.  1.
</event>
<event>
 7    1  0.5593520E-006  0.6808977E+02  0.7818608E-02  0.1431649E+00
          2   -1    0    0  502    0  0.00000000000E+00  0.00000000000E+00  0.13332132660E+04  0.13332132660E+04  0.00000000000E+00 0. -1.
          1   -1    0    0  501    0 -0.00000000000E+00 -0.00000000000E+00 -0.56578939905E+03  0.56578939905E+03  0.00000000000E+00 0. -1.
         25    2    1    2    0    0  0.60020835257E+02  0.82852296578E+02  0.71998256027E+03  0.73788218064E+03  0.12501288614E+03 0.  0.
          2    1    1    2  501    0 -0.27330065005E+02 -0.30133458437E+02 -0.55450051744E+03  0.55599081072E+03  0.00000000000E+00 0. -1.
          1    1    1    2  502    0 -0.32690770252E+02 -0.52718838141E+02  0.60194182413E+03  0.60512967370E+03  0.00000000000E+00 0. -1.
         22    1    3    3    0    0  0.23844139158E+02 -0.10658712448E+02  0.26567415637E+02  0.37255586117E+02  0.00000000000E+00 0. -1.
         22    1    3    3    0    0  0.36176696099E+02  0.93511009026E+02  0.69341514463E+03  0.70062659452E+03  0.00000000000E+00 0. -1.
</event>
<event>
 7    1  0.5593520E-006  0.3971532E+02  0.7818608E-02  0.1598955E+00
          2   -1    0    0  502    0  0.00000000000E+00  0.00000000000E+00  0.82101452705E+03  0.82101452705E+03  0.00000000000E+00 0. -1.
          1   -1    0    0  501    0 -0.00000000000E+00 -0.00000000000E+00 -0.10563196323E+04  0.10563196323E+04  0.00000000000E+00 0. -1.
         25    2    1    2    0    0 -0.26595905608E+02  0.72850914102E+01 -0.83596827069E+02  0.15288447658E+03  0.12499927572E+03 0.  0.
          2    1    1    2  501    0  0.38025738708E+02  0.12145804733E+02 -0.93749258969E+03  0.93834206615E+03  0.00000000000E+00 0. -1.
          1    1    1    2  502    0 -0.11429833100E+02 -0.19430896143E+02  0.78578431147E+03  0.78610761666E+03  0.00000000000E+00 0. -1.
         22    1    3    3    0    0 -0.45468640509E+02 -0.49357759755E+02 -0.33804027390E+02  0.75141852423E+02  0.00000000000E+00 0.  1.
         22    1    3    3    0    0  0.18872734901E+02  0.56642851165E+02 -0.49792799679E+02  0.77742624156E+02  0.00000000000E+00 0.  1.
</event>
<event>
 7    1  0.5593520E-006  0.1052871E+03  0.7818608E-02  0.1363629E+00
          2   -1    0    0  502    0  0.00000000000E+00  0.00000000000E+00  0.18246333924E+04  0.18246333924E+04  0.00000000000E+00 0. -1.
          1   -1    0    0  501    0 -0.00000000000E+00 -0.00000000000E+00 -0.10247878091E+04  0.10247878091E+04  0.00000000000E+00 0. -1.
         25    2    1    2    0    0  0.84152375980E+02 -0.54931744303E+02  0.72561279901E+03  0.74312577969E+03  0.12499148546E+03 0.  0.
          2    1    1    2  501    0  0.23587208939E+02  0.38534872271E+02 -0.10128030903E+04  0.10138103336E+04  0.00000000000E+00 0. -1.
          1    1    1    2  502    0 -0.10773958492E+03  0.16396872032E+02  0.10870358745E+04  0.10924850883E+04  0.00000000000E+00 0. -1.
         22    1    3    3    0    0  0.39557630945E+01 -0.66798793824E+02  0.19058976644E+03  0.20199550983E+03  0.00000000000E+00 0. -1.
         22    1    3    3    0    0  0.80196612885E+02  0.11867049521E+02  0.53502303257E+03  0.54113026987E+03  0.00000000000E+00 0. -1.
</event>
<event>
 7    1  0.5593520E-006  0.8789539E+02  0.7818608E-02  0.1406063E+00
          2   -1    0    0  502    0  0.00000000000E+00  0.00000000000E+00  0.94438387414E+03  0.94438387414E+03  0.00000000000E+00 0. -1.
          1   -1    0    0  501    0 -0.00000000000E+00 -0.00000000000E+00 -0.18234779694E+03  0.18234779694E+03  0.00000000000E+00 0. -1.
         25    2    1    2    0    0  0.52566695984E+02  0.10678300196E+02  0.65441049666E+03  0.66839773100E+03  0.12500058017E+03 0.  0.
          2    1    1    2  501    0 -0.80300713899E+02 -0.37209350372E+02 -0.16274487706E+03  0.18525289584E+03  0.00000000000E+00 0. -1.
          1    1    1    2  502    0  0.27734017916E+02  0.26531050177E+02  0.27037045761E+03  0.27308104424E+03  0.00000000000E+00 0. -1.
         22    1    3    3    0    0 -0.23233655868E+02  0.52640821207E+01  0.25438552552E+02  0.34851589369E+02  0.00000000000E+00 0.  1.
         22    1    3    3    0    0  0.75800351852E+02  0.54142180753E+01  0.62897194411E+03  0.63354614163E+03  0.00000000000E+00 0.  1.
</event>
<event>
 7    1  0.5593520E-006  0.6917757E+02  0.7818608E-02  0.1403018E+00
          2   -1    0    0  502    0  0.00000000000E+00  0.00000000000E+00  0.17066902122E+04  0.17066902122E+04  0.00000000000E+00 0. -1.
          1   -1    0    0  501    0 -0.00000000000E+00 -0.00000000000E+00 -0.33758516469E+03  0.33758516469E+03  0.00000000000E+00 0. -1.
         25    2    1    2    0    0  0.64218400470E+02  0.36754893747E+02  0.60472473690E+02  0.15734178175E+03  0.12499836413E+03 0.  0.
          2    1    1    2  501    0 -0.40947407442E+02  0.28601895704E+02 -0.28623379519E+03  0.29055902004E+03  0.00000000000E+00 0. -1.
          1    1    1    2  502    0 -0.23270993028E+02 -0.65356789451E+02  0.15948663690E+04  0.15963745751E+04  0.00000000000E+00 0. -1.
         22    1    3    3    0    0  0.84604077698E+02  0.58725381889E+02  0.16762351352E+02  0.10434316875E+03  0.00000000000E+00 0.  1.
         22    1    3    3    0    0 -0.20385677228E+02 -0.21970488143E+02  0.43710122338E+02  0.52998613001E+02  0.00000000000E+00 0.  1.
</event>
<event>
 7    1  0.5593520E-006  0.1902868E+03  0.7818608E-02  0.1265987E+00
          2   -1    0    0  502    0  0.00000000000E+00  0.00000000000E+00  0.47652773589E+03  0.47652773589E+03  0.00000000000E+00 0. -1.
          1   -1    0    0  501    0 -0.00000000000E+00 -0.00000000000E+00 -0.85351422014E+03  0.85351422014E+03  0.00000000000E+00 0. -1.
         25    2    1    2    0    0  0.19531806239E+03  0.39598640029E+02  0.16388718883E+03  0.28671002491E+03  0.12500571961E+03 0.  0.
          2    1    1    2  501    0 -0.79526268741E+01 -0.59781670429E+02 -0.75539172420E+03  0.75779532156E+03  0.00000000000E+00 0. -1.
          1    1    1    2  502    0 -0.18736543551E+03  0.20183030400E+02  0.21451805111E+03  0.28553660955E+03  0.00000000000E+00 0. -1.
         22    1    3    3    0    0  0.13517793785E+03 -0.15748239003E+02  0.15215924296E+03  0.20414092469E+03  0.00000000000E+00 0. -1.
         22    1    3    3    0    0  0.60140124533E+02  0.55346879032E+02  0.11727945869E+02  0.82569100224E+02  0.00000000000E+00 0. -1.
</event>
<event>
 7    1  0.5593520E-006  0.1130974E+03  0.7818608E-02  0.1374372E+00
          2   -1    0    0  502    0  0.00000000000E+00  0.00000000000E+00  0.21685620803E+04  0.21685620803E+04  0.00000000000E+00 0. -1.
          1   -1    0    0  501    0 -0.00000000000E+00 -0.00000000000E+00 -0.69860880552E+02  0.69860880552E+02  0.00000000000E+00 0. -1.
         25    2    1    2    0    0  0.32471792745E+01  0.82881068817E+02  0.41202990598E+03  0.43848996598E+03  0.12499996440E+03 0.  0.
          2    1    1    2  501    0  0.15283861416E+02 -0.11660121492E+03  0.48781520368E+01  0.11769977106E+03  0.00000000000E+00 0. -1.
          1    1    1    2  502    0 -0.18531040691E+02  0.33720146103E+02  0.16817931417E+04  0.16822332238E+04  0.00000000000E+00 0. -1.
         22    1    3    3    0    0 -0.35420713241E+02  0.10054655939E+03  0.27181138402E+03  0.29196860450E+03  0.00000000000E+00 0.  1.
         22    1    3    3    0    0  0.38667892516E+02 -0.17665490571E+02  0.14021852196E+03  0.14652136148E+03  0.00000000000E+00 0.  1.
</event>
<event>
 7    1  0.5593520E-006  0.9420817E+02  0.7818608E-02  0.1366922E+00
          2   -1    0    0  502    0  0.00000000000E+00  0.00000000000E+00  0.15601041953E+04  0.15601041953E+04  0.00000000000E+00 0. -1.
          1   -1    0    0  501    0 -0.00000000000E+00 -0.00000000000E+00 -0.68626143935E+02  0.68626143935E+02  0.00000000000E+00 0. -1.
         25    2    1    2    0    0  0.70348887709E+02 -0.12330385214E+02  0.52099162972E+03  0.54051685907E+03  0.12500076917E+03 0.  0.
          2    1    1    2  501    0  0.27351349183E+02  0.40808406577E+02 -0.45609172120E+02  0.67034460772E+02  0.00000000000E+00 0. -1.
          1    1    1    2  502    0 -0.97700236891E+02 -0.28478021362E+02  0.10160955938E+04  0.10211790194E+04  0.00000000000E+00 0. -1.
         22    1    3    3    0    0  0.27726354716E+02 -0.53411138875E+02  0.41302801320E+03  0.41738907531E+03  0.00000000000E+00 0. -1.
         22    1    3    3    0    0  0.42622532993E+02  0.41080753660E+02  0.10796361652E+03  0.12312778376E+03  0.00000000000E+00 0. -1.
</event>
<event>
 7    1  0.5593520E-006  0.2537968E+03  0.7818608E-02  0.1186226E+00
          2   -1    0    0  502    0  0.00000000000E+00  0.00000000000E+00  0.40689635077E+03  0.40689635077E+03  0.00000000000E+00 0. -1.
          1   -1    0    0  501    0 -0.00000000000E+00 -0.00000000000E+00 -0.51545675905E+03  0.51545675905E+03  0.00000000000E+00 0. -1.
         25    2    1    2    0    0  0.10620203712E+03 -0.19901005050E+03 -0.10737565981E+03  0.27935363399E+03  0.12500019046E+03 0.  0.
          2    1    1    2  501    0 -0.20923217158E+03  0.18749464485E+03 -0.24834519373E+03  0.37497690425E+03  0.00000000000E+00 0. -1.
          1    1    1    2  502    0  0.10303013445E+03  0.11515405645E+02  0.24716044526E+03  0.26802257158E+03  0.00000000000E+00 0. -1.
         22    1    3    3    0    0  0.11793929736E+03 -0.10286162078E+03 -0.91262854903E+02  0.18116042497E+03  0.00000000000E+00 0.  1.
         22    1    3    3    0    0 -0.11737260237E+02 -0.96148429715E+02 -0.16112804904E+02  0.98193209014E+02  0.00000000000E+00 0.  1.
</event>
<event>
 7    1  0.5593520E-006  0.1505990E+03  0.7818608E-02  0.1254213E+00
          2   -1    0    0  502    0  0.00000000000E+00  0.00000000000E+00  0.11180982916E+03  0.11180982916E+03  0.00000000000E+00 0. -1.
          1   -1    0    0  501    0 -0.00000000000E+00 -0.00000000000E+00 -0.17150898279E+04  0.17150898279E+04  0.00000000000E+00 0. -1.
         25    2    1    2    0    0 -0.18547298362E+02 -0.20989416255E+03 -0.74412690522E+03  0.78342163726E+03  0.12500019562E+03 0.  0.
          2    1    1    2  501    0  0.52833087193E+02  0.67283849449E+02 -0.88957789932E+03  0.89368187318E+03  0.00000000000E+00 0. -1.
          1    1    1    2  502    0 -0.34285788831E+02  0.14261031311E+03  0.30424805839E+02  0.14979614658E+03  0.00000000000E+00 0. -1.
         22    1    3    3    0    0 -0.42554066752E+01 -0.13901593847E+03 -0.26903011149E+03  0.30285432228E+03  0.00000000000E+00 0.  1.
         22    1    3    3    0    0 -0.14291891686E+02 -0.70878224089E+02 -0.47509679373E+03  0.48056731498E+03  0.00000000000E+00 0.  1.
</event>
<event>
 7    1  0.6739130E-006  0.9338956E+02  0.7818608E-02  0.1462551E+00
          2   -1    0    0  502    0  0.00000000000E+00  0.00000000000E+00  0.13853997266E+04  0.13853997266E+04  0.00000000000E+00 0. -1.
          1   -1    0    0  501    0 -0.00000000000E+00 -0.00000000000E+00 -0.91151797886E+03  0.91151797886E+03  0.00000000000E+00 0. -1.
         25    2    1    2    0    0 -0.10206949667E+02 -0.95576013126E+02 -0.38476150228E+03  0.41581662477E+03  0.12499238253E+03 0.  0.
          2    1    1    2  501    0 -0.22204627638E+02  0.79903532274E+01 -0.50936370722E+03  0.50991006802E+03  0.00000000000E+00 0. -1.
          1    1    1    2  502    0  0.32411577305E+02  0.87585659899E+02  0.13680069572E+04  0.13711910127E+04  0.00000000000E+00 0. -1.
         22    1    3    3    0    0 -0.64423741147E+02 -0.34997958095E+02 -0.22356843858E+03  0.23528306829E+03  0.00000000000E+00 0.  1.
         22    1    3    3    0    0  0.54216791480E+02 -0.60578055031E+02 -0.16119306370E+03  0.18053355647E+03  0.00000000000E+00 0.  1.
</event>
<event>
 7    1  0.5593520E-006  0.6685566E+02  0.7818608E-02  0.1476546E+00
          2   -1    0    0  502    0  0.00000000000E+00  0.00000000000E+00  0.14388427517E+04  0.14388427517E+04  0.00000000000E+00 0. -1.
          1   -1    0    0  501    0 -0.00000000000E+00 -0.00000000000E+00 -0.31145455212E+04  0.31145455212E+04  0.00000000000E+00 0. -1.
         25    2    1    2    0    0 -0.65474057659E+02  0.70108068820E+02  0.71987639228E+03  0.73691879545E+03  0.12500118955E+03 0.  0.
          2    1    1    2  501    0  0.41464196726E+02 -0.52426156089E+02 -0.31053516433E+04  0.31060709281E+04  0.00000000000E+00 0. -1.
          1    1    1    2  502    0  0.24009860933E+02 -0.17681912731E+02  0.70977248157E+03  0.71039854944E+03  0.00000000000E+00 0. -1.
         22    1    3    3    0    0 -0.30631933273E+02 -0.29324072253E+02  0.10780254277E+03  0.11584301782E+03  0.00000000000E+00 0. -1.
         22    1    3    3    0    0 -0.34842124386E+02  0.99432141073E+02  0.61207384951E+03  0.62107577763E+03  0.00000000000E+00 0. -1.
</event>
<event>
 7    1  0.5593520E-006  0.1305824E+03  0.7818608E-02  0.1319134E+00
          2   -1    0    0  502    0  0.00000000000E+00  0.00000000000E+00  0.27691387622E+03  0.27691387622E+03  0.00000000000E+00 0. -1.
          1   -1    0    0  501    0 -0.00000000000E+00 -0.00000000000E+00 -0.26632984883E+04  0.26632984883E+04  0.00000000000E+00 0. -1.
         25    2    1    2    0    0 -0.11791361176E+03 -0.15703790196E+02 -0.17028359747E+04  0.17115564745E+04  0.12499991921E+03 0.  0.
          2    1    1    2  501    0 -0.74398559767E+01  0.53002061734E+02 -0.93960749346E+03  0.94113060293E+03  0.00000000000E+00 0. -1.
          1    1    1    2  502    0  0.12535346774E+03 -0.37298271537E+02  0.25605885608E+03  0.28752528708E+03  0.00000000000E+00 0. -1.
         22    1    3    3    0    0 -0.95370767599E+02 -0.28421896623E+02 -0.58379215632E+03  0.59221336468E+03  0.00000000000E+00 0. -1.
         22    1    3    3    0    0 -0.22542844160E+02  0.12718106427E+02 -0.11190438184E+04  0.11193431098E+04  0.00000000000E+00 0. -1.
</event>
<event>
 7    1  0.5593520E-006  0.1010246E+03  0.7818608E-02  0.1320899E+00
          2   -1    0    0  502    0  0.00000000000E+00  0.00000000000E+00  0.13557351712E+04  0.13557351712E+04  0.00000000000E+00 0. -1.
          1   -1    0    0  501    0 -0.00000000000E+00 -0.00000000000E+00 -0.10977854524E+04  0.10977854524E+04  0.00000000000E+00 0. -1.
         25    2    1    2    0    0  0.78776022210E+02 -0.11428477587E+03  0.87630406882E+03  0.89599198054E+03  0.12500454588E+03 0.  0.
          2    1    1    2  501    0 -0.62195195172E+02  0.27735384974E+02 -0.10827279903E+04  0.10848674550E+04  0.00000000000E+00 0. -1.
          1    1    1    2  502    0 -0.16580827038E+02  0.86549390901E+02  0.46437364026E+03  0.47266118802E+03  0.00000000000E+00 0. -1.
         22    1    3    3    0    0  0.27491539126E+02 -0.13638993718E+02  0.54686023661E+03  0.54772066353E+03  0.00000000000E+00 0. -1.
         22    1    3    3    0    0  0.51284483084E+02 -0.10064578216E+03  0.32944383221E+03  0.34827131701E+03  0.00000000000E+00 0. -1.
</event>
<event>
 7    1  0.5593520E-006  0.1268265E+03  0.7818608E-02  0.1341639E+00
          2   -1    0    0  502    0  0.00000000000E+00  0.00000000000E+00  0.32634357311E+03  0.32634357311E+03  0.00000000000E+00 0. -1.
          1   -1    0    0  501    0 -0.00000000000E+00 -0.00000000000E+00 -0.80741022721E+03  0.80741022721E+03  0.00000000000E+00 0. -1.
         25    2    1    2    0    0 -0.19289288178E+02  0.12246509828E+03 -0.33080581827E+03  0.37473530792E+03  0.12499713861E+03 0.  0.
          2    1    1    2  501    0  0.45165350820E+02  0.21019801883E+01 -0.44013602012E+03  0.44245230640E+03  0.00000000000E+00 0. -1.
          1    1    1    2  502    0 -0.25876062642E+02 -0.12456707847E+03  0.28987518429E+03  0.31656618601E+03  0.00000000000E+00 0. -1.
         22    1    3    3    0    0 -0.63032353616E+02  0.11281360195E+03 -0.26869734027E+03  0.29815809071E+03  0.00000000000E+00 0. -1.
         22    1    3    3    0    0  0.43743065438E+02  0.96514963250E+01 -0.62108478003E+02  0.76577217207E+02  0.00000000000E+00 0. -1.
</event>
<event>
 7    1  0.5593520E-006  0.8330355E+02  0.7818608E-02  0.1377997E+00
          2   -1    0    0  502    0  0.00000000000E+00  0.00000000000E+00  0.10358879305E+04  0.10358879305E+04  0.00000000000E+00 0. -1.
          1   -1    0    0  501    0 -0.00000000000E+00 -0.00000000000E+00 -0.39508728694E+03  0.39508728694E+03  0.00000000000E+00 0. -1.
         25    2    1    2    0    0  0.12788401992E+03  0.25690378269E+02  0.63916882056E+01  0.18077861372E+03  0.12500294163E+03 0.  0.
          2    1    1    2  501    0 -0.80233258166E+02 -0.83507948456E+01 -0.30191242888E+03  0.31250316190E+03  0.00000000000E+00 0. -1.
          1    1    1    2  502    0 -0.47650761750E+02 -0.17339583423E+02  0.93632138423E+03  0.93769344181E+03  0.00000000000E+00 0. -1.
         22    1    3    3    0    0  0.13832703627E+03  0.45702141526E+02 -0.18873218734E+02  0.14689878518E+03  0.00000000000E+00 0.  1.
         22    1    3    3    0    0 -0.10443016353E+02 -0.20011763257E+02  0.25264906940E+02  0.33879828540E+02  0.00000000000E+00 0.  1.
</event>
<event>
 7    1  0.5593520E-006  0.8557021E+02  0.7818608E-02  0.1364547E+00
          2   -1    0    0  502    0  0.00000000000E+00  0.00000000000E+00  0.18574340307E+04  0.18574340307E+04  0.00000000000E+00 0. -1.
          1   -1    0    0  501    0 -0.00000000000E+00 -0.00000000000E+00 -0.36499220677E+03  0.36499220677E+03  0.00000000000E+00 0. -1.
         25    2    1    2    0    0  0.53284913987E+02 -0.39151123223E+02  0.73614468837E+02  0.15942579967E+03  0.12500161228E+03 0.  0.
          2    1    1    2  501    0 -0.32327924812E+02 -0.44701519451E+02 -0.31864220368E+03  0.32338239675E+03  0.00000000000E+00 0. -1.
          1    1    1    2  502    0 -0.20956989176E+02  0.83852642674E+02  0.17374695587E+04  0.17396180410E+04  0.00000000000E+00 0. -1.
         22    1    3    3    0    0  0.82576664901E+02 -0.28147522273E+02  0.88938735616E+02  0.12458445846E+03  0.00000000000E+00 0. -1.
         22    1    3    3    0    0 -0.29291750914E+02 -0.11003600950E+02 -0.15324266779E+02  0.34841341217E+02  0.00000000000E+00 0. -1.
</event>
<event>
 7    1  0.5593520E-006  0.9096071E+02  0.7818608E-02  0.1301513E+00
          2   -1    0    0  502    0  0.00000000000E+00  0.00000000000E+00  0.18968588218E+04  0.18968588218E+04  0.00000000000E+00 0. -1.
          1   -1    0    0  501    0 -0.00000000000E+00 -0.00000000000E+00 -0.21046366000E+02  0.21046366000E+02  0.00000000000E+00 0. -1.
         25    2    1    2    0    0  0.23475620071E+02 -0.96869906888E+02  0.12260805141E+04  0.12364603623E+04  0.12500366751E+03 0.  0.
          2    1    1    2  501    0 -0.88966689904E+02  0.34916497633E+02  0.18694403220E+03  0.20995786457E+03  0.00000000000E+00 0. -1.
          1    1    1    2  502    0  0.65491069832E+02  0.61953409255E+02  0.46278790950E+03  0.47148696093E+03  0.00000000000E+00 0. -1.
         22    1    3    3    0    0  0.63005269242E+02 -0.27119051208E+02  0.79757049591E+03  0.80051471120E+03  0.00000000000E+00 0.  1.
         22    1    3    3    0    0 -0.39529649171E+02 -0.69750855681E+02  0.42851001821E+03  0.43594565112E+03  0.00000000000E+00 0.  1.
</event>
<event>
 7    1  0.5593520E-006  0.4975002E+02  0.7818608E-02  0.1466853E+00
          2   -1    0    0  502    0  0.00000000000E+00  0.00000000000E+00  0.23142692490E+03  0.23142692490E+03  0.00000000000E+00 0. -1.
          1   -1    0    0  501    0 -0.00000000000E+00 -0.00000000000E+00 -0.10535268493E+04  0.10535268493E+04  0.00000000000E+00 0. -1.
         25    2    1    2    0    0 -0.92036770016E+02  0.90703979898E+01  0.17184350434E+03  0.23175954174E+03  0.12501702303E+03 0.  0.
          2    1    1    2  501    0  0.49534906283E+02 -0.29197612383E+01 -0.10070673171E+04  0.10082890524E+04  0.00000000000E+00 0. -1.
          1    1    1    2  502    0  0.42501863733E+02 -0.61506367516E+01  0.13123888360E+02  0.44905180090E+02  0.00000000000E+00 0. -1.
         22    1    3    3    0    0 -0.11263761055E+03  0.37513254950E+02  0.14588577489E+03  0.18808810415E+03  0.00000000000E+00 0.  1.
         22    1    3    3    0    0  0.20600840535E+02 -0.28442856960E+02  0.25957729454E+02  0.43671437590E+02  0.00000000000E+00 0.  1.
</event>
<event>
 7    1  0.5593520E-006  0.7423902E+02  0.7818608E-02  0.1482350E+00
          2   -1    0    0  502    0  0.00000000000E+00  0.00000000000E+00  0.22185872958E+04  0.22185872958E+04  0.00000000000E+00 0. -1.
          1   -1    0    0  501    0 -0.00000000000E+00 -0.00000000000E+00 -0.45379531177E+03  0.45379531177E+03  0.00000000000E+00 0. -1.
         25    2    1    2    0    0 -0.24630420701E+02  0.96220361089E+02  0.22923399852E+03  0.27935301370E+03  0.12499945868E+03 0.  0.
          2    1    1    2  501    0  0.63125909005E+01 -0.24988207666E+02 -0.42765922205E+03  0.42843514040E+03  0.00000000000E+00 0. -1.
          1    1    1    2  502    0  0.18317829800E+02 -0.71232153423E+02  0.19632172075E+04  0.19645944534E+04  0.00000000000E+00 0. -1.
         22    1    3    3    0    0 -0.28307038829E+02  0.12614759747E+03  0.19141554285E+03  0.23098574597E+03  0.00000000000E+00 0.  1.
         22    1    3    3    0    0  0.36766181276E+01 -0.29927236382E+02  0.37818455675E+02  0.48367267733E+02  0.00000000000E+00 0.  1.
</event>
<event>
 7    1  0.5593520E-006  0.1138386E+03  0.7818608E-02  0.1451718E+00
          2   -1    0    0  502    0  0.00000000000E+00  0.00000000000E+00  0.45631766109E+03  0.45631766109E+03  0.00000000000E+00 0. -1.
          1   -1    0    0  501    0 -0.00000000000E+00 -0.00000000000E+00 -0.21794036507E+03  0.21794036507E+03  0.00000000000E+00 0. -1.
         25    2    1    2    0    0 -0.35859078008E+02  0.94114283701E+02  0.83349212323E+01  0.16074268822E+03  0.12500147612E+03 0.  0.
          2    1    1    2  501    0 -0.19699630789E+02  0.71325212129E+01 -0.13192100540E+03  0.13357432380E+03  0.00000000000E+00 0. -1.
          1    1    1    2  502    0  0.55558708797E+02 -0.10124680491E+03  0.36196338019E+03  0.37994101414E+03  0.00000000000E+00 0. -1.
         22    1    3    3    0    0  0.24692294903E+02  0.68142087776E+02  0.45029494460E+02  0.85327070297E+02  0.00000000000E+00 0.  1.
         22    1    3    3    0    0 -0.60551372911E+02  0.25972195925E+02 -0.36694573228E+02  0.75415617925E+02  0.00000000000E+00 0.  1.
</event>
<event>
 7    1  0.5593520E-006  0.9757410E+02  0.7818608E-02  0.1340511E+00
          2   -1    0    0  502    0  0.00000000000E+00  0.00000000000E+00  0.20961491013E+03  0.20961491013E+03  0.00000000000E+00 0. -1.
          1   -1    0    0  501    0 -0.00000000000E+00 -0.00000000000E+00 -0.99429645187E+03  0.99429645187E+03  0.00000000000E+00 0. -1.
         25    2    1    2    0    0 -0.10847426661E+03 -0.99251803695E+02 -0.31753665000E+03  0.37158149961E+03  0.12500279877E+03 0.  0.
          2    1    1    2  501    0  0.56300253721E+02  0.18765255515E+02 -0.63566254863E+03  0.63842676096E+03  0.00000000000E+00 0. -1.
          1    1    1    2  502    0  0.52174012893E+02  0.80486548180E+02  0.16851765689E+03  0.19390310143E+03  0.00000000000E+00 0. -1.
         22    1    3    3    0    0 -0.54221819985E+02  0.49541492274E+01 -0.32809634576E+02  0.63569029236E+02  0.00000000000E+00 0.  1.
         22    1    3    3    0    0 -0.54252446630E+02 -0.10420595292E+03 -0.28472701543E+03  0.30801247037E+03  0.00000000000E+00 0.  1.
</event>
<event>
 7    1  0.5593520E-006  0.2546737E+03  0.7818608E-02  0.1193895E+00
          2   -1    0    0  502    0  0.00000000000E+00  0.00000000000E+00  0.13534696197E+04  0.13534696197E+04  0.00000000000E+00 0. -1.
          1   -1    0    0  501    0 -0.00000000000E+00 -0.00000000000E+00 -0.14477417123E+04  0.14477417123E+04  0.00000000000E+00 0. -1.
         25    2    1    2    0    0  0.18820440523E+03 -0.23993055304E+02 -0.19975296922E+03  0.30252773116E+03  0.12500085825E+03 0.  0.
          2    1    1    2  501    0  0.66463728880E+02  0.67771738080E+02 -0.11818593574E+04  0.11856652042E+04  0.00000000000E+00 0. -1.
          1    1    1    2  502    0 -0.25466813411E+03 -0.43778682776E+02  0.12873402341E+04  0.13130183966E+04  0.00000000000E+00 0. -1.
         22    1    3    3    0    0  0.78602380612E+02 -0.46773459845E+02 -0.24701972844E+02  0.94743222692E+02  0.00000000000E+00 0.  1.
         22    1    3    3    0    0  0.10960202461E+03  0.22780404541E+02 -0.17505099637E+03  0.20778450847E+03  0.00000000000E+00 0.  1.
</event>
<event>
 7    1  0.5593520E-006  0.6224130E+02  0.7818608E-02  0.1538540E+00
          2   -1    0    0  502    0  0.00000000000E+00  0.00000000000E+00  0.69231249957E+03  0.69231249957E+03  0.00000000000E+00 0. -1.
          1   -1    0    0  501    0 -0.00000000000E+00 -0.00000000000E+00 -0.20981766821E+04  0.20981766821E+04  0.00000000000E+00 0. -1.
         25    2    1    2    0    0 -0.81137334845E+02 -0.37924667244E+01 -0.37274504295E+02  0.15366160919E+03  0.12499940623E+03 0.  0.
          2    1    1    2  501    0  0.61206821241E+02  0.10430639586E+02 -0.20020532410E+04  0.20030157895E+04  0.00000000000E+00 0. -1.
          1    1    1    2  502    0  0.19930513604E+02 -0.66381728614E+01  0.63346356284E+03  0.63381178291E+03  0.00000000000E+00 0. -1.
         22    1    3    3    0    0  0.83835330471E+01 -0.12876735768E+02 -0.59105904090E+02  0.61070466255E+02  0.00000000000E+00 0.  1.
         22    1    3    3    0    0 -0.89520867892E+02  0.90842690433E+01  0.21831399795E+02  0.92591142930E+02  0.00000000000E+00 0.  1.
</event>
<event>
 7    1  0.5593520E-006  0.4362032E+02  0.7818608E-02  0.1497076E+00
          2   -1    0    0  502    0  0.00000000000E+00  0.00000000000E+00  0.37282718106E+03  0.37282718106E+03  0.00000000000E+00 0. -1.
          1   -1    0    0  501    0 -0.00000000000E+00 -0.00000000000E+00 -0.97135356239E+03  0.97135356239E+03  0.00000000000E+00 0. -1.
         25    2    1    2    0    0  0.73009036013E+02  0.14598255006E+02 -0.50865374219E+02  0.15412759770E+03  0.12499840674E+03 0.  0.
          2    1    1    2  501    0 -0.42151956232E+02  0.10198461354E+02 -0.86709339503E+03  0.86817725824E+03  0.00000000000E+00 0. -1.
          1    1    1    2  502    0 -0.30857079781E+02 -0.24796716361E+02  0.31943238791E+03  0.32187588752E+03  0.00000000000E+00 0. -1.
         22    1    3    3    0    0  0.51031136075E+02 -0.11829676925E+02  0.34077929877E+02  0.62493386930E+02  0.00000000000E+00 0. -1.
         22    1    3    3    0    0  0.21977899939E+02  0.26427931932E+02 -0.84943304096E+02  0.91634210766E+02  0.00000000000E+00 0. -1.
</event>
<event>
 7    1  0.5593520E-006  0.8264663E+02  0.7818608E-02  0.1380584E+00
          2   -1    0    0  502    0  0.00000000000E+00  0.00000000000E+00  0.44959069316E+03  0.44959069316E+03  0.00000000000E+00 0. -1.
          1   -1    0    0  501    0 -0.00000000000E+00 -0.00000000000E+00 -0.16173504257E+04  0.16173504257E+04  0.00000000000E+00 0. -1.
         25    2    1    2    0    0 -0.10201729499E+03 -0.60437102641E+02 -0.34618650611E+03  0.38669096134E+03  0.12499852285E+03 0.  0.
          2    1    1    2  501    0  0.79136955133E+02  0.15931785656E+02 -0.12481451865E+04  0.12507529277E+04  0.00000000000E+00 0. -1.
          1    1    1    2  502    0  0.22880339861E+02  0.44505316984E+02  0.42657196015E+03  0.42949722977E+03  0.00000000000E+00 0. -1.
         22    1    3    3    0    0  0.21774003750E+02 -0.38539220428E+02 -0.64531589121E+02  0.78254103694E+02  0.00000000000E+00 0.  1.
         22    1    3    3    0    0 -0.12379129874E+03 -0.21897882213E+02 -0.28165491698E+03  0.30843685764E+03  0.00000000000E+00 0.  1.
</event>
<event>
 7    1  0.5593520E-006  0.3900990E+02  0.7818608E-02  0.1516238E+00
          2   -1    0    0  502    0  0.00000000000E+00  0.00000000000E+00  0.69082733268E+03  0.69082733268E+03  0.00000000000E+00 0. -1.
          1   -1    0    0  501    0 -0.00000000000E+00 -0.00000000000E+00 -0.52176689255E+03  0.52176689255E+03  0.00000000000E+00 0. -1.
         25    2    1    2    0    0 -0.17429819078E+02 -0.18485286015E+02  0.10160510394E+03  0.16307508862E+03  0.12499753194E+03 0.  0.
          2    1    1    2  501    0 -0.18107733655E+02  0.34574248883E+02 -0.48957312519E+03  0.49112637235E+03  0.00000000000E+00 0. -1.
          1    1    1    2  502    0  0.35537552732E+02 -0.16088962868E+02  0.55702846139E+03  0.55839276426E+03  0.00000000000E+00 0. -1.
         22    1    3    3    0    0 -0.48865172511E+02  0.28344951816E+02  0.12881354888E+02  0.57941096656E+02  0.00000000000E+00 0.  1.
         22    1    3    3    0    0  0.31435353434E+02 -0.46830237830E+02  0.88723749053E+02  0.10513399197E+03  0.00000000000E+00 0.  1.
</event>
<event>
 7    1  0.5593520E-006  0.7569029E+02  0.7818608E-02  0.1398593E+00
          2   -1    0    0  502    0  0.00000000000E+00  0.00000000000E+00  0.49289450488E+03  0.49289450488E+03  0.00000000000E+00 0. -1.
          1   -1    0    0  501    0 -0.00000000000E+00 -0.00000000000E+00 -0.12121854635E+03  0.12121854635E+03  0.00000000000E+00 0. -1.
         25    2    1    2    0    0 -0.16578204260E+02 -0.49735078098E+02  0.12822296151E+02  0.13615396826E+03  0.12500030778E+03 0.  0.
          2    1    1    2  501    0 -0.46999223944E+02  0.51059193767E+01 -0.45856324804E+02  0.65861976804E+02  0.00000000000E+00 0. -1.
          1    1    1    2  502    0  0.63577428204E+02  0.44629158722E+02  0.40470998718E+03  0.41209710616E+03  0.00000000000E+00 0. -1.
         22    1    3    3    0    0 -0.43569883963E+02 -0.79312130764E+02 -0.83196466360E+01  0.90873348101E+02  0.00000000000E+00 0. -1.
         22    1    3    3    0    0  0.26991679703E+02  0.29577052666E+02  0.21141942787E+02  0.45280620164E+02  0.00000000000E+00 0. -1.
</event>
<event>
 7    1  0.5593520E-006  0.1406187E+03  0.7818608E-02  0.1361842E+00
          2   -1    0    0  502    0  0.00000000000E+00  0.00000000000E+00  0.42025732341E+03  0.42025732341E+03  0.00000000000E+00 0. -1.
          1   -1    0    0  501    0 -0.00000000000E+00 -0.00000000000E+00 -0.59105846522E+03  0.59105846522E+03  0.00000000000E+00 0. -1.
         25    2    1    2    0    0 -0.98638640320E+02 -0.13735980650E+03  0.30180733515E+02  0.21244459336E+03  0.12499812305E+03 0.  0.
          2    1    1    2  501    0  0.69014729126E+02  0.11999453568E+03 -0.48930590008E+03  0.50850957246E+03  0.00000000000E+00 0. -1.
          1    1    1    2  502    0  0.29623911194E+02  0.17365270823E+02  0.28832402476E+03  0.29036162280E+03  0.00000000000E+00 0. -1.
         22    1    3    3    0    0 -0.60247822070E+02 -0.13993401983E+03  0.60024181830E+02  0.16375051870E+03  0.00000000000E+00 0.  1.
         22    1    3    3    0    0 -0.38390818250E+02  0.25742133246E+01 -0.29843448315E+02  0.48694074665E+02  0.00000000000E+00 0.  1.
</event>
<event>
 7    1  0.5593520E-006  0.1286469E+03  0.7818608E-02  0.1326757E+00
          2   -1    0    0  502    0  0.00000000000E+00  0.00000000000E+00  0.15971176879E+04  0.15971176879E+04  0.00000000000E+00 0. -1.
          1   -1    0    0  501    0 -0.00000000000E+00 -0.00000000000E+00 -0.11545843011E+04  0.11545843011E+04  0.00000000000E+00 0. -1.
         25    2    1    2    0    0  0.79736167293E+02 -0.56072874083E+01 -0.96977810527E+01  0.14868347061E+03  0.12499371755E+03 0.  0.
          2    1    1    2  501    0  0.49570814914E+02 -0.10951551580E+02 -0.10720107021E+04  0.10732120702E+04  0.00000000000E+00 0. -1.
          1    1    1    2  502    0 -0.12930698221E+03  0.16558838988E+02  0.15242418700E+04  0.15298064482E+04  0.00000000000E+00 0. -1.
         22    1    3    3    0    0  0.74237032902E+02 -0.45477712627E+02  0.30066671711E+02  0.92105179809E+02  0.00000000000E+00 0. -1.
         22    1    3    3    0    0  0.54991343915E+01  0.39870425219E+02 -0.39764452764E+02  0.56578290800E+02  0.00000000000E+00 0. -1.
</event>
<event>
 7    1  0.5593520E-006  0.5291662E+02  0.7818608E-02  0.1450472E+00
          2   -1    0    0  502    0  0.00000000000E+00  0.00000000000E+00  0.35019739037E+03  0.35019739037E+03  0.00000000000E+00 0. -1.
          1   -1    0    0  501    0 -0.00000000000E+00 -0.00000000000E+00 -0.25407027444E+03  0.25407027444E+03  0.00000000000E+00 0. -1.
         25    2    1    2    0    0 -0.28104944788E+02 -0.47877807759E+01 -0.26392522317E+01  0.12823639006E+03  0.12499918127E+03 0.  0.
          2    1    1    2  501    0  0.63174249321E+01 -0.45045948064E+02 -0.18325368534E+03  0.18881461936E+03  0.00000000000E+00 0. -1.
          1    1    1    2  502    0  0.21787519856E+02  0.49833728840E+02  0.28202005350E+03  0.28721665538E+03  0.00000000000E+00 0. -1.
         22    1    3    3    0    0  0.36091654655E+02  0.13579647039E+02  0.34576295583E+02  0.51793190341E+02  0.00000000000E+00 0. -1.
         22    1    3    3    0    0 -0.64196599443E+02 -0.18367427815E+02 -0.37215547815E+02  0.76443199722E+02  0.00000000000E+00 0. -1.
</event>
<event>
 7    1  0.5593520E-006  0.6393585E+02  0.7818608E-02  0.1408194E+00
          2   -1    0    0  502    0  0.00000000000E+00  0.00000000000E+00  0.79756789522E+03  0.79756789522E+03  0.00000000000E+00 0. -1.
          1   -1    0    0  501    0 -0.00000000000E+00 -0.00000000000E+00 -0.10522603127E+04  0.10522603127E+04  0.00000000000E+00 0. -1.
         25    2    1    2    0    0 -0.26841550054E+02  0.28951535368E+02  0.25416859973E+03  0.28598168947E+03  0.12500075765E+03 0.  0.
          2    1    1    2  501    0 -0.12429473456E+02 -0.62868458923E+02 -0.10340833049E+04  0.10360671872E+04  0.00000000000E+00 0. -1.
          1    1    1    2  502    0  0.39271023510E+02  0.33916923555E+02  0.52522228769E+03  0.52777933124E+03  0.00000000000E+00 0. -1.
         22    1    3    3    0    0 -0.49455025388E+02  0.11975325571E+02  0.25258654146E+03  0.25766095724E+03  0.00000000000E+00 0.  1.
         22    1    3    3    0    0  0.22613475334E+02  0.16976209797E+02  0.15820582735E+01  0.28320732231E+02  0.00000000000E+00 0.  1.
</event>
<event>
 7    1  0.5593520E-006  0.3583103E+03  0.7818608E-02  0.1285978E+00
          2   -1    0    0  502    0  0.00000000000E+00  0.00000000000E+00  0.57208274220E+03  0.57208274220E+03  0.00000000000E+00 0. -1.
          1   -1    0    0  501    0 -0.00000000000E+00 -0.00000000000E+00 -0.15902338278E+04  0.15902338278E+04  0.00000000000E+00 0. -1.
         25    2    1    2    0    0  0.23830995356E+03 -0.23941064638E+03 -0.13426284006E+03  0.38439602023E+03  0.12499879431E+03 0.  0.
          2    1    1    2  501    0  0.17211345193E+02 -0.20080233577E+02 -0.12565688610E+04  0.12568471461E+04  0.00000000000E+00 0. -1.
          1    1    1    2  502    0 -0.25552129876E+03  0.25949087996E+03  0.37268061545E+03  0.52107340369E+03  0.00000000000E+00 0. -1.
         22    1    3    3    0    0  0.24568652675E+03 -0.22734636555E+03 -0.14678740274E+03  0.36550619825E+03  0.00000000000E+00 0. -1.
         22    1    3    3    0    0 -0.73765731895E+01 -0.12064280834E+02  0.12524562682E+02  0.18889821980E+02  0.00000000000E+00 0. -1.
</event>
<event>
 7    1  0.5593520E-006  0.7915556E+02  0.7818608E-02  0.1434354E+00
          2   -1    0    0  502    0  0.00000000000E+00  0.00000000000E+00  0.55444193986E+03  0.55444193986E+03  0.00000000000E+00 0. -1.
          1   -1    0    0  501    0 -0.00000000000E+00 -0.00000000000E+00 -0.11001676812E+03  0.11001676812E+03  0.00000000000E+00 0. -1.
         25    2    1    2    0    0 -0.17855735325E+02 -0.82607562753E+02  0.22775214107E+03  0.27320155618E+03  0.12500086332E+03 0.  0.
          2    1    1    2  501    0  0.33922446627E+02  0.49834120514E+01 -0.78481056477E+02  0.85643697997E+02  0.00000000000E+00 0. -1.
          1    1    1    2  502    0 -0.16066711302E+02  0.77624150701E+02  0.29515408715E+03  0.30561345380E+03  0.00000000000E+00 0. -1.
         22    1    3    3    0    0  0.23022311774E+02 -0.23978813810E+02  0.18899637033E+03  0.19189746832E+03  0.00000000000E+00 0.  1.
         22    1    3    3    0    0 -0.40878047100E+02 -0.58628748942E+02  0.38755770745E+02  0.81304087863E+02  0.00000000000E+00 0.  1.
</event>
<event>
 7    1  0.5593520E-006  0.6448056E+02  0.7818608E-02  0.1473210E+00
          2   -1    0    0  502    0  0.00000000000E+00  0.00000000000E+00  0.73572551402E+03  0.73572551402E+03  0.00000000000E+00 0. -1.
          1   -1    0    0  501    0 -0.00000000000E+00 -0.00000000000E+00 -0.24122726082E+03  0.24122726082E+03  0.00000000000E+00 0. -1.
         25    2    1    2    0    0  0.62999642859E+01  0.36258148939E+02  0.14970784283E+02  0.13116262916E+03  0.12500067197E+03 0.  0.
          2    1    1    2  501    0 -0.24361710741E+02 -0.62259555500E+02 -0.17663510780E+03  0.18886425419E+03  0.00000000000E+00 0. -1.
          1    1    1    2  502    0  0.18061746455E+02  0.26001406561E+02  0.65616257672E+03  0.65692589149E+03  0.00000000000E+00 0. -1.
         22    1    3    3    0    0 -0.30100860386E+02  0.41638640787E+01  0.58532257090E+02  0.65950168158E+02  0.00000000000E+00 0. -1.
         22    1    3    3    0    0  0.36400824672E+02  0.32094284861E+02 -0.43561472806E+02  0.65212461007E+02  0.00000000000E+00 0. -1.
</event>
<event>
 7    1  0.5593520E-006  0.4172382E+02  0.7818608E-02  0.1496244E+00
          2   -1    0    0  502    0  0.00000000000E+00  0.00000000000E+00  0.67267315392E+03  0.67267315392E+03  0.00000000000E+00 0. -1.
          1   -1    0    0  501    0 -0.00000000000E+00 -0.00000000000E+00 -0.16574355711E+03  0.16574355711E+03  0.00000000000E+00 0. -1.
         25    2    1    2    0    0  0.12776004679E+02  0.65412495512E+01  0.28484784123E+03  0.31140002139E+03  0.12500266567E+03 0.  0.
          2    1    1    2  501    0  0.22802687851E+02 -0.34821994274E+02 -0.14821112770E+03  0.15394502991E+03  0.00000000000E+00 0. -1.
          1    1    1    2  502    0 -0.35578692529E+02  0.28280744722E+02  0.37029288329E+03  0.37307165974E+03  0.00000000000E+00 0. -1.
         22    1    3    3    0    0  0.65463047855E+02 -0.15629461973E+02  0.13102883456E+03  0.14730324572E+03  0.00000000000E+00 0.  1.
         22    1    3    3    0    0 -0.52687043176E+02  0.22170711525E+02  0.15381900668E+03  0.16409677566E+03  0.00000000000E+00 0.  1.
</event>
<event>
 7    1  0.5593520E-006  0.1712562E+03  0.7818608E-02  0.1346741E+00
          2   -1    0    0  502    0  0.00000000000E+00  0.00000000000E+00  0.76171339052E+03  0.76171339052E+03  0.00000000000E+00 0. -1.
          1   -1    0    0  501    0 -0.00000000000E+00 -0.00000000000E+00 -0.39892341617E+03  0.39892341617E+03  0.00000000000E+00 0. -1.
         25    2    1    2    0    0  0.99303550283E+02 -0.15566650187E+03  0.69138114476E+02  0.23344522737E+03  0.12499336144E+03 0.  0.
          2    1    1    2  501    0 -0.11278650970E+03  0.12659566653E+03 -0.29361388851E+03  0.33905217162E+03  0.00000000000E+00 0. -1.
          1    1    1    2  502    0  0.13482959418E+02  0.29070835336E+02  0.58726574838E+03  0.58813940770E+03  0.00000000000E+00 0. -1.
         22    1    3    3    0    0  0.40013717878E+01 -0.29571468957E+02  0.69229219037E+02  0.75386786117E+02  0.00000000000E+00 0.  1.
         22    1    3    3    0    0  0.95302178495E+02 -0.12609503291E+03 -0.91104561598E-01  0.15805844125E+03  0.00000000000E+00 0.  1.
</event>
<event>
 7    1  0.5593520E-006  0.6669671E+02  0.7818608E-02  0.1475657E+00
          2   -1    0    0  502    0  0.00000000000E+00  0.00000000000E+00  0.71118608241E+03  0.71118608241E+03  0.00000000000E+00 0. -1.
          1   -1    0    0  501    0 -0.00000000000E+00 -0.00000000000E+00 -0.73551677124E+03  0.73551677124E+03  0.00000000000E+00 0. -1.
         25    2    1    2    0    0 -0.16740311982E+01 -0.40984633673E+02  0.14412775463E+02  0.13234467918E+03  0.12499937373E+03 0.  0.
          2    1    1    2  501    0 -0.19051517441E+02 -0.23275712533E+02 -0.67442772262E+03  0.67509812039E+03  0.00000000000E+00 0. -1.
          1    1    1    2  502    0  0.20725548639E+02  0.64260346206E+02  0.63568425833E+03  0.63926005408E+03  0.00000000000E+00 0. -1.
         22    1    3    3    0    0 -0.55827550049E+02  0.72087399048E+01 -0.70759474477E+01  0.56734031302E+02  0.00000000000E+00 0.  1.
         22    1    3    3    0    0  0.54153518851E+02 -0.48193373578E+02  0.21488722911E+02  0.75610647882E+02  0.00000000000E+00 0.  1.
</event>
<event>
 7    1  0.5593520E-006  0.3395580E+02  0.7818608E-02  0.1561050E+00
          2   -1    0    0  502    0  0.00000000000E+00  0.00000000000E+00  0.87429137200E+03  0.87429137200E+03  0.00000000000E+00 0. -1.
          1   -1    0    0  501    0 -0.00000000000E+00 -0.00000000000E+00 -0.42531542740E+03  0.42531542740E+03  0.00000000000E+00 0. -1.
         25    2    1    2    0    0  0.22904097202E+02  0.61581493099E+01  0.24681608237E+03  0.27768059875E+03  0.12500326369E+03 0.  0.
          2    1    1    2  501    0 -0.17764091314E+02  0.28190630368E+02 -0.40871189925E+03  0.41006791043E+03  0.00000000000E+00 0. -1.
          1    1    1    2  502    0 -0.51400058883E+01 -0.34348779678E+02  0.61087176148E+03  0.61185829021E+03  0.00000000000E+00 0. -1.
         22    1    3    3    0    0 -0.10382777211E+02  0.43700543242E+02  0.21176399252E+03  0.21647523662E+03  0.00000000000E+00 0. -1.
         22    1    3    3    0    0  0.33286874413E+02 -0.37542393932E+02  0.35052089852E+02  0.61205362129E+02  0.00000000000E+00 0. -1.
</event>
<event>
 7    1  0.5593520E-006  0.9015864E+02  0.7818608E-02  0.1458775E+00
          2   -1    0    0  502    0  0.00000000000E+00  0.00000000000E+00  0.62220369894E+03  0.62220369894E+03  0.00000000000E+00 0. -1.
          1   -1    0    0  501    0 -0.00000000000E+00 -0.00000000000E+00 -0.81198792931E+03  0.81198792931E+03  0.00000000000E+00 0. -1.
         25    2    1    2    0    0 -0.79304499427E+02  0.36453237202E+02 -0.85400176905E+01  0.15269596827E+03  0.12500033877E+03 0.  0.
          2    1    1    2  501    0  0.89393350979E+02 -0.13444698431E+02 -0.72828717244E+03  0.73387610443E+03  0.00000000000E+00 0. -1.
          1    1    1    2  502    0 -0.10088851553E+02 -0.23008538771E+02  0.54704295976E+03  0.54761955554E+03  0.00000000000E+00 0. -1.
         22    1    3    3    0    0 -0.57292048998E+02  0.89980096794E+01 -0.64407168782E+02  0.86669639708E+02  0.00000000000E+00 0. -1.
         22    1    3    3    0    0 -0.22012450428E+02  0.27455227522E+02  0.55867151091E+02  0.66026328561E+02  0.00000000000E+00 0. -1.
</event>
<event>
 7    1  0.5593520E-006  0.4413675E+02  0.7818608E-02  0.1537066E+00
          2   -1    0    0  502    0  0.00000000000E+00  0.00000000000E+00  0.48948275521E+02  0.48948275521E+02  0.00000000000E+00 0. -1.
          1   -1    0    0  501    0 -0.00000000000E+00 -0.00000000000E+00 -0.14191178105E+04  0.14191178105E+04  0.00000000000E+00 0. -1.
         25    2    1    2    0    0  0.56449988999E+01 -0.18348963183E+02 -0.11019898262E+04  0.11092229622E+04  0.12500180909E+03 0.  0.
          2    1    1    2  501    0 -0.17044827234E+02 -0.24578386647E+02 -0.30171220288E+03  0.30319115520E+03  0.00000000000E+00 0. -1.
          1    1    1    2  502    0  0.11399828334E+02  0.42927349831E+02  0.33532494130E+02  0.55651968628E+02  0.00000000000E+00 0. -1.
         22    1    3    3    0    0 -0.32509256442E+02 -0.51523867472E+02 -0.32980835261E+03  0.33538799938E+03  0.00000000000E+00 0.  1.
         22    1    3    3    0    0  0.38154255342E+02  0.33174904289E+02 -0.77218147358E+03  0.77383496278E+03  0.00000000000E+00 0.  1.
</event>
<event>
 7    1  0.5593520E-006  0.1130316E+03  0.7818608E-02  0.1268182E+00
          2   -1    0    0  502    0  0.00000000000E+00  0.00000000000E+00  0.50013003186E+03  0.50013003186E+03  0.00000000000E+00 0. -1.
          1   -1    0    0  501    0 -0.00000000000E+00 -0.00000000000E+00 -0.24499781218E+03  0.24499781218E+03  0.00000000000E+00 0. -1.
         25    2    1    2    0    0  0.18332060257E+02  0.45859005193E+02 -0.76823939384E+02  0.15480356643E+03  0.12499245467E+03 0.  0.
          2    1    1    2  501    0 -0.83879181939E+02  0.53309830118E+02 -0.10078908398E+03  0.14154891239E+03  0.00000000000E+00 0. -1.
          1    1    1    2  502    0  0.65547121682E+02 -0.99168835311E+02  0.43274524304E+03  0.44877536522E+03  0.00000000000E+00 0. -1.
         22    1    3    3    0    0  0.41771265140E+02 -0.24320890340E+02 -0.26923242587E+00  0.48336495368E+02  0.00000000000E+00 0.  1.
         22    1    3    3    0    0 -0.23439204883E+02  0.70179895534E+02 -0.76554706958E+02  0.10646707106E+03  0.00000000000E+00 0.  1.
</event>
<event>
 7    1  0.5593520E-006  0.1471134E+03  0.7818608E-02  0.1246156E+00
          2   -1    0    0  502    0  0.00000000000E+00  0.00000000000E+00  0.14395341542E+04  0.14395341542E+04  0.00000000000E+00 0. -1.
          1   -1    0    0  501    0 -0.00000000000E+00 -0.00000000000E+00 -0.13520831956E+03  0.13520831956E+03  0.00000000000E+00 0. -1.
         25    2    1    2    0    0  0.16346047189E+03  0.45845406083E+02  0.72229081356E+01  0.21094420826E+03  0.12499664582E+03 0.  0.
          2    1    1    2  501    0 -0.67917831504E+02  0.66297959170E+02  0.48596327863E+02  0.10662951893E+03  0.00000000000E+00 0. -1.
          1    1    1    2  502    0 -0.95542640383E+02 -0.11214336525E+03  0.12485065987E+04  0.12571687466E+04  0.00000000000E+00 0. -1.
         22    1    3    3    0    0  0.12659696800E+03  0.88394157099E+02  0.84502601463E+01  0.15463416897E+03  0.00000000000E+00 0. -1.
         22    1    3    3    0    0  0.36863503886E+02 -0.42548751016E+02 -0.12273520107E+01  0.56310039289E+02  0.00000000000E+00 0. -1.
</event>
<event>
 7    1  0.5593520E-006  0.1019230E+03  0.7818608E-02  0.1322287E+00
          2   -1    0    0  502    0  0.00000000000E+00  0.00000000000E+00  0.37719217449E+03  0.37719217449E+03  0.00000000000E+00 0. -1.
          1   -1    0    0  501    0 -0.00000000000E+00 -0.00000000000E+00 -0.65379913833E+03  0.65379913833E+03  0.00000000000E+00 0. -1.
         25    2    1    2    0    0  0.51414193679E+02 -0.14938437655E+02 -0.11183556316E+03  0.17606673504E+03  0.12500290305E+03 0.  0.
          2    1    1    2  501    0  0.49334439629E+02  0.44843023740E+02 -0.49958033043E+03  0.50400921645E+03  0.00000000000E+00 0. -1.
          1    1    1    2  502    0 -0.10074863331E+03 -0.29904586085E+02  0.33480892974E+03  0.35091536133E+03  0.00000000000E+00 0. -1.
         22    1    3    3    0    0  0.57610989247E+02 -0.60834882655E+02 -0.95292233909E+02  0.12688782003E+03  0.00000000000E+00 0.  1.
         22    1    3    3    0    0 -0.61967955673E+01  0.45896445000E+02 -0.16543329246E+02  0.49178915009E+02  0.00000000000E+00 0.  1.
</event>
<event>
 7    1  0.5593520E-006  0.8148269E+02  0.7818608E-02  0.1494654E+00
          2   -1    0    0  502    0  0.00000000000E+00  0.00000000000E+00  0.38506671678E+03  0.38506671678E+03  0.00000000000E+00 0. -1.
          1   -1    0    0  501    0 -0.00000000000E+00 -0.00000000000E+00 -0.93440939250E+03  0.93440939250E+03  0.00000000000E+00 0. -1.
         25    2    1    2    0    0  0.62577392321E+02 -0.45949371179E+02 -0.28208421939E+03  0.31815602808E+03  0.12499790653E+03 0.  0.
          2    1    1    2  501    0 -0.51424717853E+02  0.64388209625E+02 -0.63129293632E+03  0.63664834453E+03  0.00000000000E+00 0. -1.
          1    1    1    2  502    0 -0.11152674468E+02 -0.18438838446E+02  0.36403447999E+03  0.36467173667E+03  0.00000000000E+00 0. -1.
         22    1    3    3    0    0  0.76629881294E+02  0.17642492301E+02 -0.11991205812E+03  0.14339559939E+03  0.00000000000E+00 0.  1.
         22    1    3    3    0    0 -0.14052488973E+02 -0.63591863480E+02 -0.16217216127E+03  0.17476042870E+03  0.00000000000E+00 0.  1.
</event>
<event>
 7    1  0.5593520E-006  0.4065235E+02  0.7818608E-02  0.1521176E+00
          2   -1    0    0  502    0  0.00000000000E+00  0.00000000000E+00  0.55507680922E+03  0.55507680922E+03  0.00000000000E+00 0. -1.
          1   -1    0    0  501    0 -0.00000000000E+00 -0.00000000000E+00 -0.40751913209E+03  0.40751913209E+03  0.00000000000E+00 0. -1.
         25    2    1    2    0    0 -0.24844486077E+02  0.15904130124E+02  0.24047164845E+03  0.27261978387E+03  0.12499897201E+03 0.  0.
          2    1    1    2  501    0 -0.13122888389E+01 -0.40737068287E+02 -0.38928785915E+03  0.39141572288E+03  0.00000000000E+00 0. -1.
          1    1    1    2  502    0  0.26156774916E+02  0.24832938162E+02  0.29637388783E+03  0.29856043455E+03  0.00000000000E+00 0. -1.
         22    1    3    3    0    0  0.52491532064E+01  0.17138777439E+02  0.24180776443E+03  0.24247120704E+03  0.00000000000E+00 0.  1.
         22    1    3    3    0    0 -0.30093639284E+02 -0.12346473142E+01 -0.13361159785E+01  0.30148576836E+02  0.00000000000E+00 0.  1.
</event>
<event>
 7    1  0.5593520E-006  0.6872760E+02  0.7818608E-02  0.1400502E+00
          2   -1    0    0  502    0  0.00000000000E+00  0.00000000000E+00  0.10654174383E+03  0.10654174383E+03  0.00000000000E+00 0. -1.
          1   -1    0    0  501    0 -0.00000000000E+00 -0.00000000000E+00 -0.87861201717E+03  0.87861201717E+03  0.00000000000E+00 0. -1.
         25    2    1    2    0    0 -0.31787500684E+02  0.47801171295E+02 -0.51264715342E+03  0.53078079213E+03  0.12500299279E+03 0.  0.
          2    1    1    2  501    0 -0.36613164556E+02 -0.35909491067E+02 -0.34237893842E+03  0.34619842987E+03  0.00000000000E+00 0. -1.
          1    1    1    2  502    0  0.68400665240E+02 -0.11891680229E+02  0.82955818505E+02  0.10817453900E+03  0.00000000000E+00 0. -1.
         22    1    3    3    0    0 -0.62855072856E+01  0.69781870492E+01 -0.45744121087E+03  0.45753760949E+03  0.00000000000E+00 0.  1.
         22    1    3    3    0    0 -0.25501993398E+02  0.40822984246E+02 -0.55205942552E+02  0.73243182639E+02  0.00000000000E+00 0.  1.
</event>
<event>
 7    1  0.5593520E-006  0.7924179E+02  0.7818608E-02  0.1427290E+00
          2   -1    0    0  502    0  0.00000000000E+00  0.00000000000E+00  0.23924803418E+04  0.23924803418E+04  0.00000000000E+00 0. -1.
          1   -1    0    0  501    0 -0.00000000000E+00 -0.00000000000E+00 -0.17203139479E+02  0.17203139479E+02  0.00000000000E+00 0. -1.
         25    2    1    2    0    0 -0.83654308409E+02  0.19224104073E+02  0.52153709045E+03  0.54313408586E+03  0.12500435599E+03 0.  0.
          2    1    1    2  501    0  0.76947340235E+02  0.16278967511E+02  0.24314761594E+03  0.25555167988E+03  0.00000000000E+00 0. -1.
          1    1    1    2  502    0  0.67069681737E+01 -0.35503071584E+02  0.16105924960E+04  0.16109977156E+04  0.00000000000E+00 0. -1.
         22    1    3    3    0    0 -0.54960888098E+02 -0.20891503410E+02  0.46242590251E+03  0.46614897774E+03  0.00000000000E+00 0. -1.
         22    1    3    3    0    0 -0.28693420311E+02  0.40115607483E+02  0.59111187940E+02  0.76985108122E+02  0.00000000000E+00 0. -1.
</event>
<event>
 7    1  0.5593520E-006  0.1383595E+03  0.7818608E-02  0.1310763E+00
          2   -1    0    0  502    0  0.00000000000E+00  0.00000000000E+00  0.97060376375E+02  0.97060376375E+02  0.00000000000E+00 0. -1.
          1   -1    0    0  501    0 -0.00000000000E+00 -0.00000000000E+00 -0.14987135593E+04  0.14987135593E+04  0.00000000000E+00 0. -1.
         25    2    1    2    0    0 -0.48458751884E+02  0.72707115423E+02 -0.54704184070E+02  0.16202473562E+03  0.12499956773E+03 0.  0.
          2    1    1    2  501    0  0.78449554278E+02 -0.11817468372E+03 -0.13680154377E+04  0.13753493470E+04  0.00000000000E+00 0. -1.
          1    1    1    2  502    0 -0.29990802394E+02  0.45467568298E+02  0.21066438836E+02  0.58399853085E+02  0.00000000000E+00 0. -1.
         22    1    3    3    0    0 -0.89806063505E+02  0.63334520851E+02 -0.43354648241E+02  0.11813558354E+03  0.00000000000E+00 0. -1.
         22    1    3    3    0    0  0.41347311621E+02  0.93725945725E+01 -0.11349535830E+02  0.43889152086E+02  0.00000000000E+00 0. -1.
</event>
<event>
 7    1  0.5593520E-006  0.5030184E+02  0.7818608E-02  0.1541784E+00
          2   -1    0    0  502    0  0.00000000000E+00  0.00000000000E+00  0.20509339845E+04  0.20509339845E+04  0.00000000000E+00 0. -1.
          1   -1    0    0  501    0 -0.00000000000E+00 -0.00000000000E+00 -0.21911472824E+02  0.21911472824E+02  0.00000000000E+00 0. -1.
         25    2    1    2    0    0  0.28125320172E+02  0.27464726709E+01  0.51994115120E+03  0.53550172958E+03  0.12499889971E+03 0.  0.
          2    1    1    2  501    0  0.20107148456E+02  0.15601646949E+02 -0.18631478662E+01  0.25518231258E+02  0.00000000000E+00 0. -1.
          1    1    1    2  502    0 -0.48232468628E+02 -0.18348119620E+02  0.15109445084E+04  0.15118254965E+04  0.00000000000E+00 0. -1.
         22    1    3    3    0    0  0.75878356517E+02 -0.74204188746E+00  0.24701795326E+03  0.25841041939E+03  0.00000000000E+00 0. -1.
         22    1    3    3    0    0 -0.47753036346E+02  0.34885145583E+01  0.27292319793E+03  0.27709131019E+03  0.00000000000E+00 0. -1.
</event>
<event>
 7    1  0.5593520E-006  0.1011917E+03  0.7818608E-02  0.1361435E+00
          2   -1    0    0  502    0  0.00000000000E+00  0.00000000000E+00  0.30730812290E+03  0.30730812290E+03  0.00000000000E+00 0. -1.
          1   -1    0    0  501    0 -0.00000000000E+00 -0.00000000000E+00 -0.28724409515E+03  0.28724409515E+03  0.00000000000E+00 0. -1.
         25    2    1    2    0    0  0.64576226491E+02 -0.99842769553E+02  0.15733955234E+03  0.23349202721E+03  0.12499649748E+03 0.  0.
          2    1    1    2  501    0 -0.16698134530E+02  0.99343395041E+02 -0.23310174495E+03  0.25393771152E+03  0.00000000000E+00 0. -1.
          1    1    1    2  502    0 -0.47878091961E+02  0.49937451208E+00  0.95826220366E+02  0.10712247931E+03  0.00000000000E+00 0. -1.
         22    1    3    3    0    0  0.15902762361E+01 -0.60231397389E+02  0.14636395451E+03  0.15828062859E+03  0.00000000000E+00 0. -1.
         22    1    3    3    0    0  0.62985950255E+02 -0.39611372164E+02  0.10975597831E+02  0.75211398618E+02  0.00000000000E+00 0. -1.
</event>
<event>
 7    1  0.5593520E-006  0.2132162E+03  0.7818608E-02  0.1354999E+00
          2   -1    0    0  502    0  0.00000000000E+00  0.00000000000E+00  0.31777894025E+04  0.31777894025E+04  0.00000000000E+00 0. -1.
          1   -1    0    0  501    0 -0.00000000000E+00 -0.00000000000E+00 -0.13417994282E+03  0.13417994282E+03  0.00000000000E+00 0. -1.
         25    2    1    2    0    0  0.18603761594E+03 -0.14473792601E+03  0.13795515797E+04  0.14051141535E+04  0.12499664642E+03 0.  0.
          2    1    1    2  501    0 -0.16737537252E+03  0.12966288132E+03 -0.28935423915E+02  0.21369192047E+03  0.00000000000E+00 0. -1.
          1    1    1    2  502    0 -0.18662243420E+02  0.15075044690E+02  0.16929933039E+04  0.16931632713E+04  0.00000000000E+00 0. -1.
         22    1    3    3    0    0  0.47131867567E+01 -0.70567940710E+02  0.38843445485E+03  0.39482068601E+03  0.00000000000E+00 0.  1.
         22    1    3    3    0    0  0.18132442918E+03 -0.74169985303E+02  0.99111712482E+03  0.10102934675E+04  0.00000000000E+00 0.  1.
</event>
<event>
 7    1  0.5593520E-006  0.1418072E+03  0.7818608E-02  0.1269000E+00
          2   -1    0    0  502    0  0.00000000000E+00  0.00000000000E+00  0.95095146758E+03  0.95095146758E+03  0.00000000000E+00 0. -1.
          1   -1    0    0  501    0 -0.00000000000E+00 -0.00000000000E+00 -0.25664043127E+04  0.25664043127E+04  0.00000000000E+00 0. -1.
         25    2    1    2    0    0 -0.21521464126E+03 -0.33539110985E+02  0.39880489420E+03  0.47128663646E+03  0.12499414502E+03 0.  0.
          2    1    1    2  501    0  0.14130240405E+03  0.68198744951E+01 -0.25251788813E+04  0.25291384428E+04  0.00000000000E+00 0. -1.
          1    1    1    2  502    0  0.73912237213E+02  0.26719236490E+02  0.51092114197E+03  0.51693070108E+03  0.00000000000E+00 0. -1.
         22    1    3    3    0    0  0.12705198292E+02  0.12366675976E+02  0.19143033720E+02  0.26092383531E+02  0.00000000000E+00 0. -1.
         22    1    3    3    0    0 -0.22791983955E+03 -0.45905786960E+02  0.37966186048E+03  0.44519425293E+03  0.00000000000E+00 0. -1.
</event>
<event>
 7    1  0.5593520E-006  0.2748944E+02  0.7818608E-02  0.1661048E+00
          2   -1    0    0  502    0  0.00000000000E+00  0.00000000000E+00  0.52373914452E+02  0.52373914452E+02  0.00000000000E+00 0. -1.
          1   -1    0    0  501    0 -0.00000000000E+00 -0.00000000000E+00 -0.14065279228E+04  0.14065279228E+04  0.00000000000E+00 0. -1.
         25    2    1    2    0    0  0.17114122744E+01  0.18545534535E+02 -0.61130452841E+03  0.62423587055E+03  0.12502131758E+03 0.  0.
          2    1    1    2  501    0  0.21018281333E+02 -0.18685816621E+02 -0.78567708945E+03  0.78618026990E+03  0.00000000000E+00 0. -1.
          1    1    1    2  502    0 -0.22729693608E+02  0.14028208616E+00  0.42827609550E+02  0.48485696761E+02  0.00000000000E+00 0. -1.
         22    1    3    3    0    0  0.29734592834E+01 -0.53345152478E+02 -0.30147201612E+03  0.30616976215E+03  0.00000000000E+00 0.  1.
         22    1    3    3    0    0 -0.12620470090E+01  0.71890687013E+02 -0.30983251229E+03  0.31806610841E+03  0.00000000000E+00 0.  1.
</event>
<event>
 7    1  0.5593520E-006  0.7769135E+02  0.7818608E-02  0.1473589E+00
          2   -1    0    0  502    0  0.00000000000E+00  0.00000000000E+00  0.23409175470E+03  0.23409175470E+03  0.00000000000E+00 0. -1.
          1   -1    0    0  501    0 -0.00000000000E+00 -0.00000000000E+00 -0.37816119034E+03  0.37816119034E+03  0.00000000000E+00 0. -1.
         25    2    1    2    0    0  0.24538276677E+02 -0.10019802960E+03  0.11385952824E+03  0.19806834029E+03  0.12500121239E+03 0.  0.
          2    1    1    2  501    0 -0.18990086827E+02  0.74587331694E+02 -0.32928945247E+03  0.33816480739E+03  0.00000000000E+00 0. -1.
          1    1    1    2  502    0 -0.55481898498E+01  0.25610697904E+02  0.71360488596E+02  0.76019797358E+02  0.00000000000E+00 0. -1.
         22    1    3    3    0    0  0.45301006481E+02 -0.42630866543E+02  0.12139914743E+03  0.13640866896E+03  0.00000000000E+00 0.  1.
         22    1    3    3    0    0 -0.20762729804E+02 -0.57567163055E+02 -0.75396191981E+01  0.61659671332E+02  0.00000000000E+00 0.  1.
</event>
<event>
 7    1  0.5593520E-006  0.2105391E+03  0.7818608E-02  0.1239678E+00
          2   -1    0    0  502    0  0.00000000000E+00  0.00000000000E+00  0.27615257995E+04  0.27615257995E+04  0.00000000000E+00 0. -1.
          1   -1    0    0  501    0 -0.00000000000E+00 -0.00000000000E+00 -0.88276006911E+02  0.88276006911E+02  0.00000000000E+00 0. -1.
         25    2    1    2    0    0 -0.20748019949E+03  0.18219649531E+03  0.17815016326E+04  0.18071017202E+04  0.12499985540E+03 0.  0.
          2    1    1    2  501    0  0.15346153304E+03 -0.13641870214E+03  0.68562464626E+02  0.21647474673E+03  0.00000000000E+00 0. -1.
          1    1    1    2  502    0  0.54018666452E+02 -0.45777793169E+02  0.82318569537E+03  0.82622533957E+03  0.00000000000E+00 0. -1.
         22    1    3    3    0    0 -0.49608669632E+02  0.11519991504E+03  0.57881169085E+03  0.59224573784E+03  0.00000000000E+00 0. -1.
         22    1    3    3    0    0 -0.15787152986E+03  0.66996580268E+02  0.12026899418E+04  0.12148559823E+04  0.00000000000E+00 0. -1.
</event>
<event>
 7    1  0.5593520E-006  0.4808361E+02  0.7818608E-02  0.1543307E+00
          2   -1    0    0  502    0  0.00000000000E+00  0.00000000000E+00  0.43382367023E+03  0.43382367023E+03  0.00000000000E+00 0. -1.
          1   -1    0    0  501    0 -0.00000000000E+00 -0.00000000000E+00 -0.21661852442E+03  0.21661852442E+03  0.00000000000E+00 0. -1.
         25    2    1    2    0    0  0.23061903545E+02  0.52028549831E+00 -0.11229356761E+01  0.12711707791E+03  0.12500147367E+03 0.  0.
          2    1    1    2  501    0  0.24645126276E+02  0.93592027359E+01 -0.14974191094E+03  0.15204478557E+03  0.00000000000E+00 0. -1.
          1    1    1    2  502    0 -0.47707029820E+02 -0.98794882342E+01  0.36806999244E+03  0.37128033117E+03  0.00000000000E+00 0. -1.
         22    1    3    3    0    0  0.66451313554E+02 -0.30720171965E+02  0.45566352329E+01  0.73350316722E+02  0.00000000000E+00 0.  1.
         22    1    3    3    0    0 -0.43389410009E+02  0.31240457463E+02 -0.56795709090E+01  0.53766761193E+02  0.00000000000E+00 0.  1.
</event>
<event>
 7    1  0.5593520E-006  0.8811246E+02  0.7818608E-02  0.1329244E+00
          2   -1    0    0  502    0  0.00000000000E+00  0.00000000000E+00  0.21923090409E+04  0.21923090409E+04  0.00000000000E+00 0. -1.
          1   -1    0    0  501    0 -0.00000000000E+00 -0.00000000000E+00 -0.17764126239E+03  0.17764126239E+03  0.00000000000E+00 0. -1.
         25    2    1    2    0    0  0.60533975083E+02 -0.94289658329E+02  0.93321803526E+02  0.19206467896E+03  0.12499992034E+03 0.  0.
          2    1    1    2  501    0 -0.84237336150E+02  0.25762036523E+02 -0.11242353126E+03  0.14282388354E+03  0.00000000000E+00 0. -1.
          1    1    1    2  502    0  0.23703361067E+02  0.68527621806E+02  0.20337695063E+04  0.20350617408E+04  0.00000000000E+00 0. -1.
         22    1    3    3    0    0  0.74834676996E+02 -0.11821475437E+03  0.75513997688E+02  0.15898843001E+03  0.00000000000E+00 0. -1.
         22    1    3    3    0    0 -0.14300701913E+02  0.23925096040E+02  0.17807805837E+02  0.33076248948E+02  0.00000000000E+00 0. -1.
</event>
<event>
 7    1  0.5593520E-006  0.2053423E+03  0.7818608E-02  0.1215943E+00
          2   -1    0    0  502    0  0.00000000000E+00  0.00000000000E+00  0.10872520858E+04  0.10872520858E+04  0.00000000000E+00 0. -1.
          1   -1    0    0  501    0 -0.00000000000E+00 -0.00000000000E+00 -0.15377762149E+04  0.15377762149E+04  0.00000000000E+00 0. -1.
         25    2    1    2    0    0 -0.90137014665E+02 -0.23671127054E+03 -0.48727162695E+03  0.56321894133E+03  0.12500012171E+03 0.  0.
          2    1    1    2  501    0  0.87147862828E+02  0.32019409619E+02 -0.10003759805E+04  0.10046751191E+04  0.00000000000E+00 0. -1.
          1    1    1    2  502    0  0.29891518369E+01  0.20469186092E+03  0.10371234783E+04  0.10571342404E+04  0.00000000000E+00 0. -1.
         22    1    3    3    0    0 -0.10327455537E+03 -0.21963668238E+03 -0.48397825557E+03  0.54142484049E+03  0.00000000000E+00 0. -1.
         22    1    3    3    0    0  0.13137540701E+02 -0.17074588157E+02 -0.32933713816E+01  0.21794100841E+02  0.00000000000E+00 0. -1.
</event>
<event>
 7    1  0.5593520E-006  0.5887365E+02  0.7818608E-02  0.1449422E+00
          2   -1    0    0  502    0  0.00000000000E+00  0.00000000000E+00  0.96858881361E+03  0.96858881361E+03  0.00000000000E+00 0. -1.
          1   -1    0    0  501    0 -0.00000000000E+00 -0.00000000000E+00 -0.11262430929E+04  0.11262430929E+04  0.00000000000E+00 0. -1.
         25    2    1    2    0    0  0.42878192847E+02 -0.80943665839E+02  0.39330151590E+02  0.15988012445E+03  0.12499750761E+03 0.  0.
          2    1    1    2  501    0 -0.43131869882E+02  0.39742819809E+02 -0.10646721600E+04  0.10662863866E+04  0.00000000000E+00 0. -1.
          1    1    1    2  502    0  0.25367703508E+00  0.41200846029E+02  0.86768772912E+03  0.86866539549E+03  0.00000000000E+00 0. -1.
         22    1    3    3    0    0  0.67196491098E+02 -0.17532102726E+02 -0.17168859240E+02  0.71536793117E+02  0.00000000000E+00 0. -1.
         22    1    3    3    0    0 -0.24318298251E+02 -0.63411563113E+02  0.56499010830E+02  0.88343331333E+02  0.00000000000E+00 0. -1.
</event>
<event>
 7    1  0.5593520E-006  0.6570097E+02  0.7818608E-02  0.1388209E+00
          2   -1    0    0  502    0  0.00000000000E+00  0.00000000000E+00  0.83316142942E+03  0.83316142942E+03  0.00000000000E+00 0. -1.
          1   -1    0    0  501    0 -0.00000000000E+00 -0.00000000000E+00 -0.21831750259E+03  0.21831750259E+03  0.00000000000E+00 0. -1.
         25    2    1    2    0    0 -0.91027908292E+02  0.31355344881E+02  0.71835706418E+02  0.17336404818E+03  0.12500194696E+03 0.  0.
          2    1    1    2  501    0  0.54575874572E+02  0.22881084678E+02 -0.16076670339E+03  0.17131258868E+03  0.00000000000E+00 0. -1.
          1    1    1    2  502    0  0.36452033720E+02 -0.54236429559E+02  0.70377492380E+03  0.70680229515E+03  0.00000000000E+00 0. -1.
         22    1    3    3    0    0 -0.47753276291E+02  0.23382388851E+02  0.10537950799E+03  0.11803369099E+03  0.00000000000E+00 0.  1.
         22    1    3    3    0    0 -0.43274632001E+02  0.79729560304E+01 -0.33543801571E+02  0.55330357188E+02  0.00000000000E+00 0.  1.
</event>
<event>
 7    1  0.5593520E-006  0.4262390E+02  0.7818608E-02  0.1545121E+00
          2   -1    0    0  502    0  0.00000000000E+00  0.00000000000E+00  0.38054377564E+03  0.38054377564E+03  0.00000000000E+00 0. -1.
          1   -1    0    0  501    0 -0.00000000000E+00 -0.00000000000E+00 -0.28749489572E+03  0.28749489572E+03  0.00000000000E+00 0. -1.
         25    2    1    2    0    0  0.40495185825E+02 -0.19344909738E+02 -0.22303646482E+03  0.25958084865E+03  0.12499146666E+03 0.  0.
          2    1    1    2  501    0 -0.22239494260E+02 -0.19216978731E+02 -0.40104525152E+02  0.49721829353E+02  0.00000000000E+00 0. -1.
          1    1    1    2  502    0 -0.18255691565E+02  0.38561888469E+02  0.35618986989E+03  0.35873599336E+03  0.00000000000E+00 0. -1.
         22    1    3    3    0    0 -0.27717765971E+02  0.34819432711E+02 -0.92541349369E+02  0.10268675079E+03  0.00000000000E+00 0.  1.
         22    1    3    3    0    0  0.68212951796E+02 -0.54164342449E+02 -0.13049511545E+03  0.15689409786E+03  0.00000000000E+00 0.  1.
</event>
<event>
 7    1  0.5593520E-006  0.3639392E+02  0.7818608E-02  0.1577196E+00
          2   -1    0    0  502    0  0.00000000000E+00  0.00000000000E+00  0.38236207796E+03  0.38236207796E+03  0.00000000000E+00 0. -1.
          1   -1    0    0  501    0 -0.00000000000E+00 -0.00000000000E+00 -0.59021628826E+02  0.59021628826E+02  0.00000000000E+00 0. -1.
         25    2    1    2    0    0  0.15265431710E+02  0.14007965201E+01  0.21280228132E+03  0.24727531251E+03  0.12500109443E+03 0.  0.
          2    1    1    2  501    0 -0.29581768292E+02  0.22777270834E+02 -0.31788465315E+02  0.49034596042E+02  0.00000000000E+00 0. -1.
          1    1    1    2  502    0  0.14316336583E+02 -0.24178067354E+02  0.14232663313E+03  0.14507379823E+03  0.00000000000E+00 0. -1.
         22    1    3    3    0    0  0.17272157352E+02 -0.52401336841E+02  0.45475359285E+02  0.71499900870E+02  0.00000000000E+00 0.  1.
         22    1    3    3    0    0 -0.20067256426E+01  0.53802133361E+02  0.16732692203E+03  0.17577541164E+03  0.00000000000E+00 0.  1.
</event>
<event>
 7    1  0.5593520E-006  0.5962729E+02  0.7818608E-02  0.1510035E+00
          2   -1    0    0  502    0  0.00000000000E+00  0.00000000000E+00  0.20413425637E+04  0.20413425637E+04  0.00000000000E+00 0. -1.
          1   -1    0    0  501    0 -0.00000000000E+00 -0.00000000000E+00 -0.97216603839E+03  0.97216603839E+03  0.00000000000E+00 0. -1.
         25    2    1    2    0    0 -0.29894551172E+02  0.20316349013E+02  0.13259390637E+03  0.18577543884E+03  0.12499972577E+03 0.  0.
          2    1    1    2  501    0 -0.26500726959E+02  0.37096005578E+00 -0.94491012743E+03  0.94528174375E+03  0.00000000000E+00 0. -1.
          1    1    1    2  502    0  0.56395278130E+02 -0.20687309069E+02  0.18814927464E+04  0.18824514195E+04  0.00000000000E+00 0. -1.
         22    1    3    3    0    0  0.41097200654E+02  0.35304833389E+02  0.36340730275E+02  0.65238484342E+02  0.00000000000E+00 0.  1.
         22    1    3    3    0    0 -0.70991751826E+02 -0.14988484376E+02  0.96253176094E+02  0.12053695450E+03  0.00000000000E+00 0.  1.
</event>
<event>
 7    1  0.5593520E-006  0.6877974E+02  0.7818608E-02  0.1368741E+00
          2   -1    0    0  502    0  0.00000000000E+00  0.00000000000E+00  0.34951952682E+03  0.34951952682E+03  0.00000000000E+00 0. -1.
          1   -1    0    0  501    0 -0.00000000000E+00 -0.00000000000E+00 -0.82033275256E+03  0.82033275256E+03  0.00000000000E+00 0. -1.
         25    2    1    2    0    0 -0.57168183460E+02  0.67424250639E+02 -0.75080041060E+02  0.17051887017E+03  0.12500176697E+03 0.  0.
          2    1    1    2  501    0 -0.11851036340E+02 -0.65211974255E+02 -0.69197886608E+03  0.69514588379E+03  0.00000000000E+00 0. -1.
          1    1    1    2  502    0  0.69019219800E+02 -0.22122763836E+01  0.29624568140E+03  0.30418752541E+03  0.00000000000E+00 0. -1.
         22    1    3    3    0    0 -0.93475268924E+02  0.66365854497E+02 -0.68677870957E+02  0.13363645649E+03  0.00000000000E+00 0.  1.
         22    1    3    3    0    0  0.36307085464E+02  0.10583961416E+01 -0.64021701028E+01  0.36882413686E+02  0.00000000000E+00 0.  1.
</event>
<event>
 7    1  0.5593520E-006  0.1065154E+03  0.7818608E-02  0.1324717E+00
          2   -1    0    0  502    0  0.00000000000E+00  0.00000000000E+00  0.16173205665E+04  0.16173205665E+04  0.00000000000E+00 0. -1.
          1   -1    0    0  501    0 -0.00000000000E+00 -0.00000000000E+00 -0.16999440765E+03  0.16999440765E+03  0.00000000000E+00 0. -1.
         25    2    1    2    0    0 -0.38446910740E+02  0.15845396146E+03  0.15645688476E+03  0.25824392643E+03  0.12500138359E+03 0.  0.
          2    1    1    2  501    0  0.21590690360E+02 -0.98340523535E+02 -0.96994796126E+02  0.13980345831E+03  0.00000000000E+00 0. -1.
          1    1    1    2  502    0  0.16856220381E+02 -0.60113437929E+02  0.13878640702E+04  0.13892675894E+04  0.00000000000E+00 0. -1.
         22    1    3    3    0    0  0.36302463333E+01  0.13519000324E+03  0.55045304044E+02  0.14601198978E+03  0.00000000000E+00 0.  1.
         22    1    3    3    0    0 -0.42077157074E+02  0.23263958229E+02  0.10141158072E+03  0.11223193665E+03  0.00000000000E+00 0.  1.
</event>
<event>
 7    1  0.5593520E-006  0.1061016E+03  0.7818608E-02  0.1382494E+00
          2   -1    0    0  502    0  0.00000000000E+00  0.00000000000E+00  0.68895980425E+02  0.68895980425E+02  0.00000000000E+00 0. -1.
          1   -1    0    0  501    0 -0.00000000000E+00 -0.00000000000E+00 -0.74013404018E+03  0.74013404018E+03  0.00000000000E+00 0. -1.
         25    2    1    2    0    0 -0.20734285207E+02 -0.12687482552E+03 -0.16829996542E+03  0.24592005694E+03  0.12499865643E+03 0.  0.
          2    1    1    2  501    0  0.25092855911E+02  0.29039428618E+02 -0.45029042176E+03  0.45192300646E+03  0.00000000000E+00 0. -1.
          1    1    1    2  502    0 -0.43585707043E+01  0.97835396906E+02 -0.52647672568E+02  0.11118695721E+03  0.00000000000E+00 0. -1.
         22    1    3    3    0    0 -0.10658227935E+02 -0.98923047523E+02 -0.29214018104E+02  0.10369583409E+03  0.00000000000E+00 0. -1.
         22    1    3    3    0    0 -0.10076057272E+02 -0.27951778002E+02 -0.13908594732E+03  0.14222422285E+03  0.00000000000E+00 0. -1.
</event>
<event>
 7    1  0.5593520E-006  0.3310837E+02  0.7818608E-02  0.1566655E+00
          2   -1    0    0  502    0  0.00000000000E+00  0.00000000000E+00  0.31233557362E+04  0.31233557362E+04  0.00000000000E+00 0. -1.
          1   -1    0    0  501    0 -0.00000000000E+00 -0.00000000000E+00 -0.63282778404E+01  0.63282778404E+01  0.00000000000E+00 0. -1.
         25    2    1    2    0    0 -0.13735732312E+02  0.36554291729E+02  0.12266675679E+04  0.12336380871E+04  0.12499888458E+03 0.  0.
          2    1    1    2  501    0 -0.18253908991E+02 -0.28504761100E+02  0.10375899396E+03  0.10914053063E+03  0.00000000000E+00 0. -1.
          1    1    1    2  502    0  0.31989641303E+02 -0.80495306288E+01  0.17866008965E+04  0.17869053963E+04  0.00000000000E+00 0. -1.
         22    1    3    3    0    0  0.35299362559E+02  0.38922789725E+02  0.23706310113E+03  0.24281668491E+03  0.00000000000E+00 0.  1.
         22    1    3    3    0    0 -0.49035094871E+02 -0.23684979960E+01  0.98960446680E+03  0.99082140218E+03  0.00000000000E+00 0.  1.
</event>
<event>
 7    1  0.5593520E-006  0.1072199E+03  0.7818608E-02  0.1318926E+00
          2   -1    0    0  502    0  0.00000000000E+00  0.00000000000E+00  0.88287219225E+03  0.88287219225E+03  0.00000000000E+00 0. -1.
          1   -1    0    0  501    0 -0.00000000000E+00 -0.00000000000E+00 -0.17107415671E+04  0.17107415671E+04  0.00000000000E+00 0. -1.
         25    2    1    2    0    0  0.47055933764E+02 -0.73205965302E+01  0.29660692896E+02  0.13701160412E+03  0.12499828368E+03 0.  0.
          2    1    1    2  501    0 -0.10690268842E+03 -0.18816641666E+02 -0.16539506058E+04  0.16575086296E+04  0.00000000000E+00 0. -1.
          1    1    1    2  502    0  0.59846754655E+02  0.26137238196E+02  0.79642053806E+03  0.79909352563E+03  0.00000000000E+00 0. -1.
         22    1    3    3    0    0  0.23698276784E+02 -0.65692441512E+02  0.24170086556E+02  0.73900597281E+02  0.00000000000E+00 0. -1.
         22    1    3    3    0    0  0.23357656980E+02  0.58371844982E+02  0.54906063404E+01  0.63111006838E+02  0.00000000000E+00 0. -1.
</event>
<event>
 7    1  0.5593520E-006  0.6571031E+02  0.7818608E-02  0.1383379E+00
          2   -1    0    0  502    0  0.00000000000E+00  0.00000000000E+00  0.41330591435E+03  0.41330591435E+03  0.00000000000E+00 0. -1.
          1   -1    0    0  501    0 -0.00000000000E+00 -0.00000000000E+00 -0.31256378976E+04  0.31256378976E+04  0.00000000000E+00 0. -1.
         25    2    1    2    0    0 -0.46336999715E+02 -0.54150563517E+01 -0.11476427770E+03  0.17598992854E+03  0.12500070053E+03 0.  0.
          2    1    1    2  501    0  0.23142642808E+02 -0.57007648999E+02 -0.29770435824E+04  0.29776792885E+04  0.00000000000E+00 0. -1.
          1    1    1    2  502    0  0.23194356907E+02  0.62422705351E+02  0.37947587685E+03  0.38527459487E+03  0.00000000000E+00 0. -1.
         22    1    3    3    0    0  0.34899094268E+02 -0.32598512460E+02 -0.41683108420E+02  0.63388416315E+02  0.00000000000E+00 0. -1.
         22    1    3    3    0    0 -0.81236093983E+02  0.27183456108E+02 -0.73081169282E+02  0.11260151222E+03  0.00000000000E+00 0. -1.
</event>
<event>
 7    1  0.5593520E-006  0.9943162E+02  0.7818608E-02  0.1371267E+00
          2   -1    0    0  502    0  0.00000000000E+00  0.00000000000E+00  0.23815674525E+04  0.23815674525E+04  0.00000000000E+00 0. -1.
          1   -1    0    0  501    0 -0.00000000000E+00 -0.00000000000E+00 -0.45104204273E+02  0.45104204273E+02  0.00000000000E+00 0. -1.
         25    2    1    2    0    0  0.50410732955E+02  0.71036473541E+02  0.47644385133E+03  0.50021266841E+03  0.12500619025E+03 0.  0.
          2    1    1    2  501    0  0.38967712761E+02 -0.22303934435E+02 -0.16010943411E+02  0.47668631594E+02  0.00000000000E+00 0. -1.
          1    1    1    2  502    0 -0.89378445716E+02 -0.48732539106E+02  0.18760303404E+04  0.18787903568E+04  0.00000000000E+00 0. -1.
         22    1    3    3    0    0  0.21882783055E+02  0.95259411614E+02  0.21588738893E+03  0.23698222802E+03  0.00000000000E+00 0. -1.
         22    1    3    3    0    0  0.28527949901E+02 -0.24222938073E+02  0.26055646240E+03  0.26323044040E+03  0.00000000000E+00 0. -1.
</event>
<event>
 7    1  0.5593520E-006  0.7651151E+02  0.7818608E-02  0.1346311E+00
          2   -1    0    0  502    0  0.00000000000E+00  0.00000000000E+00  0.14450236742E+03  0.14450236742E+03  0.00000000000E+00 0. -1.
          1   -1    0    0  501    0 -0.00000000000E+00 -0.00000000000E+00 -0.30312489208E+04  0.30312489208E+04  0.00000000000E+00 0. -1.
         25    2    1    2    0    0 -0.26232008992E+02  0.65610690528E+02 -0.28795260439E+02  0.14644983209E+03  0.12500202113E+03 0.  0.
          2    1    1    2  501    0  0.76371891650E+02 -0.46200524506E+01 -0.29248288155E+04  0.29258293885E+04  0.00000000000E+00 0. -1.
          1    1    1    2  502    0 -0.50139882658E+02 -0.60990638077E+02  0.66877522522E+02  0.10347206765E+03  0.00000000000E+00 0. -1.
         22    1    3    3    0    0 -0.71684852763E+02  0.66532967776E+02 -0.15040168397E+02  0.98952314688E+02  0.00000000000E+00 0. -1.
         22    1    3    3    0    0  0.45452843771E+02 -0.92227724794E+00 -0.13755092041E+02  0.47497517401E+02  0.00000000000E+00 0. -1.
</event>
<event>
 7    1  0.5593520E-006  0.1662463E+03  0.7818608E-02  0.1247931E+00
          2   -1    0    0  502    0  0.00000000000E+00  0.00000000000E+00  0.31635299866E+03  0.31635299866E+03  0.00000000000E+00 0. -1.
          1   -1    0    0  501    0 -0.00000000000E+00 -0.00000000000E+00 -0.13478076175E+04  0.13478076175E+04  0.00000000000E+00 0. -1.
         25    2    1    2    0    0  0.81125968809E+01  0.13568637529E+03 -0.42864042258E+03  0.46672751806E+03  0.12500143032E+03 0.  0.
          2    1    1    2  501    0 -0.85103925620E+02 -0.16534310437E+03 -0.88453919806E+03  0.90387533057E+03  0.00000000000E+00 0. -1.
          1    1    1    2  502    0  0.76991328739E+02  0.29656729082E+02  0.28172500176E+03  0.29355776756E+03  0.00000000000E+00 0. -1.
         22    1    3    3    0    0  0.52336666334E+02  0.83299001757E+02 -0.34407775038E+03  0.35786498662E+03  0.00000000000E+00 0. -1.
         22    1    3    3    0    0 -0.44224069453E+02  0.52387373529E+02 -0.84562672195E+02  0.10886253145E+03  0.00000000000E+00 0. -1.
</event>
<event>
 7    1  0.5593520E-006  0.3607255E+02  0.7818608E-02  0.1611752E+00
          2   -1    0    0  502    0  0.00000000000E+00  0.00000000000E+00  0.23721378715E+04  0.23721378715E+04  0.00000000000E+00 0. -1.
          1   -1    0    0  501    0 -0.00000000000E+00 -0.00000000000E+00 -0.23233068922E+02  0.23233068922E+02  0.00000000000E+00 0. -1.
         25    2    1    2    0    0 -0.43618093308E+01 -0.57014931399E+02  0.62464147889E+03  0.63958812087E+03  0.12500503763E+03 0.  0.
          2    1    1    2  501    0 -0.44748871523E+01  0.22553000062E+02 -0.70923426000E+01  0.24061665578E+02  0.00000000000E+00 0. -1.
          1    1    1    2  502    0  0.88366964832E+01  0.34461931337E+02  0.17313556663E+04  0.17317211540E+04  0.00000000000E+00 0. -1.
         22    1    3    3    0    0 -0.60775394590E+02 -0.23233769012E+02  0.21261839315E+03  0.22235115856E+03  0.00000000000E+00 0.  1.
         22    1    3    3    0    0  0.56413585259E+02 -0.33781162388E+02  0.41202308574E+03  0.41723696231E+03  0.00000000000E+00 0.  1.
</event>
<event>
 7    1  0.5593520E-006  0.1107492E+03  0.7818608E-02  0.1262863E+00
          2   -1    0    0  502    0  0.00000000000E+00  0.00000000000E+00  0.18942192109E+04  0.18942192109E+04  0.00000000000E+00 0. -1.
          1   -1    0    0  501    0 -0.00000000000E+00 -0.00000000000E+00 -0.39544496253E+03  0.39544496253E+03  0.00000000000E+00 0. -1.
         25    2    1    2    0    0  0.57917511440E+02  0.10748608668E+03 -0.41831475708E+02  0.17967678904E+03  0.12500471670E+03 0.  0.
          2    1    1    2  501    0 -0.10657577932E+03 -0.73346855741E+01 -0.27290129037E+03  0.29306536580E+03  0.00000000000E+00 0. -1.
          1    1    1    2  502    0  0.48658267878E+02 -0.10015140110E+03  0.18135070144E+04  0.18169220185E+04  0.00000000000E+00 0. -1.
         22    1    3    3    0    0  0.12077108137E+02  0.51200968092E+02 -0.81463123530E+02  0.96972347449E+02  0.00000000000E+00 0. -1.
         22    1    3    3    0    0  0.45840403303E+02  0.56285118584E+02  0.39631647822E+02  0.82704441586E+02  0.00000000000E+00 0. -1.
</event>
<event>
 7    1  0.5593520E-006  0.8467935E+02  0.7818608E-02  0.1366382E+00
          2   -1    0    0  502    0  0.00000000000E+00  0.00000000000E+00  0.14589429010E+04  0.14589429010E+04  0.00000000000E+00 0. -1.
          1   -1    0    0  501    0 -0.00000000000E+00 -0.00000000000E+00 -0.60656193925E+02  0.60656193925E+02  0.00000000000E+00 0. -1.
         25    2    1    2    0    0 -0.27336266373E+02 -0.26887254987E+02  0.36988412801E+03  0.39231384588E+03  0.12500275825E+03 0.  0.
          2    1    1    2  501    0 -0.42854347473E+02 -0.34315937925E+02 -0.31502521387E+02  0.63296820985E+02  0.00000000000E+00 0. -1.
          1    1    1    2  502    0  0.70190613847E+02  0.61203192912E+02  0.10599051004E+04  0.10639884280E+04  0.00000000000E+00 0. -1.
         22    1    3    3    0    0  0.40060061223E+02 -0.38134682894E+02  0.10402437030E+03  0.11781397269E+03  0.00000000000E+00 0.  1.
         22    1    3    3    0    0 -0.67396327596E+02  0.11247427907E+02  0.26585975772E+03  0.27449987319E+03  0.00000000000E+00 0.  1.
</event>
<event>
 7    1  0.5593520E-006  0.1109372E+03  0.7818608E-02  0.1358643E+00
          2   -1    0    0  502    0  0.00000000000E+00  0.00000000000E+00  0.15584270090E+04  0.15584270090E+04  0.00000000000E+00 0. -1.
          1   -1    0    0  501    0 -0.00000000000E+00 -0.00000000000E+00 -0.93057362398E+02  0.93057362398E+02  0.00000000000E+00 0. -1.
         25    2    1    2    0    0  0.12532711876E+03  0.85027949419E+02  0.88690285621E+03  0.90838342563E+03  0.12500853057E+03 0.  0.
          2    1    1    2  501    0 -0.96989005505E+02 -0.50443959045E+02 -0.44862743206E+02  0.11816990277E+03  0.00000000000E+00 0. -1.
          1    1    1    2  502    0 -0.28338113259E+02 -0.34583990373E+02  0.62332953358E+03  0.62493104299E+03  0.00000000000E+00 0. -1.
         22    1    3    3    0    0  0.50072460195E+02 -0.12552092653E+02  0.49199950232E+03  0.49470022901E+03  0.00000000000E+00 0.  1.
         22    1    3    3    0    0  0.75254658569E+02  0.97580042072E+02  0.39490335389E+03  0.41368319662E+03  0.00000000000E+00 0.  1.
</event>
<event>
 7    1  0.5593520E-006  0.9370199E+02  0.7818608E-02  0.1368400E+00
          2   -1    0    0  502    0  0.00000000000E+00  0.00000000000E+00  0.20741748005E+04  0.20741748005E+04  0.00000000000E+00 0. -1.
          1   -1    0    0  501    0 -0.00000000000E+00 -0.00000000000E+00 -0.40355364111E+02  0.40355364111E+02  0.00000000000E+00 0. -1.
         25    2    1    2    0    0 -0.13434331844E+03  0.40252028786E+02  0.29506372914E+03  0.34979333968E+03  0.12499769279E+03 0.  0.
          2    1    1    2  501    0  0.45744301017E+02 -0.16966595226E+02  0.38858401707E+02  0.62372925315E+02  0.00000000000E+00 0. -1.
          1    1    1    2  502    0  0.88599017427E+02 -0.23285433560E+02  0.16998973055E+04  0.17023638996E+04  0.00000000000E+00 0. -1.
         22    1    3    3    0    0 -0.54638021578E+02  0.43673710619E+02  0.24686904381E+03  0.25658727792E+03  0.00000000000E+00 0.  1.
         22    1    3    3    0    0 -0.79705296867E+02 -0.34216818327E+01  0.48194685332E+02  0.93206061763E+02  0.00000000000E+00 0.  1.
</event>
<event>
 7    1  0.5593520E-006  0.1070141E+03  0.7818608E-02  0.1289136E+00
          2   -1    0    0  502    0  0.00000000000E+00  0.00000000000E+00  0.82859148367E+03  0.82859148367E+03  0.00000000000E+00 0. -1.
          1   -1    0    0  501    0 -0.00000000000E+00 -0.00000000000E+00 -0.30262124888E+03  0.30262124888E+03  0.00000000000E+00 0. -1.
         25    2    1    2    0    0  0.27857284798E+02  0.84447291357E+02  0.85006893677E+02  0.17538179477E+03  0.12500091452E+03 0.  0.
          2    1    1    2  501    0  0.57388296329E+02 -0.95512941969E+02 -0.24255672740E+03  0.26692677768E+03  0.00000000000E+00 0. -1.
          1    1    1    2  502    0 -0.85245581127E+02  0.11065650612E+02  0.68352006851E+03  0.68890416009E+03  0.00000000000E+00 0. -1.
         22    1    3    3    0    0  0.68525795390E+02  0.88885561552E+02  0.66746523747E+02  0.13058149225E+03  0.00000000000E+00 0.  1.
         22    1    3    3    0    0 -0.40668510592E+02 -0.44382701944E+01  0.18260369930E+02  0.44800302522E+02  0.00000000000E+00 0.  1.
</event>
<event>
 7    1  0.5593520E-006  0.1287322E+03  0.7818608E-02  0.1328362E+00
          2   -1    0    0  502    0  0.00000000000E+00  0.00000000000E+00  0.15464069129E+03  0.15464069129E+03  0.00000000000E+00 0. -1.
          1   -1    0    0  501    0 -0.00000000000E+00 -0.00000000000E+00 -0.43838974190E+03  0.43838974190E+03  0.00000000000E+00 0. -1.
         25    2    1    2    0    0 -0.26778375233E+02  0.89922337416E+02 -0.24010611049E+03  0.28649937608E+03  0.12501135970E+03 0.  0.
          2    1    1    2  501    0  0.24027756309E+02  0.43869384886E+02 -0.13535425902E+03  0.14430049008E+03  0.00000000000E+00 0. -1.
          1    1    1    2  502    0  0.27506189246E+01 -0.13379172230E+03  0.91711318900E+02  0.16223056702E+03  0.00000000000E+00 0. -1.
         22    1    3    3    0    0  0.23088224823E+02  0.93147842499E+02 -0.20206687735E+03  0.22369758517E+03  0.00000000000E+00 0.  1.
         22    1    3    3    0    0 -0.49866600056E+02 -0.32255050829E+01 -0.38039233144E+02  0.62801790917E+02  0.00000000000E+00 0.  1.
</event>
<event>
 7    1  0.5593520E-006  0.1547207E+03  0.7818608E-02  0.1270143E+00
          2   -1    0    0  502    0  0.00000000000E+00  0.00000000000E+00  0.19541340718E+03  0.19541340718E+03  0.00000000000E+00 0. -1.
          1   -1    0    0  501    0 -0.00000000000E+00 -0.00000000000E+00 -0.35826913413E+03  0.35826913413E+03  0.00000000000E+00 0. -1.
         25    2    1    2    0    0 -0.16889173825E+03  0.43000746074E+01 -0.11266755960E+03  0.23845771376E+03  0.12500076950E+03 0.  0.
          2    1    1    2  501    0  0.30799861817E+02  0.64239058474E+02 -0.12499251037E+03  0.14386944002E+03  0.00000000000E+00 0. -1.
          1    1    1    2  502    0  0.13809187644E+03 -0.68539133082E+02  0.74804343019E+02  0.17135538753E+03  0.00000000000E+00 0. -1.
         22    1    3    3    0    0 -0.15282015061E+03  0.17485548013E+02 -0.34587922691E+02  0.15765807058E+03  0.00000000000E+00 0. -1.
         22    1    3    3    0    0 -0.16071587640E+02 -0.13185473405E+02 -0.78079636913E+02  0.80799643184E+02  0.00000000000E+00 0. -1.
</event>
<event>
 7    1  0.5593520E-006  0.5971689E+02  0.7818608E-02  0.1457906E+00
          2   -1    0    0  502    0  0.00000000000E+00  0.00000000000E+00  0.24774731066E+03  0.24774731066E+03  0.00000000000E+00 0. -1.
          1   -1    0    0  501    0 -0.00000000000E+00 -0.00000000000E+00 -0.12791912253E+04  0.12791912253E+04  0.00000000000E+00 0. -1.
         25    2    1    2    0    0  0.19959623567E+02 -0.17839489715E+02  0.28738142956E+02  0.13103036803E+03  0.12500576994E+03 0.  0.
          2    1    1    2  501    0  0.36094895204E+02 -0.12417265420E+02 -0.12216932857E+04  0.12222894560E+04  0.00000000000E+00 0. -1.
          1    1    1    2  502    0 -0.56054518771E+02  0.30256755134E+02  0.16151122813E+03  0.17361871189E+03  0.00000000000E+00 0. -1.
         22    1    3    3    0    0  0.66494416014E+01 -0.35540699112E+02  0.73040793108E+02  0.81500391562E+02  0.00000000000E+00 0. -1.
         22    1    3    3    0    0  0.13310181965E+02  0.17701209398E+02 -0.44302650152E+02  0.49529976464E+02  0.00000000000E+00 0. -1.
</event>
<event>
 7    1  0.5593520E-006  0.7923983E+02  0.7818608E-02  0.1447129E+00
          2   -1    0    0  502    0  0.00000000000E+00  0.00000000000E+00  0.25734636584E+03  0.25734636584E+03  0.00000000000E+00 0. -1.
          1   -1    0    0  501    0 -0.00000000000E+00 -0.00000000000E+00 -0.13519230864E+03  0.13519230864E+03  0.00000000000E+00 0. -1.
         25    2    1    2    0    0  0.88240989840E+02 -0.21796758346E+02  0.12382837609E+02  0.15505003573E+03  0.12500243177E+03 0.  0.
          2    1    1    2  501    0 -0.10275512255E+02  0.29390422278E+02 -0.50369500112E+02  0.59215450816E+02  0.00000000000E+00 0. -1.
          1    1    1    2  502    0 -0.77965477585E+02 -0.75936639318E+01  0.16014071970E+03  0.17827318793E+03  0.00000000000E+00 0. -1.
         22    1    3    3    0    0  0.11593281555E+03 -0.35008317989E+02  0.21597938535E+02  0.12301410895E+03  0.00000000000E+00 0. -1.
         22    1    3    3    0    0 -0.27691825714E+02  0.13211559643E+02 -0.92151009255E+01  0.32035926780E+02  0.00000000000E+00 0. -1.
</event>
<event>
 7    1  0.5593520E-006  0.7376344E+02  0.7818608E-02  0.1431330E+00
          2   -1    0    0  502    0  0.00000000000E+00  0.00000000000E+00  0.25150199409E+02  0.25150199409E+02  0.00000000000E+00 0. -1.
          1   -1    0    0  501    0 -0.00000000000E+00 -0.00000000000E+00 -0.14786429790E+04  0.14786429790E+04  0.00000000000E+00 0. -1.
         25    2    1    2    0    0  0.19409181045E+02  0.65642713113E+02 -0.62699631412E+03  0.64298898239E+03  0.12499908585E+03 0.  0.
          2    1    1    2  501    0  0.35182466285E+02 -0.13385245158E+02 -0.75761891244E+03  0.75855348342E+03  0.00000000000E+00 0. -1.
          1    1    1    2  502    0 -0.54591647329E+02 -0.52257467955E+02 -0.68877553032E+02  0.10225071260E+03  0.00000000000E+00 0. -1.
         22    1    3    3    0    0  0.28351926081E+02 -0.29975267031E+02 -0.11782627866E+03  0.12484142057E+03  0.00000000000E+00 0. -1.
         22    1    3    3    0    0 -0.89427450367E+01  0.95617980144E+02 -0.50917003546E+03  0.51814756182E+03  0.00000000000E+00 0. -1.
</event>
<event>
 7    1  0.5593520E-006  0.1023599E+03  0.7818608E-02  0.1356703E+00
          2   -1    0    0  502    0  0.00000000000E+00  0.00000000000E+00  0.29954171618E+03  0.29954171618E+03  0.00000000000E+00 0. -1.
          1   -1    0    0  501    0 -0.00000000000E+00 -0.00000000000E+00 -0.53052535304E+03  0.53052535304E+03  0.00000000000E+00 0. -1.
         25    2    1    2    0    0  0.52692405846E+02 -0.27315394011E+02 -0.46413791826E+02  0.14595687313E+03  0.12500619328E+03 0.  0.
          2    1    1    2  501    0  0.48198841683E+02 -0.10154570028E+02 -0.42124428667E+03  0.42411436275E+03  0.00000000000E+00 0. -1.
          1    1    1    2  502    0 -0.10089124753E+03  0.37469964039E+02  0.23667444163E+03  0.25999583334E+03  0.00000000000E+00 0. -1.
         22    1    3    3    0    0  0.65803673583E+02 -0.62028913232E+02 -0.57579967611E+02  0.10720616682E+03  0.00000000000E+00 0.  1.
         22    1    3    3    0    0 -0.13111267736E+02  0.34713519221E+02  0.11166175785E+02  0.38750706316E+02  0.00000000000E+00 0.  1.
</event>
<event>
 7    1  0.5593520E-006  0.1649153E+03  0.7818608E-02  0.1194179E+00
          2   -1    0    0  502    0  0.00000000000E+00  0.00000000000E+00  0.12071749523E+04  0.12071749523E+04  0.00000000000E+00 0. -1.
          1   -1    0    0  501    0 -0.00000000000E+00 -0.00000000000E+00 -0.10466367852E+04  0.10466367852E+04  0.00000000000E+00 0. -1.
         25    2    1    2    0    0  0.13193533587E+03  0.18980031307E+03  0.12007518694E+03  0.28892124978E+03  0.12500538534E+03 0.  0.
          2    1    1    2  501    0 -0.15776837403E+03 -0.45970461194E+02 -0.94979621433E+03  0.96390714900E+03  0.00000000000E+00 0. -1.
          1    1    1    2  502    0  0.25833038152E+02 -0.14382985187E+03  0.99025919445E+03  0.10009833387E+04  0.00000000000E+00 0. -1.
         22    1    3    3    0    0  0.14554765694E+03  0.19814212397E+03  0.11836817801E+03  0.27286525484E+03  0.00000000000E+00 0. -1.
         22    1    3    3    0    0 -0.13612321067E+02 -0.83418109070E+01  0.17070089315E+01  0.16055994941E+02  0.00000000000E+00 0. -1.
</event>
<event>
 7    1  0.5593520E-006  0.2737903E+03  0.7818608E-02  0.1216681E+00
          2   -1    0    0  502    0  0.00000000000E+00  0.00000000000E+00  0.15485949050E+04  0.15485949050E+04  0.00000000000E+00 0. -1.
          1   -1    0    0  501    0 -0.00000000000E+00 -0.00000000000E+00 -0.63553294790E+03  0.63553294790E+03  0.00000000000E+00 0. -1.
         25    2    1    2    0    0 -0.19345547908E+03  0.22627764011E+03 -0.30342033631E+03  0.44307514543E+03  0.12500036485E+03 0.  0.
          2    1    1    2  501    0 -0.26285950146E+02 -0.63895763368E+02 -0.24484243491E+03  0.25440408347E+03  0.00000000000E+00 0. -1.
          1    1    1    2  502    0  0.21974142922E+03 -0.16238187674E+03  0.14613247284E+04  0.14866486240E+04  0.00000000000E+00 0. -1.
         22    1    3    3    0    0 -0.14192917653E+03  0.20087446663E+03 -0.29646284800E+03  0.38520729840E+03  0.00000000000E+00 0.  1.
         22    1    3    3    0    0 -0.51526302541E+02  0.25403173483E+02 -0.69574883118E+01  0.57867847033E+02  0.00000000000E+00 0.  1.
</event>
<event>
 7    1  0.5593520E-006  0.9231751E+02  0.7818608E-02  0.1410774E+00
          2   -1    0    0  502    0  0.00000000000E+00  0.00000000000E+00  0.72126543685E+03  0.72126543685E+03  0.00000000000E+00 0. -1.
          1   -1    0    0  501    0 -0.00000000000E+00 -0.00000000000E+00 -0.15921072975E+04  0.15921072975E+04  0.00000000000E+00 0. -1.
         25    2    1    2    0    0 -0.31942630471E+02  0.12136136925E+03  0.21573324746E+03  0.27913177085E+03  0.12499919140E+03 0.  0.
          2    1    1    2  501    0  0.32679696856E+02 -0.86148730015E+02 -0.15583909381E+04  0.15611123862E+04  0.00000000000E+00 0. -1.
          1    1    1    2  502    0 -0.73706638429E+00 -0.35212639235E+02  0.47181583001E+03  0.47312857732E+03  0.00000000000E+00 0. -1.
         22    1    3    3    0    0 -0.74291572041E+01  0.14361155214E+03  0.18058939686E+03  0.23085060221E+03  0.00000000000E+00 0.  1.
         22    1    3    3    0    0 -0.24513473267E+02 -0.22250182887E+02  0.35143850600E+02  0.48281168638E+02  0.00000000000E+00 0.  1.
</event>
<event>
 7    1  0.5593520E-006  0.7210291E+03  0.7818608E-02  0.1043993E+00
          2   -1    0    0  502    0  0.00000000000E+00  0.00000000000E+00  0.23751061676E+04  0.23751061676E+04  0.00000000000E+00 0. -1.
          1   -1    0    0  501    0 -0.00000000000E+00 -0.00000000000E+00 -0.11252437565E+04  0.11252437565E+04  0.00000000000E+00 0. -1.
         25    2    1    2    0    0  0.24978123720E+03 -0.51981714612E+03 -0.63444646952E+03  0.86645718351E+03  0.12500078521E+03 0.  0.
          2    1    1    2  501    0  0.21610714515E+03 -0.47306031858E+02 -0.27518536114E+03  0.35308234425E+03  0.00000000000E+00 0. -1.
          1    1    1    2  502    0 -0.46588838235E+03  0.56712317798E+03  0.21594942417E+04  0.22808103963E+04  0.00000000000E+00 0. -1.
         22    1    3    3    0    0  0.18673162977E+03 -0.25335287623E+03 -0.30782969016E+03  0.44024481780E+03  0.00000000000E+00 0.  1.
         22    1    3    3    0    0  0.63049607428E+02 -0.26646426989E+03 -0.32661677936E+03  0.42621236571E+03  0.00000000000E+00 0.  1.
</event>
<event>
 7    1  0.5593520E-006  0.4751727E+02  0.7818608E-02  0.1488964E+00
          2   -1    0    0  502    0  0.00000000000E+00  0.00000000000E+00  0.22700394209E+04  0.22700394209E+04  0.00000000000E+00 0. -1.
          1   -1    0    0  501    0 -0.00000000000E+00 -0.00000000000E+00 -0.73238505126E+03  0.73238505126E+03  0.00000000000E+00 0. -1.
         25    2    1    2    0    0 -0.38204275623E+02 -0.63617831052E+02  0.83329337322E+03  0.84587830512E+03  0.12500186449E+03 0.  0.
          2    1    1    2  501    0  0.40246079321E+02  0.25229023077E+02 -0.72505703475E+03  0.72661128133E+03  0.00000000000E+00 0. -1.
          1    1    1    2  502    0 -0.20418036981E+01  0.38388807975E+02  0.14294180311E+04  0.14299348857E+04  0.00000000000E+00 0. -1.
         22    1    3    3    0    0  0.68221124058E+01 -0.19919196159E+02  0.16689342333E+02  0.26867261506E+02  0.00000000000E+00 0. -1.
         22    1    3    3    0    0 -0.45026388029E+02 -0.43698634893E+02  0.81660403089E+03  0.81901104362E+03  0.00000000000E+00 0. -1.
</event>
<event>
 7    1  0.5593520E-006  0.7491791E+02  0.7818608E-02  0.1359807E+00
          2   -1    0    0  502    0  0.00000000000E+00  0.00000000000E+00  0.24087693530E+04  0.24087693530E+04  0.00000000000E+00 0. -1.
          1   -1    0    0  501    0 -0.00000000000E+00 -0.00000000000E+00 -0.15554965256E+04  0.15554965256E+04  0.00000000000E+00 0. -1.
         25    2    1    2    0    0  0.98034698526E+02  0.97881257000E+02  0.20339354272E+03  0.27601802154E+03  0.12500188961E+03 0.  0.
          2    1    1    2  501    0 -0.44589157653E+02 -0.59907376830E+02 -0.15177705744E+04  0.15196067265E+04  0.00000000000E+00 0. -1.
          1    1    1    2  502    0 -0.53445540873E+02 -0.37973880170E+02  0.21676498591E+04  0.21686411306E+04  0.00000000000E+00 0. -1.
         22    1    3    3    0    0 -0.22919375594E+02  0.43985763772E+01  0.67710115026E+02  0.71619165931E+02  0.00000000000E+00 0.  1.
         22    1    3    3    0    0  0.12095407412E+03  0.93482680622E+02  0.13568342769E+03  0.20439885561E+03  0.00000000000E+00 0.  1.
</event>
<event>
 7    1  0.5593520E-006  0.1310101E+03  0.7818608E-02  0.1364558E+00
          2   -1    0    0  502    0  0.00000000000E+00  0.00000000000E+00  0.35734589619E+04  0.35734589619E+04  0.00000000000E+00 0. -1.
          1   -1    0    0  501    0 -0.00000000000E+00 -0.00000000000E+00 -0.14948276553E+04  0.14948276553E+04  0.00000000000E+00 0. -1.
         25    2    1    2    0    0  0.29176889061E+02 -0.96268846553E+02  0.49732010851E+03  0.52256104281E+03  0.12499508577E+03 0.  0.
          2    1    1    2  501    0 -0.33888185471E+01 -0.35869461777E+02 -0.14805087707E+04  0.14809471032E+04  0.00000000000E+00 0. -1.
          1    1    1    2  502    0 -0.25788070514E+02  0.13213830833E+03  0.30618199687E+04  0.30647784713E+04  0.00000000000E+00 0. -1.
         22    1    3    3    0    0  0.32008608570E+02 -0.10003281662E+03  0.20624538148E+03  0.23144820761E+03  0.00000000000E+00 0.  1.
         22    1    3    3    0    0 -0.28317195090E+01  0.37639700633E+01  0.29107472703E+03  0.29111283520E+03  0.00000000000E+00 0.  1.
</event>
<event>
 7    1  0.5593520E-006  0.2643714E+03  0.7818608E-02  0.1106856E+00
          2   -1    0    0  502    0  0.00000000000E+00  0.00000000000E+00  0.20789570422E+04  0.20789570422E+04  0.00000000000E+00 0. -1.
          1   -1    0    0  501    0 -0.00000000000E+00 -0.00000000000E+00 -0.75010096731E+03  0.75010096731E+03  0.00000000000E+00 0. -1.
         25    2    1    2    0    0 -0.22298251272E+03 -0.48809574660E+01 -0.13406140315E+03  0.28869137831E+03  0.12500090948E+03 0.  0.
          2    1    1    2  501    0  0.19135565857E+03 -0.25759190112E+03 -0.48118664981E+03  0.57836940405E+03  0.00000000000E+00 0. -1.
          1    1    1    2  502    0  0.31626854158E+02  0.26247285859E+03  0.19441041279E+04  0.19619972272E+04  0.00000000000E+00 0. -1.
         22    1    3    3    0    0 -0.98678408416E+02 -0.56142215206E+01  0.89081749802E+01  0.99238618251E+02  0.00000000000E+00 0.  1.
         22    1    3    3    0    0 -0.12430410431E+03  0.73326405469E+00 -0.14296957813E+03  0.18945276006E+03  0.00000000000E+00 0.  1.
</event>
<event>
 7    1  0.5593520E-006  0.5111593E+02  0.7818608E-02  0.1445270E+00
          2   -1    0    0  502    0  0.00000000000E+00  0.00000000000E+00  0.10261218513E+03  0.10261218513E+03  0.00000000000E+00 0. -1.
          1   -1    0    0  501    0 -0.00000000000E+00 -0.00000000000E+00 -0.28610215381E+04  0.28610215381E+04  0.00000000000E+00 0. -1.
         25    2    1    2    0    0 -0.47152050291E+02  0.46107561800E+02 -0.21115714615E+03  0.25408844467E+03  0.12499749696E+03 0.  0.
          2    1    1    2  501    0  0.48659041771E+02  0.51833220967E+01 -0.26200354252E+04  0.26204923580E+04  0.00000000000E+00 0. -1.
          1    1    1    2  502    0 -0.15069914800E+01 -0.51290883897E+02  0.72783218320E+02  0.89052920577E+02  0.00000000000E+00 0. -1.
         22    1    3    3    0    0 -0.27768853588E+02  0.33657051548E+02 -0.22366027281E+03  0.22787677368E+03  0.00000000000E+00 0. -1.
         22    1    3    3    0    0 -0.19383196703E+02  0.12450510253E+02  0.12503126664E+02  0.26211670995E+02  0.00000000000E+00 0. -1.
</event>
<event>
 7    1  0.5593520E-006  0.1072780E+03  0.7818608E-02  0.1458169E+00
          2   -1    0    0  502    0  0.00000000000E+00  0.00000000000E+00  0.26493596937E+03  0.26493596937E+03  0.00000000000E+00 0. -1.
          1   -1    0    0  501    0 -0.00000000000E+00 -0.00000000000E+00 -0.11094014752E+04  0.11094014752E+04  0.00000000000E+00 0. -1.
         25    2    1    2    0    0 -0.10504384601E+03 -0.67121938125E+02 -0.15364457393E+03  0.23402940300E+03  0.12499416870E+03 0.  0.
          2    1    1    2  501    0  0.10763889167E+02  0.18272731909E+02 -0.90289099688E+03  0.90314002584E+03  0.00000000000E+00 0. -1.
          1    1    1    2  502    0  0.94279956840E+02  0.48849206216E+02  0.21207006499E+03  0.23716801571E+03  0.00000000000E+00 0. -1.
         22    1    3    3    0    0 -0.29306706518E+02  0.22017365702E+02 -0.97738211538E+02  0.10438584882E+03  0.00000000000E+00 0.  1.
         22    1    3    3    0    0 -0.75737139489E+02 -0.89139303826E+02 -0.55906362396E+02  0.12964355418E+03  0.00000000000E+00 0.  1.
</event>
<event>
 7    1  0.5593520E-006  0.7169119E+02  0.7818608E-02  0.1371818E+00
          2   -1    0    0  502    0  0.00000000000E+00  0.00000000000E+00  0.25021625670E+03  0.25021625670E+03  0.00000000000E+00 0. -1.
          1   -1    0    0  501    0 -0.00000000000E+00 -0.00000000000E+00 -0.22673962243E+03  0.22673962243E+03  0.00000000000E+00 0. -1.
         25    2    1    2    0    0  0.79678944299E+01  0.49969898658E+02  0.89671911677E+02  0.16195568654E+03  0.12501245756E+03 0.  0.
          2    1    1    2  501    0  0.64153075099E+02 -0.32000146752E+02 -0.17162974943E+03  0.18600106808E+03  0.00000000000E+00 0. -1.
          1    1    1    2  502    0 -0.72120969529E+02 -0.17969751906E+02  0.10543447203E+03  0.12899912450E+03  0.00000000000E+00 0. -1.
         22    1    3    3    0    0 -0.23970461443E+01  0.89538653149E+01 -0.31907256757E+02  0.33226353517E+02  0.00000000000E+00 0. -1.
         22    1    3    3    0    0  0.10364940574E+02  0.41016033343E+02  0.12157916843E+03  0.12872933303E+03  0.00000000000E+00 0. -1.
</event>
<event>
 7    1  0.5593520E-006  0.1528976E+03  0.7818608E-02  0.1364818E+00
          2   -1    0    0  502    0  0.00000000000E+00  0.00000000000E+00  0.23716841037E+04  0.23716841037E+04  0.00000000000E+00 0. -1.
          1   -1    0    0  501    0 -0.00000000000E+00 -0.00000000000E+00 -0.25452367411E+03  0.25452367411E+03  0.00000000000E+00 0. -1.
         25    2    1    2    0    0  0.31247833390E+02 -0.12143805373E+03  0.71090903739E+02  0.19081922381E+03  0.12503772069E+03 0.  0.
          2    1    1    2  501    0  0.18937417823E+02 -0.24296122168E+02 -0.19077192800E+03  0.19324299692E+03  0.00000000000E+00 0. -1.
          1    1    1    2  502    0 -0.50185251212E+02  0.14573417590E+03  0.22368414539E+04  0.22421455571E+04  0.00000000000E+00 0. -1.
         22    1    3    3    0    0  0.31425955608E+02 -0.14555407816E+03  0.74428362045E+02  0.16647270476E+03  0.00000000000E+00 0. -1.
         22    1    3    3    0    0 -0.17812221861E+00  0.24116024428E+02 -0.33374583062E+01  0.24346519046E+02  0.00000000000E+00 0. -1.
</event>
<event>
 7    1  0.5593520E-006  0.2152328E+03  0.7818608E-02  0.1187536E+00
          2   -1    0    0  502    0  0.00000000000E+00  0.00000000000E+00  0.31826886065E+03  0.31826886065E+03  0.00000000000E+00 0. -1.
          1   -1    0    0  501    0 -0.00000000000E+00 -0.00000000000E+00 -0.23708365186E+04  0.23708365186E+04  0.00000000000E+00 0. -1.
         25    2    1    2    0    0 -0.17230596552E+03  0.18858363305E+02 -0.10645290430E+04  0.10857683207E+04  0.12500311760E+03 0.  0.
          2    1    1    2  501    0  0.26116309728E+03 -0.10022274982E+03 -0.12680328527E+04  0.12985214971E+04  0.00000000000E+00 0. -1.
          1    1    1    2  502    0 -0.88857131757E+02  0.81364386519E+02  0.27999423775E+03  0.30481556134E+03  0.00000000000E+00 0. -1.
         22    1    3    3    0    0 -0.12232111773E+03  0.70716182148E+02 -0.73547967742E+03  0.74892829441E+03  0.00000000000E+00 0.  1.
         22    1    3    3    0    0 -0.49984847794E+02 -0.51857818843E+02 -0.32904936554E+03  0.33684002634E+03  0.00000000000E+00 0.  1.
</event>
<event>
 7    1  0.5593520E-006  0.1956530E+03  0.7818608E-02  0.1253419E+00
          2   -1    0    0  502    0  0.00000000000E+00  0.00000000000E+00  0.30848160775E+04  0.30848160775E+04  0.00000000000E+00 0. -1.
          1   -1    0    0  501    0 -0.00000000000E+00 -0.00000000000E+00 -0.99044944331E+03  0.99044944331E+03  0.00000000000E+00 0. -1.
         25    2    1    2    0    0 -0.15402050459E+03  0.18861100148E+03 -0.39300281541E+03  0.47892779133E+03  0.12499676267E+03 0.  0.
          2    1    1    2  501    0  0.12521044170E+03 -0.12882093282E+03 -0.53956014359E+03  0.56868060983E+03  0.00000000000E+00 0. -1.
          1    1    1    2  502    0  0.28810062887E+02 -0.59790068655E+02  0.30269295932E+04  0.30276571196E+04  0.00000000000E+00 0. -1.
         22    1    3    3    0    0 -0.10808669266E+03  0.11376942190E+03 -0.13711181152E+03  0.20838873134E+03  0.00000000000E+00 0.  1.
         22    1    3    3    0    0 -0.45933811927E+02  0.74841579582E+02 -0.25589100388E+03  0.27053905999E+03  0.00000000000E+00 0.  1.
</event>
<event>
 7    1  0.5593520E-006  0.2391001E+03  0.7818608E-02  0.1271279E+00
          2   -1    0    0  502    0  0.00000000000E+00  0.00000000000E+00  0.30724778956E+03  0.30724778956E+03  0.00000000000E+00 0. -1.
          1   -1    0    0  501    0 -0.00000000000E+00 -0.00000000000E+00 -0.11025762881E+04  0.11025762881E+04  0.00000000000E+00 0. -1.
         25    2    1    2    0    0 -0.25255855822E+03 -0.10913076454E+03 -0.28040435659E+03  0.41224762229E+03  0.12500459905E+03 0.  0.
          2    1    1    2  501    0  0.21121448573E+03  0.89901640314E+02 -0.73645526034E+03  0.77140146123E+03  0.00000000000E+00 0. -1.
          1    1    1    2  502    0  0.41344072488E+02  0.19229124227E+02  0.22153111840E+03  0.22617499413E+03  0.00000000000E+00 0. -1.
         22    1    3    3    0    0 -0.24663324482E+03 -0.61746667107E+02 -0.23051960752E+03  0.34319076007E+03  0.00000000000E+00 0.  1.
         22    1    3    3    0    0 -0.59253134052E+01 -0.47384097434E+02 -0.49884749079E+02  0.69056862217E+02  0.00000000000E+00 0.  1.
</event>
<event>
 7    1  0.5593520E-006  0.4546446E+02  0.7818608E-02  0.1510594E+00
          2   -1    0    0  502    0  0.00000000000E+00  0.00000000000E+00  0.27334067061E+03  0.27334067061E+03  0.00000000000E+00 0. -1.
          1   -1    0    0  501    0 -0.00000000000E+00 -0.00000000000E+00 -0.39146892264E+03  0.39146892264E+03  0.00000000000E+00 0. -1.
         25    2    1    2    0    0  0.56049562706E+02  0.74875349962E+01 -0.93865182905E+02  0.16622263713E+03  0.12498670278E+03 0.  0.
          2    1    1    2  501    0 -0.16724632922E+02 -0.30321415188E+02 -0.25807817309E+03  0.26039094645E+03  0.00000000000E+00 0. -1.
          1    1    1    2  502    0 -0.39324929784E+02  0.22833880192E+02  0.23381510396E+03  0.23819600968E+03  0.00000000000E+00 0. -1.
         22    1    3    3    0    0  0.46644637907E+02  0.53418338175E+02 -0.12060558936E+02  0.71935375030E+02  0.00000000000E+00 0. -1.
         22    1    3    3    0    0  0.94049247990E+01 -0.45930803179E+02 -0.81804623969E+02  0.94287262098E+02  0.00000000000E+00 0. -1.
</event>
<event>
 7    1  0.5593520E-006  0.1089899E+03  0.7818608E-02  0.1430477E+00
          2   -1    0    0  502    0  0.00000000000E+00  0.00000000000E+00  0.10815939208E+04  0.10815939208E+04  0.00000000000E+00 0. -1.
          1   -1    0    0  501    0 -0.00000000000E+00 -0.00000000000E+00 -0.40986486855E+02  0.40986486855E+02  0.00000000000E+00 0. -1.
         25    2    1    2    0    0 -0.12036816473E+03  0.91593570725E+01  0.29762050087E+03  0.34463766389E+03  0.12499907171E+03 0.  0.
          2    1    1    2  501    0  0.16840166980E+02  0.19336087926E+02 -0.15637831881E+01  0.25688926370E+02  0.00000000000E+00 0. -1.
          1    1    1    2  502    0  0.10352799775E+03 -0.28495444998E+02  0.74455071630E+03  0.75225381744E+03  0.00000000000E+00 0. -1.
         22    1    3    3    0    0 -0.27004312533E+00  0.41840687166E+02  0.37136867931E+02  0.55945178394E+02  0.00000000000E+00 0. -1.
         22    1    3    3    0    0 -0.12009812161E+03 -0.32681330094E+02  0.26048363294E+03  0.28869248550E+03  0.00000000000E+00 0. -1.
</event>
<event>
 7    1  0.5593520E-006  0.1815455E+03  0.7818608E-02  0.1286175E+00
          2   -1    0    0  502    0  0.00000000000E+00  0.00000000000E+00  0.22637318816E+03  0.22637318816E+03  0.00000000000E+00 0. -1.
          1   -1    0    0  501    0 -0.00000000000E+00 -0.00000000000E+00 -0.41591307700E+03  0.41591307700E+03  0.00000000000E+00 0. -1.
         25    2    1    2    0    0 -0.20811455316E+03 -0.52815865069E+02  0.32475298265E+02  0.25056091726E+03  0.12499978167E+03 0.  0.
          2    1    1    2  501    0  0.17550240763E+03  0.12183853306E+02 -0.26909833969E+03  0.32150187836E+03  0.00000000000E+00 0. -1.
          1    1    1    2  502    0  0.32612145531E+02  0.40632011763E+02  0.47083152585E+02  0.70223469534E+02  0.00000000000E+00 0. -1.
         22    1    3    3    0    0 -0.18438152180E+03 -0.24621022626E+01 -0.32322804035E+01  0.18442628653E+03  0.00000000000E+00 0. -1.
         22    1    3    3    0    0 -0.23733031363E+02 -0.50353762806E+02  0.35707578669E+02  0.66134630723E+02  0.00000000000E+00 0. -1.
</event>
<event>
 7    1  0.5593520E-006  0.7153182E+02  0.7818608E-02  0.1456484E+00
          2   -1    0    0  502    0  0.00000000000E+00  0.00000000000E+00  0.42809244932E+03  0.42809244932E+03  0.00000000000E+00 0. -1.
          1   -1    0    0  501    0 -0.00000000000E+00 -0.00000000000E+00 -0.49297041975E+03  0.49297041975E+03  0.00000000000E+00 0. -1.
         25    2    1    2    0    0 -0.29562030795E+02  0.39565551361E+02  0.86894843391E+01  0.13468411838E+03  0.12499983234E+03 0.  0.
          2    1    1    2  501    0 -0.32193360663E+02 -0.57078517872E+00 -0.42561686657E+03  0.42683305329E+03  0.00000000000E+00 0. -1.
          1    1    1    2  502    0  0.61755391458E+02 -0.38994766182E+02  0.35204941181E+03  0.35954569740E+03  0.00000000000E+00 0. -1.
         22    1    3    3    0    0  0.44734774426E+02 -0.90141278654E+01  0.28327566084E+01  0.45721756901E+02  0.00000000000E+00 0.  1.
         22    1    3    3    0    0 -0.74296805221E+02  0.48579679226E+02  0.58567277307E+01  0.88962361476E+02  0.00000000000E+00 0.  1.
</event>
<event>
 7    1  0.5593520E-006  0.1433492E+03  0.7818608E-02  0.1378700E+00
          2   -1    0    0  502    0  0.00000000000E+00  0.00000000000E+00  0.59791597079E+03  0.59791597079E+03  0.00000000000E+00 0. -1.
          1   -1    0    0  501    0 -0.00000000000E+00 -0.00000000000E+00 -0.67956836996E+02  0.67956836996E+02  0.00000000000E+00 0. -1.
         25    2    1    2    0    0 -0.80403195616E+02 -0.94566584729E+02  0.37797245657E+03  0.41700693988E+03  0.12499638862E+03 0.  0.
          2    1    1    2  501    0  0.83907703015E+02  0.12365481174E+03  0.76470557188E+02  0.16786530675E+03  0.00000000000E+00 0. -1.
          1    1    1    2  502    0 -0.35045073992E+01 -0.29088227015E+02  0.75516120032E+02  0.81000561157E+02  0.00000000000E+00 0. -1.
         22    1    3    3    0    0 -0.73338340601E+02 -0.36862570256E+02  0.84391791030E+02  0.11772567979E+03  0.00000000000E+00 0.  1.
         22    1    3    3    0    0 -0.70648550150E+01 -0.57704014473E+02  0.29358066554E+03  0.29928126009E+03  0.00000000000E+00 0.  1.
</event>
<event>
 7    1  0.5593520E-006  0.1082205E+03  0.7818608E-02  0.1268785E+00
          2   -1    0    0  502    0  0.00000000000E+00  0.00000000000E+00  0.13345846285E+04  0.13345846285E+04  0.00000000000E+00 0. -1.
          1   -1    0    0  501    0 -0.00000000000E+00 -0.00000000000E+00 -0.77838655402E+03  0.77838655402E+03  0.00000000000E+00 0. -1.
         25    2    1    2    0    0  0.27737632939E+02 -0.16146410751E+03  0.13560050380E+03  0.24669114748E+03  0.12501596426E+03 0.  0.
          2    1    1    2  501    0  0.51103212304E+02  0.94874137921E+02 -0.71647512920E+03  0.72453381641E+03  0.00000000000E+00 0. -1.
          1    1    1    2  502    0 -0.78840845243E+02  0.66589969590E+02  0.11370726999E+04  0.11417462186E+04  0.00000000000E+00 0. -1.
         22    1    3    3    0    0  0.19712438671E+02 -0.17134080259E+03  0.14921135735E+03  0.22805762437E+03  0.00000000000E+00 0.  1.
         22    1    3    3    0    0  0.80251942677E+01  0.98766950835E+01 -0.13610853555E+02  0.18633523105E+02  0.00000000000E+00 0.  1.
</event>
<event>
 7    1  0.5593520E-006  0.6660859E+02  0.7818608E-02  0.1444714E+00
          2   -1    0    0  502    0  0.00000000000E+00  0.00000000000E+00  0.15366824357E+04  0.15366824357E+04  0.00000000000E+00 0. -1.
          1   -1    0    0  501    0 -0.00000000000E+00 -0.00000000000E+00 -0.41288356954E+03  0.41288356954E+03  0.00000000000E+00 0. -1.
         25    2    1    2    0    0  0.33902012838E+02  0.32047546838E+02  0.65044739309E+02  0.14843702454E+03  0.12500536153E+03 0.  0.
          2    1    1    2  501    0 -0.66201620364E+02 -0.12589418018E+02 -0.36787772079E+03  0.37399888427E+03  0.00000000000E+00 0. -1.
          1    1    1    2  502    0  0.32299607526E+02 -0.19458128820E+02  0.14266318477E+04  0.14271300965E+04  0.00000000000E+00 0. -1.
         22    1    3    3    0    0 -0.30203810063E+02  0.63500404802E+01  0.72670100316E+02  0.78952749391E+02  0.00000000000E+00 0. -1.
         22    1    3    3    0    0  0.64105822901E+02  0.25697506358E+02 -0.76253610071E+01  0.69484275151E+02  0.00000000000E+00 0. -1.
</event>
<event>
 7    1  0.5593520E-006  0.1018579E+03  0.7818608E-02  0.1351076E+00
          2   -1    0    0  502    0  0.00000000000E+00  0.00000000000E+00  0.16860417442E+03  0.16860417442E+03  0.00000000000E+00 0. -1.
          1   -1    0    0  501    0 -0.00000000000E+00 -0.00000000000E+00 -0.69240047419E+03  0.69240047419E+03  0.00000000000E+00 0. -1.
         25    2    1    2    0    0  0.37097977636E+02  0.13560172295E+03 -0.27841201683E+03  0.33600895503E+03  0.12499871812E+03 0.  0.
          2    1    1    2  501    0 -0.43101776323E+02 -0.84030661393E+02 -0.37429335117E+03  0.38602386960E+03  0.00000000000E+00 0. -1.
          1    1    1    2  502    0  0.60037986878E+01 -0.51571061553E+02  0.12890906823E+03  0.13897182398E+03  0.00000000000E+00 0. -1.
         22    1    3    3    0    0 -0.18310322636E+02  0.38530018676E+02 -0.18644946490E+03  0.19126743898E+03  0.00000000000E+00 0. -1.
         22    1    3    3    0    0  0.55408300272E+02  0.97071704270E+02 -0.91962551935E+02  0.14474151605E+03  0.00000000000E+00 0. -1.
</event>
<event>
 7    1  0.5593520E-006  0.8957531E+02  0.7818608E-02  0.1310224E+00
          2   -1    0    0  502    0  0.00000000000E+00  0.00000000000E+00  0.10034404658E+03  0.10034404658E+03  0.00000000000E+00 0. -1.
          1   -1    0    0  501    0 -0.00000000000E+00 -0.00000000000E+00 -0.14906541658E+04  0.14906541658E+04  0.00000000000E+00 0. -1.
         25    2    1    2    0    0  0.15447068998E+03  0.47549064475E+02 -0.30652284640E+03  0.36837978979E+03  0.12500122627E+03 0.  0.
          2    1    1    2  501    0 -0.69969580662E+02 -0.50257154770E+02 -0.11251881733E+04  0.11284812578E+04  0.00000000000E+00 0. -1.
          1    1    1    2  502    0 -0.84501109320E+02  0.27080902950E+01  0.41400900505E+02  0.94137164776E+02  0.00000000000E+00 0. -1.
         22    1    3    3    0    0  0.69814832465E+02 -0.12441254766E+02 -0.37882809600E+02  0.80399023100E+02  0.00000000000E+00 0. -1.
         22    1    3    3    0    0  0.84655857517E+02  0.59990319241E+02 -0.26864003679E+03  0.28798076669E+03  0.00000000000E+00 0. -1.
</event>
<event>
 7    1  0.5593520E-006  0.3298425E+02  0.7818608E-02  0.1593243E+00
          2   -1    0    0  502    0  0.00000000000E+00  0.00000000000E+00  0.21061278260E+03  0.21061278260E+03  0.00000000000E+00 0. -1.
          1   -1    0    0  501    0 -0.00000000000E+00 -0.00000000000E+00 -0.68052028609E+03  0.68052028609E+03  0.00000000000E+00 0. -1.
         25    2    1    2    0    0  0.46679408871E+02 -0.25798255572E+02 -0.41358817563E+03  0.43534677554E+03  0.12500847473E+03 0.  0.
          2    1    1    2  501    0 -0.28063901947E+02 -0.13735996836E+01 -0.25391472098E+03  0.25546458639E+03  0.00000000000E+00 0. -1.
          1    1    1    2  502    0 -0.18615506923E+02  0.27171855255E+02  0.19759539312E+03  0.20032170676E+03  0.00000000000E+00 0. -1.
         22    1    3    3    0    0  0.22639357864E+02  0.30545804271E+02 -0.32743558889E+03  0.32963563453E+03  0.00000000000E+00 0. -1.
         22    1    3    3    0    0  0.24040051007E+02 -0.56344059842E+02 -0.86152586740E+02  0.10571114101E+03  0.00000000000E+00 0. -1.
</event>
<event>
 7    1  0.5593520E-006  0.2855187E+03  0.7818608E-02  0.1110965E+00
          2   -1    0    0  502    0  0.00000000000E+00  0.00000000000E+00  0.13225735919E+04  0.13225735919E+04  0.00000000000E+00 0. -1.
          1   -1    0    0  501    0 -0.00000000000E+00 -0.00000000000E+00 -0.38160119321E+03  0.38160119321E+03  0.00000000000E+00 0. -1.
         25    2    1    2    0    0 -0.16439342482E+03  0.21543311749E+03  0.98567084048E+00  0.29843280394E+03  0.12499816273E+03 0.  0.
          2    1    1    2  501    0  0.32852867931E+03 -0.60811965452E+02 -0.94297645514E+02  0.34716168312E+03  0.00000000000E+00 0. -1.
          1    1    1    2  502    0 -0.16413525449E+03 -0.15462115204E+03  0.10342843733E+04  0.10585802980E+04  0.00000000000E+00 0. -1.
         22    1    3    3    0    0 -0.37060893281E+02 -0.90957067842E+01  0.12212145742E+02  0.40067171055E+02  0.00000000000E+00 0. -1.
         22    1    3    3    0    0 -0.12733253154E+03  0.22452882428E+03 -0.11226474902E+02  0.25836563289E+03  0.00000000000E+00 0. -1.
</event>
<event>
 7    1  0.5593520E-006  0.1459150E+03  0.7818608E-02  0.1285207E+00
          2   -1    0    0  502    0  0.00000000000E+00  0.00000000000E+00  0.14756115474E+03  0.14756115474E+03  0.00000000000E+00 0. -1.
          1   -1    0    0  501    0 -0.00000000000E+00 -0.00000000000E+00 -0.12852345786E+04  0.12852345786E+04  0.00000000000E+00 0. -1.
         25    2    1    2    0    0 -0.79451406162E+02 -0.51336958079E+02 -0.62774370282E+02  0.16886824399E+03  0.12501141171E+03 0.  0.
          2    1    1    2  501    0  0.14445322151E+03  0.43975791578E+02 -0.11525468688E+04  0.11623961839E+04  0.00000000000E+00 0. -1.
          1    1    1    2  502    0 -0.65001815348E+02  0.73611665009E+01  0.77647815266E+02  0.10153130545E+03  0.00000000000E+00 0. -1.
         22    1    3    3    0    0 -0.99587311147E+02 -0.75377250865E+02 -0.55517434798E+02  0.13668045967E+03  0.00000000000E+00 0. -1.
         22    1    3    3    0    0  0.20135904985E+02  0.24040292786E+02 -0.72569354845E+01  0.32187784320E+02  0.00000000000E+00 0. -1.
</event>
<event>
 7    1  0.5593520E-006  0.1331535E+03  0.7818608E-02  0.1255224E+00
          2   -1    0    0  502    0  0.00000000000E+00  0.00000000000E+00  0.25162354734E+04  0.25162354734E+04  0.00000000000E+00 0. -1.
          1   -1    0    0  501    0 -0.00000000000E+00 -0.00000000000E+00 -0.12821795984E+03  0.12821795984E+03  0.00000000000E+00 0. -1.
         25    2    1    2    0    0 -0.45956565416E+02  0.21886505242E+02  0.28989086721E+03  0.31977293902E+03  0.12500797024E+03 0.  0.
          2    1    1    2  501    0 -0.84884223591E+02  0.44392626971E+02 -0.90122030014E+02  0.13152192607E+03  0.00000000000E+00 0. -1.
          1    1    1    2  502    0  0.13084078901E+03 -0.66279132213E+02  0.21882486764E+04  0.21931585682E+04  0.00000000000E+00 0. -1.
         22    1    3    3    0    0 -0.69411177789E+02 -0.29097026959E+02  0.12869059343E+03  0.14908325667E+03  0.00000000000E+00 0. -1.
         22    1    3    3    0    0  0.23454612372E+02  0.50983532202E+02  0.16120027378E+03  0.17068968236E+03  0.00000000000E+00 0. -1.
</event>
<event>
 7    1  0.9149363E-006  0.6338114E+02  0.7818608E-02  0.1435437E+00
          2   -1    0    0  502    0  0.00000000000E+00  0.00000000000E+00  0.13549911416E+04  0.13549911416E+04  0.00000000000E+00 0. -1.
          1   -1    0    0  501    0 -0.00000000000E+00 -0.00000000000E+00 -0.70813128614E+03  0.70813128614E+03  0.00000000000E+00 0. -1.
         25    2    1    2    0    0 -0.44771210421E+02  0.75857702946E+02 -0.21249008869E+03  0.26179424421E+03  0.12500134451E+03 0.  0.
          2    1    1    2  501    0 -0.85039448408E+01 -0.41612346132E+02 -0.46927577875E+03  0.47119386769E+03  0.00000000000E+00 0. -1.
          1    1    1    2  502    0  0.53275155261E+02 -0.34245356814E+02  0.13286257229E+04  0.13301343158E+04  0.00000000000E+00 0. -1.
         22    1    3    3    0    0 -0.12856247356E+02 -0.70254125206E+01  0.12909991827E+02  0.19527094155E+02  0.00000000000E+00 0.  1.
         22    1    3    3    0    0 -0.31914963064E+02  0.82883115467E+02 -0.22540008052E+03  0.24226715005E+03  0.00000000000E+00 0.  1.
</event>
<event>
 7    1  0.5593520E-006  0.2195996E+02  0.7818608E-02  0.1720504E+00
          2   -1    0    0  502    0  0.00000000000E+00  0.00000000000E+00  0.44441355512E+02  0.44441355512E+02  0.00000000000E+00 0. -1.
          1   -1    0    0  501    0 -0.00000000000E+00 -0.00000000000E+00 -0.21945415702E+04  0.21945415702E+04  0.00000000000E+00 0. -1.
         25    2    1    2    0    0  0.82670338727E+01 -0.29860000813E+02 -0.12028383287E+04  0.12097129309E+04  0.12500146679E+03 0.  0.
          2    1    1    2  501    0 -0.17997265146E+02  0.10176579525E+02 -0.98521025472E+03  0.98542717150E+03  0.00000000000E+00 0. -1.
          1    1    1    2  502    0  0.97302312729E+01  0.19683421289E+02  0.37948368684E+02  0.43842823359E+02  0.00000000000E+00 0. -1.
         22    1    3    3    0    0  0.35869325315E+02  0.33570599895E+02 -0.27933310408E+03  0.28362048006E+03  0.00000000000E+00 0. -1.
         22    1    3    3    0    0 -0.27602291442E+02 -0.63430600709E+02 -0.92350522461E+03  0.92609245083E+03  0.00000000000E+00 0. -1.
</event>
<event>
 7    1  0.5593520E-006  0.4809799E+02  0.7818608E-02  0.1558337E+00
          2   -1    0    0  502    0  0.00000000000E+00  0.00000000000E+00  0.16343470714E+04  0.16343470714E+04  0.00000000000E+00 0. -1.
          1   -1    0    0  501    0 -0.00000000000E+00 -0.00000000000E+00 -0.22980357712E+03  0.22980357712E+03  0.00000000000E+00 0. -1.
         25    2    1    2    0    0  0.80721759831E+01  0.24384739604E+02 -0.79849646308E+02  0.15053405282E+03  0.12499903797E+03 0.  0.
          2    1    1    2  501    0 -0.39269554419E+01  0.23607402018E+02 -0.11299539617E+03  0.11550190460E+03  0.00000000000E+00 0. -1.
          1    1    1    2  502    0 -0.41452205412E+01 -0.47992141622E+02  0.15973885368E+04  0.15981146911E+04  0.00000000000E+00 0. -1.
         22    1    3    3    0    0 -0.30623402374E+02  0.27183734793E+02 -0.99098071313E+02  0.10722488493E+03  0.00000000000E+00 0. -1.
         22    1    3    3    0    0  0.38695578357E+02 -0.27989951891E+01  0.19248425005E+02  0.43309167893E+02  0.00000000000E+00 0. -1.
</event>
<event>
 7    1  0.5593520E-006  0.6148284E+02  0.7818608E-02  0.1468663E+00
          2   -1    0    0  502    0  0.00000000000E+00  0.00000000000E+00  0.17321613015E+03  0.17321613015E+03  0.00000000000E+00 0. -1.
          1   -1    0    0  501    0 -0.00000000000E+00 -0.00000000000E+00 -0.14670503860E+03  0.14670503860E+03  0.00000000000E+00 0. -1.
         25    2    1    2    0    0  0.29040477746E+02 -0.33964930128E+02  0.14814329766E+02  0.13357041860E+03  0.12499850612E+03 0.  0.
          2    1    1    2  501    0 -0.61304934295E+02  0.22323699250E+02 -0.71239908726E+02  0.96601072004E+02  0.00000000000E+00 0. -1.
          1    1    1    2  502    0  0.32264456549E+02  0.11641230879E+02  0.82936670508E+02  0.89749678148E+02  0.00000000000E+00 0. -1.
         22    1    3    3    0    0 -0.34018683606E+02 -0.20442179475E+02 -0.34339101680E+02  0.52481686712E+02  0.00000000000E+00 0. -1.
         22    1    3    3    0    0  0.63059161352E+02 -0.13522750654E+02  0.49153431446E+02  0.81088731884E+02  0.00000000000E+00 0. -1.
</event>
<event>
 7    1  0.5593520E-006  0.1645192E+03  0.7818608E-02  0.1187406E+00
          2   -1    0    0  502    0  0.00000000000E+00  0.00000000000E+00  0.11072719161E+04  0.11072719161E+04  0.00000000000E+00 0. -1.
          1   -1    0    0  501    0 -0.00000000000E+00 -0.00000000000E+00 -0.25010184801E+03  0.25010184801E+03  0.00000000000E+00 0. -1.
         25    2    1    2    0    0  0.24970770501E+02  0.59703354365E+02  0.14116351691E+03  0.19935042278E+03  0.12500169060E+03 0.  0.
          2    1    1    2  501    0  0.14454371296E+03  0.63428075712E+02 -0.17909523864E+03  0.23872810947E+03  0.00000000000E+00 0. -1.
          1    1    1    2  502    0 -0.16951448346E+03 -0.12313143008E+03  0.89510178979E+03  0.91929523183E+03  0.00000000000E+00 0. -1.
         22    1    3    3    0    0  0.55629645579E+02  0.80393452239E+02  0.12574498149E+03  0.15927826280E+03  0.00000000000E+00 0.  1.
         22    1    3    3    0    0 -0.30658875078E+02 -0.20690097874E+02  0.15418535426E+02  0.40072159983E+02  0.00000000000E+00 0.  1.
</event>
<event>
 7    1  0.5593520E-006  0.3013524E+03  0.7818608E-02  0.1238407E+00
          2   -1    0    0  502    0  0.00000000000E+00  0.00000000000E+00  0.15510765462E+04  0.15510765462E+04  0.00000000000E+00 0. -1.
          1   -1    0    0  501    0 -0.00000000000E+00 -0.00000000000E+00 -0.18966290770E+04  0.18966290770E+04  0.00000000000E+00 0. -1.
         25    2    1    2    0    0 -0.17039416425E+03  0.29317058970E+03  0.33759390346E+03  0.49454876498E+03  0.12500268564E+03 0.  0.
          2    1    1    2  501    0  0.91050946862E+01 -0.49278301810E+02 -0.17989649503E+04  0.17996627868E+04  0.00000000000E+00 0. -1.
          1    1    1    2  502    0  0.16128906956E+03 -0.24389228789E+03  0.11158185160E+04  0.11534940714E+04  0.00000000000E+00 0. -1.
         22    1    3    3    0    0 -0.46236813447E+02  0.16778983163E+03  0.22798299211E+03  0.28682314273E+03  0.00000000000E+00 0. -1.
         22    1    3    3    0    0 -0.12415735080E+03  0.12538075807E+03  0.10961091135E+03  0.20772562225E+03  0.00000000000E+00 0. -1.
</event>
<event>
 7    1  0.5593520E-006  0.2379056E+02  0.7818608E-02  0.1700857E+00
          2   -1    0    0  502    0  0.00000000000E+00  0.00000000000E+00  0.72130144166E+03  0.72130144166E+03  0.00000000000E+00 0. -1.
          1   -1    0    0  501    0 -0.00000000000E+00 -0.00000000000E+00 -0.13685439978E+04  0.13685439978E+04  0.00000000000E+00 0. -1.
         25    2    1    2    0    0 -0.16579152237E+02 -0.22559947407E+01 -0.67197478301E+03  0.68371101975E+03  0.12502276483E+03 0.  0.
          2    1    1    2  501    0  0.19974920225E+01  0.21059723632E+02 -0.69034117750E+03  0.69066521795E+03  0.00000000000E+00 0. -1.
          1    1    1    2  502    0  0.14581660214E+02 -0.18803728892E+02  0.71507340437E+03  0.71546920176E+03  0.00000000000E+00 0. -1.
         22    1    3    3    0    0 -0.14205106738E+02 -0.48867368287E+02 -0.56124146599E+03  0.56354395382E+03  0.00000000000E+00 0.  1.
         22    1    3    3    0    0 -0.23740454992E+01  0.46611373546E+02 -0.11073331702E+03  0.12016706593E+03  0.00000000000E+00 0.  1.
</event>
<event>
 7    1  0.5593520E-006  0.7317053E+02  0.7818608E-02  0.1357995E+00
          2   -1    0    0  502    0  0.00000000000E+00  0.00000000000E+00  0.69638190947E+03  0.69638190947E+03  0.00000000000E+00 0. -1.
          1   -1    0    0  501    0 -0.00000000000E+00 -0.00000000000E+00 -0.69369656726E+03  0.69369656726E+03  0.00000000000E+00 0. -1.
         25    2    1    2    0    0 -0.25219329971E+02  0.23326245575E+02  0.25384856241E+03  0.28503279704E+03  0.12499789766E+03 0.  0.
          2    1    1    2  501    0  0.49321780167E+02  0.54048943024E+02 -0.67225544152E+03  0.67622577952E+03  0.00000000000E+00 0. -1.
          1    1    1    2  502    0 -0.24102450196E+02 -0.77375188599E+02  0.42109222132E+03  0.42881990016E+03  0.00000000000E+00 0. -1.
         22    1    3    3    0    0  0.32883860611E+02  0.14784629919E+02  0.14966203384E+02  0.39037428377E+02  0.00000000000E+00 0.  1.
         22    1    3    3    0    0 -0.58103190582E+02  0.85416156555E+01  0.23888235902E+03  0.24599536867E+03  0.00000000000E+00 0.  1.
</event>
<event>
 7    1  0.5593520E-006  0.6410277E+02  0.7818608E-02  0.1502124E+00
          2   -1    0    0  502    0  0.00000000000E+00  0.00000000000E+00  0.54454735306E+03  0.54454735306E+03  0.00000000000E+00 0. -1.
          1   -1    0    0  501    0 -0.00000000000E+00 -0.00000000000E+00 -0.94828584134E+03  0.94828584134E+03  0.00000000000E+00 0. -1.
         25    2    1    2    0    0  0.25526045747E+02 -0.28869399410E+02  0.18419338982E+02  0.13209597139E+03  0.12500020950E+03 0.  0.
          2    1    1    2  501    0 -0.44335483942E+02  0.46846199488E+02 -0.88991882396E+03  0.89225316742E+03  0.00000000000E+00 0. -1.
          1    1    1    2  502    0  0.18809438195E+02 -0.17976800078E+02  0.46776099669E+03  0.46848405558E+03  0.00000000000E+00 0. -1.
         22    1    3    3    0    0 -0.37894812946E+02  0.22967422980E+02 -0.99448326417E+01  0.45413864214E+02  0.00000000000E+00 0. -1.
         22    1    3    3    0    0  0.63420858693E+02 -0.51836822390E+02  0.28364171623E+02  0.86682107178E+02  0.00000000000E+00 0. -1.
</event>
<event>
 7    1  0.5593520E-006  0.2532540E+03  0.7818608E-02  0.1225156E+00
          2   -1    0    0  502    0  0.00000000000E+00  0.00000000000E+00  0.35279143733E+04  0.35279143733E+04  0.00000000000E+00 0. -1.
          1   -1    0    0  501    0 -0.00000000000E+00 -0.00000000000E+00 -0.20207798249E+03  0.20207798249E+03  0.00000000000E+00 0. -1.
         25    2    1    2    0    0  0.19222699360E+03 -0.37323991903E+02  0.10688185412E+04  0.10937739392E+04  0.12499623460E+03 0.  0.
          2    1    1    2  501    0 -0.25748675709E+03  0.17021642185E+02 -0.10107325553E+03  0.27713709489E+03  0.00000000000E+00 0. -1.
          1    1    1    2  502    0  0.65259763487E+02  0.20302349718E+02  0.23580911051E+04  0.23590813217E+04  0.00000000000E+00 0. -1.
         22    1    3    3    0    0  0.71401809893E+02 -0.76367558487E+02  0.52773631022E+03  0.53799241218E+03  0.00000000000E+00 0.  1.
         22    1    3    3    0    0  0.12082518371E+03  0.39043566583E+02  0.54108223095E+03  0.55578152701E+03  0.00000000000E+00 0.  1.
</event>
<event>
 7    1  0.5593520E-006  0.9112269E+02  0.7818608E-02  0.1355292E+00
          2   -1    0    0  502    0  0.00000000000E+00  0.00000000000E+00  0.13016644513E+04  0.13016644513E+04  0.00000000000E+00 0. -1.
          1   -1    0    0  501    0 -0.00000000000E+00 -0.00000000000E+00 -0.37200981711E+03  0.37200981711E+03  0.00000000000E+00 0. -1.
         25    2    1    2    0    0  0.60698098081E+01 -0.51590738583E+02  0.21647709388E+02  0.13708761102E+03  0.12500377145E+03 0.  0.
          2    1    1    2  501    0 -0.55890803955E+02  0.77151676332E+02 -0.30641030657E+03  0.32087916589E+03  0.00000000000E+00 0. -1.
          1    1    1    2  502    0  0.49820994147E+02 -0.25560937750E+02  0.12144172314E+04  0.12157074915E+04  0.00000000000E+00 0. -1.
         22    1    3    3    0    0 -0.49807743159E+02 -0.13359964204E+02 -0.22497835090E+02  0.56262354251E+02  0.00000000000E+00 0.  1.
         22    1    3    3    0    0  0.55877552967E+02 -0.38230774378E+02  0.44145544478E+02  0.80825256773E+02  0.00000000000E+00 0.  1.
</event>
<event>
 7    1  0.5593520E-006  0.1085205E+03  0.7818608E-02  0.1381971E+00
          2   -1    0    0  502    0  0.00000000000E+00  0.00000000000E+00  0.84091793537E+03  0.84091793537E+03  0.00000000000E+00 0. -1.
          1   -1    0    0  501    0 -0.00000000000E+00 -0.00000000000E+00 -0.79612041717E+03  0.79612041717E+03  0.00000000000E+00 0. -1.
         25    2    1    2    0    0 -0.62235904278E+02  0.43724924765E+02 -0.23355642015E+03  0.27560692618E+03  0.12500159815E+03 0.  0.
          2    1    1    2  501    0 -0.37683121011E+02 -0.15689244627E+00 -0.53725281678E+03  0.53857277258E+03  0.00000000000E+00 0. -1.
          1    1    1    2  502    0  0.99919025289E+02 -0.43568032319E+02  0.81560675514E+03  0.82285865377E+03  0.00000000000E+00 0. -1.
         22    1    3    3    0    0 -0.15118808956E+02  0.20328286596E+02  0.93989679409E+01  0.27021439979E+02  0.00000000000E+00 0.  1.
         22    1    3    3    0    0 -0.47117095322E+02  0.23396638169E+02 -0.24295538809E+03  0.24858548620E+03  0.00000000000E+00 0.  1.
</event>
<event>
 7    1  0.5593520E-006  0.1252294E+03  0.7818608E-02  0.1312284E+00
          2   -1    0    0  502    0  0.00000000000E+00  0.00000000000E+00  0.22444086930E+03  0.22444086930E+03  0.00000000000E+00 0. -1.
          1   -1    0    0  501    0 -0.00000000000E+00 -0.00000000000E+00 -0.14476992624E+04  0.14476992624E+04  0.00000000000E+00 0. -1.
         25    2    1    2    0    0 -0.78937227592E+02 -0.70324831389E+02 -0.37975728623E+02  0.16805185733E+03  0.12499041154E+03 0.  0.
          2    1    1    2  501    0  0.27973729140E+02 -0.52350892420E+02 -0.13162238867E+04  0.13175615604E+04  0.00000000000E+00 0. -1.
          1    1    1    2  502    0  0.50963498451E+02  0.12267572381E+03  0.13094122218E+03  0.18652671404E+03  0.00000000000E+00 0. -1.
         22    1    3    3    0    0 -0.12026310821E+02  0.26764574903E+02  0.21125940589E+02  0.36156327074E+02  0.00000000000E+00 0. -1.
         22    1    3    3    0    0 -0.66910916771E+02 -0.97089406291E+02 -0.59101669212E+02  0.13189553025E+03  0.00000000000E+00 0. -1.
</event>
<event>
 7    1  0.5593520E-006  0.8826317E+02  0.7818608E-02  0.1382366E+00
          2   -1    0    0  502    0  0.00000000000E+00  0.00000000000E+00  0.14278071705E+04  0.14278071705E+04  0.00000000000E+00 0. -1.
          1   -1    0    0  501    0 -0.00000000000E+00 -0.00000000000E+00 -0.18772731061E+03  0.18772731061E+03  0.00000000000E+00 0. -1.
         25    2    1    2    0    0 -0.76775208700E+01  0.64509735422E+02 -0.11403268700E+02  0.14133389382E+03  0.12499913885E+03 0.  0.
          2    1    1    2  501    0  0.42909095502E+02  0.17080368315E+02 -0.10505293366E+03  0.11475647402E+03  0.00000000000E+00 0. -1.
          1    1    1    2  502    0 -0.35231574632E+02 -0.81590103737E+02  0.13565360623E+04  0.13594441133E+04  0.00000000000E+00 0. -1.
         22    1    3    3    0    0 -0.25350151626E+00  0.43246753638E+02  0.55719358108E+02  0.70533629080E+02  0.00000000000E+00 0.  1.
         22    1    3    3    0    0 -0.74240193537E+01  0.21262981784E+02 -0.67122626808E+02  0.70800264740E+02  0.00000000000E+00 0.  1.
</event>
<event>
 7    1  0.5593520E-006  0.1005878E+03  0.7818608E-02  0.1354019E+00
          2   -1    0    0  502    0  0.00000000000E+00  0.00000000000E+00  0.19514513951E+04  0.19514513951E+04  0.00000000000E+00 0. -1.
          1   -1    0    0  501    0 -0.00000000000E+00 -0.00000000000E+00 -0.67045932701E+03  0.67045932701E+03  0.00000000000E+00 0. -1.
         25    2    1    2    0    0 -0.81827465227E+02  0.69675928559E+02 -0.66268445693E+02  0.17767207582E+03  0.12500156217E+03 0.  0.
          2    1    1    2  501    0 -0.16576184918E+02 -0.48523291722E+02 -0.54595089454E+03  0.54835358939E+03  0.00000000000E+00 0. -1.
          1    1    1    2  502    0  0.98403650145E+02 -0.21152636837E+02  0.18932114083E+04  0.18958850569E+04  0.00000000000E+00 0. -1.
         22    1    3    3    0    0  0.95810375281E+01  0.29820677932E+02  0.26835054787E+02  0.41245475847E+02  0.00000000000E+00 0.  1.
         22    1    3    3    0    0 -0.91408502755E+02  0.39855250627E+02 -0.93103500480E+02  0.13642659997E+03  0.00000000000E+00 0.  1.
</event>
<event>
 7    1  0.5593520E-006  0.4411317E+02  0.7818608E-02  0.1492774E+00
          2   -1    0    0  502    0  0.00000000000E+00  0.00000000000E+00  0.39300225790E+04  0.39300225790E+04  0.00000000000E+00 0. -1.
          1   -1    0    0  501    0 -0.00000000000E+00 -0.00000000000E+00 -0.23402854558E+03  0.23402854558E+03  0.00000000000E+00 0. -1.
         25    2    1    2    0    0 -0.72126362545E+02 -0.35852451834E+02  0.23725487843E+04  0.23772042731E+04  0.12499924740E+03 0.  0.
          2    1    1    2  501    0  0.43439506033E+02  0.75101961641E+01 -0.22933977203E+03  0.23353827260E+03  0.00000000000E+00 0. -1.
          1    1    1    2  502    0  0.28686856512E+02  0.28342255670E+02  0.15527850211E+04  0.15533085788E+04  0.00000000000E+00 0. -1.
         22    1    3    3    0    0 -0.13009951459E+02  0.19801840035E+02  0.85708091876E+02  0.88922712052E+02  0.00000000000E+00 0.  1.
         22    1    3    3    0    0 -0.59116411085E+02 -0.55654291868E+02  0.22868406924E+04  0.22882815611E+04  0.00000000000E+00 0.  1.
</event>
<event>
 7    1  0.5593520E-006  0.3796661E+02  0.7818608E-02  0.1528610E+00
          2   -1    0    0  502    0  0.00000000000E+00  0.00000000000E+00  0.10850669391E+04  0.10850669391E+04  0.00000000000E+00 0. -1.
          1   -1    0    0  501    0 -0.00000000000E+00 -0.00000000000E+00 -0.20304864721E+04  0.20304864721E+04  0.00000000000E+00 0. -1.
         25    2    1    2    0    0  0.22265433102E+02  0.12132223457E+01  0.31067514744E+03  0.33561912464E+03  0.12499571259E+03 0.  0.
          2    1    1    2  501    0 -0.90486550586E+01  0.35626945099E+02 -0.20173443058E+04  0.20176791631E+04  0.00000000000E+00 0. -1.
          1    1    1    2  502    0 -0.13216778043E+02 -0.36840167444E+02  0.76124962526E+03  0.76225512338E+03  0.00000000000E+00 0. -1.
         22    1    3    3    0    0 -0.19496606320E+02  0.51516018344E+02  0.19624627690E+03  0.20382987760E+03  0.00000000000E+00 0. -1.
         22    1    3    3    0    0  0.41762039422E+02 -0.50302795999E+02  0.11442887054E+03  0.13178924704E+03  0.00000000000E+00 0. -1.
</event>
<event>
 7    1  0.5593520E-006  0.1313474E+03  0.7818608E-02  0.1401041E+00
          2   -1    0    0  502    0  0.00000000000E+00  0.00000000000E+00  0.90663414834E+03  0.90663414834E+03  0.00000000000E+00 0. -1.
          1   -1    0    0  501    0 -0.00000000000E+00 -0.00000000000E+00 -0.22940388497E+03  0.22940388497E+03  0.00000000000E+00 0. -1.
         25    2    1    2    0    0  0.10893481325E+03 -0.16370713288E+01 -0.66873074486E+02  0.17878814675E+03  0.12499487905E+03 0.  0.
          2    1    1    2  501    0  0.22378490909E+02 -0.14600155676E+02 -0.99657681553E+02  0.10317758911E+03  0.00000000000E+00 0. -1.
          1    1    1    2  502    0 -0.13131330416E+03  0.16237227005E+02  0.84376101941E+03  0.85407229745E+03  0.00000000000E+00 0. -1.
         22    1    3    3    0    0  0.93033030164E+01  0.36597694047E+02  0.18570221630E+02  0.42080824469E+02  0.00000000000E+00 0.  1.
         22    1    3    3    0    0  0.99631510235E+02 -0.38234765376E+02 -0.85443296116E+02  0.13670732228E+03  0.00000000000E+00 0.  1.
</event>
<event>
 7    1  0.5593520E-006  0.1388411E+03  0.7818608E-02  0.1290845E+00
          2   -1    0    0  502    0  0.00000000000E+00  0.00000000000E+00  0.32930945068E+03  0.32930945068E+03  0.00000000000E+00 0. -1.
          1   -1    0    0  501    0 -0.00000000000E+00 -0.00000000000E+00 -0.14927270526E+04  0.14927270526E+04  0.00000000000E+00 0. -1.
         25    2    1    2    0    0  0.75432748047E+02  0.54882318759E+02 -0.65305634969E+02  0.16909591344E+03  0.12500573425E+03 0.  0.
          2    1    1    2  501    0 -0.13787724831E+03 -0.36115431183E+02 -0.13679404989E+04  0.13753456542E+04  0.00000000000E+00 0. -1.
          1    1    1    2  502    0  0.62444500259E+02 -0.18766887577E+02  0.26982853191E+03  0.27759493568E+03  0.00000000000E+00 0. -1.
         22    1    3    3    0    0  0.65298822802E+02  0.42104747828E+01  0.20811588020E+02  0.68664303340E+02  0.00000000000E+00 0.  1.
         22    1    3    3    0    0  0.10133925245E+02  0.50671843976E+02 -0.86117222989E+02  0.10043161010E+03  0.00000000000E+00 0.  1.
</event>
<event>
 7    1  0.5593520E-006  0.9686340E+02  0.7818608E-02  0.1291472E+00
          2   -1    0    0  502    0  0.00000000000E+00  0.00000000000E+00  0.65133774475E+03  0.65133774475E+03  0.00000000000E+00 0. -1.
          1   -1    0    0  501    0 -0.00000000000E+00 -0.00000000000E+00 -0.73681143359E+03  0.73681143359E+03  0.00000000000E+00 0. -1.
         25    2    1    2    0    0  0.12678949609E+03 -0.83372887748E+02 -0.31746747093E+03  0.37340931167E+03  0.12498921641E+03 0.  0.
          2    1    1    2  501    0 -0.92653692184E+02 -0.69681191086E+01 -0.38203042823E+03  0.39316727922E+03  0.00000000000E+00 0. -1.
          1    1    1    2  502    0 -0.34135803902E+02  0.90341006856E+02  0.61402421031E+03  0.62157258745E+03  0.00000000000E+00 0. -1.
         22    1    3    3    0    0  0.11509222827E+03 -0.38079910308E+01 -0.20531090698E+03  0.23540027683E+03  0.00000000000E+00 0.  1.
         22    1    3    3    0    0  0.11697267815E+02 -0.79564896717E+02 -0.11215656394E+03  0.13800903485E+03  0.00000000000E+00 0.  1.
</event>
<event>
 7    1  0.5593520E-006  0.1032564E+03  0.7818608E-02  0.1360914E+00
          2   -1    0    0  502    0  0.00000000000E+00  0.00000000000E+00  0.10509997722E+04  0.10509997722E+04  0.00000000000E+00 0. -1.
          1   -1    0    0  501    0 -0.00000000000E+00 -0.00000000000E+00 -0.18418127608E+03  0.18418127608E+03  0.00000000000E+00 0. -1.
         25    2    1    2    0    0  0.33893492026E+02 -0.10438833042E+03  0.12779252217E+03  0.20977184915E+03  0.12501043015E+03 0.  0.
          2    1    1    2  501    0  0.37096517915E+02  0.29068075646E+02 -0.13617994551E+03  0.14410441430E+03  0.00000000000E+00 0. -1.
          1    1    1    2  502    0 -0.70990009941E+02  0.75320254770E+02  0.87520591945E+03  0.88130478481E+03  0.00000000000E+00 0. -1.
         22    1    3    3    0    0  0.40900669542E+02 -0.13142171679E+03  0.98177324754E+02  0.16906602115E+03  0.00000000000E+00 0. -1.
         22    1    3    3    0    0 -0.70071775164E+01  0.27033386370E+02  0.29615197415E+02  0.40705828002E+02  0.00000000000E+00 0. -1.
</event>
<event>
 7    1  0.5593520E-006  0.9140240E+02  0.7818608E-02  0.1461832E+00
          2   -1    0    0  502    0  0.00000000000E+00  0.00000000000E+00  0.66816409987E+03  0.66816409987E+03  0.00000000000E+00 0. -1.
          1   -1    0    0  501    0 -0.00000000000E+00 -0.00000000000E+00 -0.50438782543E+02  0.50438782543E+02  0.00000000000E+00 0. -1.
         25    2    1    2    0    0 -0.13029876520E+02  0.69104249459E+02  0.47511220192E+03  0.49628727476E+03  0.12499711876E+03 0.  0.
          2    1    1    2  501    0  0.10953800145E+02 -0.93252565135E+02  0.18298332703E+02  0.95660104649E+02  0.00000000000E+00 0. -1.
          1    1    1    2  502    0  0.20760763748E+01  0.24148315675E+02  0.12431478271E+03  0.12665550301E+03  0.00000000000E+00 0. -1.
         22    1    3    3    0    0 -0.37984038408E+02 -0.15656331831E+02  0.66001803838E+02  0.77744105950E+02  0.00000000000E+00 0.  1.
         22    1    3    3    0    0  0.24954161888E+02  0.84760581291E+02  0.40911039808E+03  0.41854316881E+03  0.00000000000E+00 0.  1.
</event>
<event>
 7    1  0.5593520E-006  0.2335728E+02  0.7818608E-02  0.1692179E+00
          2   -1    0    0  502    0  0.00000000000E+00  0.00000000000E+00  0.52896218686E+02  0.52896218686E+02  0.00000000000E+00 0. -1.
          1   -1    0    0  501    0 -0.00000000000E+00 -0.00000000000E+00 -0.18652613992E+04  0.18652613992E+04  0.00000000000E+00 0. -1.
         25    2    1    2    0    0 -0.29402326348E+02 -0.33427877040E+02 -0.87157378741E+03  0.88161739301E+03  0.12500576387E+03 0.  0.
          2    1    1    2  501    0  0.11466146543E+02  0.19732390172E+02 -0.98586697293E+03  0.98613109070E+03  0.00000000000E+00 0. -1.
          1    1    1    2  502    0  0.17936179805E+02  0.13695486868E+02  0.45075579850E+02  0.50409134146E+02  0.00000000000E+00 0. -1.
         22    1    3    3    0    0 -0.31712078951E+02  0.32435124069E+02 -0.61652702226E+03  0.61819354769E+03  0.00000000000E+00 0.  1.
         22    1    3    3    0    0  0.23097526026E+01 -0.65863001108E+02 -0.25504676515E+03  0.26342384532E+03  0.00000000000E+00 0.  1.
</event>
<event>
 7    1  0.5598986E-006  0.1252503E+03  0.7818608E-02  0.1242972E+00
          2   -1    0    0  502    0  0.00000000000E+00  0.00000000000E+00  0.13395038975E+04  0.13395038975E+04  0.00000000000E+00 0. -1.
          1   -1    0    0  501    0 -0.00000000000E+00 -0.00000000000E+00 -0.49899546237E+03  0.49899546237E+03  0.00000000000E+00 0. -1.
         25    2    1    2    0    0 -0.11081630073E+02 -0.83991344448E+01 -0.73970097463E+02  0.14590986325E+03  0.12499905955E+03 0.  0.
          2    1    1    2  501    0 -0.10789253704E+03 -0.40133012966E+02 -0.37728256836E+03  0.39445353930E+03  0.00000000000E+00 0. -1.
          1    1    1    2  502    0  0.11897416712E+03  0.48532147411E+02  0.12917611010E+04  0.12981359573E+04  0.00000000000E+00 0. -1.
         22    1    3    3    0    0  0.32232519293E+02 -0.26303731925E+01  0.22909257231E+02  0.39631909240E+02  0.00000000000E+00 0. -1.
         22    1    3    3    0    0 -0.43314149366E+02 -0.57687612524E+01 -0.96879354694E+02  0.10627795401E+03  0.00000000000E+00 0. -1.
</event>
<event>
 7    1  0.5593520E-006  0.4110447E+02  0.7818608E-02  0.1550472E+00
          2   -1    0    0  502    0  0.00000000000E+00  0.00000000000E+00  0.28499422353E+03  0.28499422353E+03  0.00000000000E+00 0. -1.
          1   -1    0    0  501    0 -0.00000000000E+00 -0.00000000000E+00 -0.92487332452E+03  0.92487332452E+03  0.00000000000E+00 0. -1.
         25    2    1    2    0    0 -0.14521337940E+02  0.56777934898E+02 -0.30749389766E+03  0.33707260600E+03  0.12502336371E+03 0.  0.
          2    1    1    2  501    0 -0.13074206040E+02 -0.26384031820E+02 -0.60066805239E+03  0.60138935904E+03  0.00000000000E+00 0. -1.
          1    1    1    2  502    0  0.27595543979E+02 -0.30393903078E+02  0.26828284906E+03  0.27140558302E+03  0.00000000000E+00 0. -1.
         22    1    3    3    0    0 -0.35193527832E+02 -0.38344530633E+01 -0.16397321113E+02  0.39014863466E+02  0.00000000000E+00 0.  1.
         22    1    3    3    0    0  0.20672189892E+02  0.60612387962E+02 -0.29109657654E+03  0.29805774253E+03  0.00000000000E+00 0.  1.
</event>
<event>
 7    1  0.5593520E-006  0.9529174E+02  0.7818608E-02  0.1361147E+00
          2   -1    0    0  502    0  0.00000000000E+00  0.00000000000E+00  0.32095536618E+02  0.32095536618E+02  0.00000000000E+00 0. -1.
          1   -1    0    0  501    0 -0.00000000000E+00 -0.00000000000E+00 -0.21905762298E+04  0.21905762298E+04  0.00000000000E+00 0. -1.
         25    2    1    2    0    0 -0.73833462274E+02 -0.11179050304E+03 -0.49059067502E+03  0.52369180006E+03  0.12500157726E+03 0.  0.
          2    1    1    2  501    0  0.38892216308E+02  0.32941667112E+02 -0.15601071183E+04  0.15609394538E+04  0.00000000000E+00 0. -1.
          1    1    1    2  502    0  0.34941245966E+02  0.78848835932E+02 -0.10778289986E+03  0.13804051253E+03  0.00000000000E+00 0. -1.
         22    1    3    3    0    0 -0.80454039897E+02 -0.12728682790E+02 -0.26460665407E+03  0.27686016918E+03  0.00000000000E+00 0. -1.
         22    1    3    3    0    0  0.66205776230E+01 -0.99061820253E+02 -0.22598402095E+03  0.24683163089E+03  0.00000000000E+00 0. -1.
</event>
<event>
 7    1  0.5593520E-006  0.9049818E+02  0.7818608E-02  0.1481806E+00
          2   -1    0    0  502    0  0.00000000000E+00  0.00000000000E+00  0.10227116940E+04  0.10227116940E+04  0.00000000000E+00 0. -1.
          1   -1    0    0  501    0 -0.00000000000E+00 -0.00000000000E+00 -0.44853573216E+03  0.44853573216E+03  0.00000000000E+00 0. -1.
         25    2    1    2    0    0  0.43039812794E+02 -0.54516943371E+02 -0.32886810878E+03  0.35859779908E+03  0.12495449545E+03 0.  0.
          2    1    1    2  501    0  0.14527532133E+02 -0.15472667752E+02 -0.10166756099E+03  0.10385925859E+03  0.00000000000E+00 0. -1.
          1    1    1    2  502    0 -0.57567344928E+02  0.69989611123E+02  0.10047116316E+04  0.10087903685E+04  0.00000000000E+00 0. -1.
         22    1    3    3    0    0 -0.20988385829E+02 -0.71779154696E+02 -0.20285010134E+03  0.21619649166E+03  0.00000000000E+00 0. -1.
         22    1    3    3    0    0  0.64028198623E+02  0.17262211325E+02 -0.12601800744E+03  0.14240130743E+03  0.00000000000E+00 0. -1.
</event>
